Title
55513
    1DOPE     N    1   2.323   3.578  16.942 -0.6389 -0.3345 -0.9112
    1DOPE   HN1    2   2.291   3.674  16.965 -1.9118 -1.0658  0.5088
    1DOPE   HN2    3   2.284   3.545  16.851 -0.3987 -2.6011 -0.2436
    1DOPE   HN3    4   2.276   3.522  17.015 -1.5470  0.7184 -0.6694
    1DOPE   C12    5   2.473   3.552  16.945 -0.0574 -0.5184 -0.2663
    1DOPE  H12A    6   2.525   3.642  16.906 -0.1308 -1.0313 -1.6112
    1DOPE  H12B    7   2.492   3.469  16.873  3.7309  0.4229 -0.5775
    1DOPE   C11    8   2.524   3.519  17.086 -0.1927  0.6075  0.5950
    1DOPE  H11A    9   2.452   3.452  17.137 -0.1779  0.9832  1.1151
    1DOPE  H11B   10   2.521   3.616  17.140 -2.8391  1.2020 -0.4385
    1DOPE     P   11   2.793   3.509  17.105 -0.0479  0.2201 -0.0186
    1DOPE   O13   12   2.884   3.395  17.097  0.0757 -0.2907  0.2182
    1DOPE   O14   13   2.794   3.592  17.228  0.3556  0.3370 -0.3429
    1DOPE   O11   14   2.809   3.595  16.976  0.5151  0.1156  0.1169
    1DOPE   O12   15   2.648   3.450  17.084  0.4448  0.0126 -0.0173
    1DOPE    C1   16   2.928   3.622  16.897  0.4754 -0.7249  0.0049
    1DOPE    HA   17   3.018   3.562  16.922  0.5313 -1.5180 -1.9004
    1DOPE    HB   18   2.966   3.726  16.897  2.4752 -1.4168 -0.1412
    1DOPE    C2   19   2.902   3.586  16.749  0.5332  0.0097 -0.5066
    1DOPE    HS   20   2.991   3.616  16.690  1.9898  0.2426  1.6948
    1DOPE   O21   21   2.779   3.629  16.701  0.9819 -0.0571  0.1943
    1DOPE   C21   22   2.775   3.755  16.690  0.0837  0.8538  0.6413
    1DOPE   O22   23   2.868   3.836  16.693  0.0813 -0.1929  0.0398
    1DOPE   C22   24   2.634   3.804  16.660  0.2003 -0.1566  0.1160
    1DOPE   H2R   25   2.634   3.892  16.592  1.0454 -0.6261 -0.5175
    1DOPE   H2S   26   2.599   3.842  16.759  3.3124 -2.8068  2.4728
    1DOPE    C3   27   2.910   3.429  16.733 -0.5038 -0.2568 -0.3908
    1DOPE    HX   28   2.828   3.388  16.796 -0.6530 -0.9348 -1.0149
    1DOPE    HY   29   3.005   3.397  16.781  0.2973  0.9448 -1.0996
    1DOPE   O31   30   2.896   3.395  16.593 -0.3274  0.2236 -0.0819
    1DOPE   C31   31   2.793   3.311  16.559 -0.1943 -0.1557  0.4012
    1DOPE   O32   32   2.707   3.277  16.642 -0.1257  0.3816  0.0141
    1DOPE   C32   33   2.799   3.273  16.409  0.4591  0.5969 -0.4561
    1DOPE   H2X   34   2.730   3.344  16.360  0.9558  0.6749 -1.0489
    1DOPE   H2Y   35   2.898   3.306  16.371  1.1053  0.2977  0.9128
    1DOPE   C23   36   2.527   3.701  16.606 -0.2650 -0.6622 -0.0115
    1DOPE   H3R   37   2.428   3.751  16.606  0.5521  1.0474 -1.2145
    1DOPE   H3S   38   2.536   3.611  16.671  2.2757  0.7748  1.8357
    1DOPE   C24   39   2.569   3.645  16.463  0.1474 -0.0738 -0.7357
    1DOPE   H4R   40   2.480   3.607  16.409 -1.8821 -0.1296  2.3851
    1DOPE   H4S   41   2.648   3.567  16.469 -1.8263 -2.3368 -2.3082
    1DOPE   C25   42   2.613   3.755  16.369 -0.1127 -0.2591 -0.0731
    1DOPE   H5R   43   2.713   3.790  16.403 -0.7371 -0.2499  1.9293
    1DOPE   H5S   44   2.540   3.839  16.375 -1.4055 -1.4538  2.3326
    1DOPE   C26   45   2.625   3.723  16.212 -0.0743  0.1311  0.0615
    1DOPE   H6R   46   2.551   3.644  16.186 -1.1577  1.4115 -0.9061
    1DOPE   H6S   47   2.730   3.693  16.195 -0.0999  0.2716 -0.3442
    1DOPE   C27   48   2.602   3.848  16.119 -0.5858 -0.8447  0.1534
    1DOPE   H7R   49   2.639   3.944  16.161  0.1063 -0.3928 -1.3906
    1DOPE   H7S   50   2.492   3.858  16.110 -0.6744 -0.8819  1.1034
    1DOPE   C28   51   2.673   3.834  15.981 -0.5491 -0.2454  0.8501
    1DOPE   H8R   52   2.671   3.733  15.936 -2.1195  0.2930 -0.3921
    1DOPE   H8S   53   2.781   3.852  16.000 -0.8444  1.0235  1.4670
    1DOPE   C29   54   2.612   3.928  15.878  0.5891 -0.1075 -0.0720
    1DOPE   H9R   55   2.510   3.896  15.850  0.6974  3.0167 -5.2354
    1DOPE  C210   56   2.678   4.025  15.814 -0.7179  0.1985 -0.1853
    1DOPE  H10R   57   2.627   4.093  15.744  0.4699 -0.5311 -1.8261
    1DOPE  C211   58   2.812   4.077  15.856  0.1583 -0.4469  0.0421
    1DOPE  H11R   59   2.837   4.059  15.963 -0.0797  0.3671  0.2397
    1DOPE  H11S   60   2.819   4.187  15.843  0.9512 -0.5331 -0.2936
    1DOPE  C212   61   2.927   4.020  15.766 -0.0480  0.7706 -0.0386
    1DOPE  H12R   62   2.934   3.909  15.772 -0.2796  0.6977 -1.0677
    1DOPE  H12S   63   3.016   4.071  15.809 -1.6706  1.3647  2.8788
    1DOPE  C213   64   2.935   4.072  15.619  0.3266 -0.4752  0.3683
    1DOPE  H13R   65   2.945   4.182  15.623 -0.6753 -0.3802  0.7299
    1DOPE  H13S   66   2.840   4.056  15.563  0.5907  0.3928 -0.3517
    1DOPE  C214   67   3.059   4.027  15.534 -0.0803 -0.7055 -0.4321
    1DOPE  H14R   68   3.046   3.918  15.518  0.2135 -0.8461  0.2344
    1DOPE  H14S   69   3.151   4.041  15.596  0.9411 -1.4417 -1.7369
    1DOPE  C215   70   3.074   4.115  15.409  0.6557  0.3626 -0.1634
    1DOPE  H15R   71   3.176   4.103  15.367  0.6509  3.6538 -1.3636
    1DOPE  H15S   72   3.068   4.222  15.435  1.6274  0.4443 -0.2315
    1DOPE  C216   73   2.968   4.089  15.302  0.7639 -0.0063 -0.0874
    1DOPE  H16R   74   2.869   4.121  15.341  0.6251 -1.0429  0.4297
    1DOPE  H16S   75   2.962   3.980  15.286  1.3944  0.1462 -1.4675
    1DOPE  C217   76   2.994   4.163  15.167  0.2261 -0.0222  0.2055
    1DOPE  H17R   77   3.093   4.145  15.120 -1.3944 -0.8835 -3.2208
    1DOPE  H17S   78   2.982   4.271  15.188 -0.0429 -0.1427  0.6757
    1DOPE  C218   79   2.889   4.122  15.063  0.5709 -0.3315 -0.2704
    1DOPE  H18R   80   2.904   4.015  15.035 -1.6541 -0.2747 -1.9008
    1DOPE  H18S   81   2.880   4.178  14.968 -2.2348 -0.5579 -0.2281
    1DOPE  H18T   82   2.793   4.141  15.114  1.8511  0.7536  1.8519
    1DOPE   C33   83   2.770   3.120  16.384 -0.6407  0.0162  0.5521
    1DOPE   H3X   84   2.706   3.087  16.469 -0.8588 -1.8112 -0.2859
    1DOPE   H3Y   85   2.858   3.052  16.377 -1.0167 -0.3752 -0.4748
    1DOPE   C34   86   2.686   3.108  16.258 -0.2541  0.5087  0.4831
    1DOPE   H4X   87   2.647   3.004  16.267  1.3017 -0.2988 -1.4588
    1DOPE   H4Y   88   2.592   3.165  16.273 -0.0789  1.0130 -0.2847
    1DOPE   C35   89   2.763   3.119  16.129  0.2275  0.6685 -0.4649
    1DOPE   H5X   90   2.841   3.040  16.122 -2.4842 -2.4119  1.4106
    1DOPE   H5Y   91   2.817   3.216  16.131  1.0988  0.1944  1.0934
    1DOPE   C36   92   2.669   3.110  16.006  0.4355 -0.1953  0.1571
    1DOPE   H6X   93   2.571   3.161  16.020 -0.3276 -1.2757 -1.0329
    1DOPE   H6Y   94   2.647   3.002  15.992 -2.2599  0.4168 -0.8970
    1DOPE   C37   95   2.741   3.166  15.882  0.0802  0.3568 -0.0688
    1DOPE   H7X   96   2.714   3.272  15.865  0.2805  0.5193  0.6026
    1DOPE   H7Y   97   2.850   3.160  15.900  0.1277 -0.5561 -0.5779
    1DOPE   C38   98   2.716   3.091  15.750 -0.4553  0.0257 -0.6586
    1DOPE   H8X   99   2.703   2.984  15.779  0.9382 -0.1126 -0.4473
    1DOPE   H8Y  100   2.808   3.088  15.688 -1.3831 -0.6497 -2.0670
    1DOPE   C39  101   2.586   3.132  15.684  0.4250  0.0431 -0.2359
    1DOPE   H9X  102   2.491   3.097  15.728 -1.6715  2.8439 -2.1965
    1DOPE  C310  103   2.581   3.201  15.564 -0.4107  0.1140 -0.7826
    1DOPE  H10X  104   2.485   3.241  15.528 -0.1158  0.6641 -0.9536
    1DOPE  C311  105   2.696   3.239  15.474  0.7599 -0.1047 -0.4686
    1DOPE  H11X  106   2.736   3.332  15.519  2.0863 -0.1829 -1.4306
    1DOPE  H11Y  107   2.772   3.160  15.487  0.9248 -0.5101 -3.3271
    1DOPE  C312  108   2.672   3.240  15.324  0.7330 -0.3141 -0.1332
    1DOPE  H12X  109   2.620   3.146  15.294 -1.0632  1.0359 -1.5169
    1DOPE  H12Y  110   2.769   3.223  15.272  0.7336  0.9031 -0.5637
    1DOPE  C313  111   2.602   3.366  15.273 -0.6444 -0.0250 -0.4870
    1DOPE  H13X  112   2.507   3.376  15.331  0.2814  0.9709  0.9369
    1DOPE  H13Y  113   2.656   3.457  15.305 -0.7631 -1.2757  3.9855
    1DOPE  C314  114   2.582   3.368  15.123 -0.0153 -0.2609  0.3966
    1DOPE  H14X  115   2.479   3.399  15.096 -0.3289 -1.9424 -0.4637
    1DOPE  H14Y  116   2.588   3.262  15.092  3.1995  0.5478 -2.3179
    1DOPE  C315  117   2.687   3.444  15.052 -0.6857 -0.1022 -0.0486
    1DOPE  H15X  118   2.786   3.409  15.087 -1.1275 -0.4792  0.8674
    1DOPE  H15Y  119   2.676   3.551  15.079 -1.8754 -0.1721 -0.2006
    1DOPE  C316  120   2.667   3.433  14.904  0.3024  0.2653  1.0357
    1DOPE  H16X  121   2.570   3.482  14.883  0.4281 -0.0562 -0.3622
    1DOPE  H16Y  122   2.664   3.325  14.882 -1.2978  0.3800  0.5588
    1DOPE  C317  123   2.784   3.491  14.828 -0.2290 -0.2806  0.5939
    1DOPE  H17X  124   2.805   3.595  14.861 -1.8783  0.4216 -0.4175
    1DOPE  H17Y  125   2.869   3.420  14.837 -0.1906 -0.0919  1.8654
    1DOPE  C318  126   2.753   3.484  14.681 -0.3250  0.1370  0.3752
    1DOPE  H18X  127   2.842   3.502  14.619 -0.2334  0.5864  0.6362
    1DOPE  H18Y  128   2.704   3.386  14.657 -0.7506  0.8873 -2.1114
    1DOPE  H18Z  129   2.680   3.562  14.650  0.1674 -0.3230 -2.0806
    2DOPE     N  130   2.596   4.104  16.961 -0.4372 -0.5866 -0.1687
    2DOPE   HN1  131   2.611   4.151  16.870  1.1938  0.7649  0.7452
    2DOPE   HN2  132   2.672   4.035  16.978  0.7679  0.3376 -1.6449
    2DOPE   HN3  133   2.503   4.057  16.951  0.3700 -2.0639 -1.0084
    2DOPE   C12  134   2.587   4.201  17.074 -0.0643 -0.1062 -0.0892
    2DOPE  H12A  135   2.488   4.190  17.124  0.9261  0.2015  2.0473
    2DOPE  H12B  136   2.588   4.306  17.037 -1.1974 -0.4817 -1.2426
    2DOPE   C11  137   2.705   4.193  17.168  0.4318  0.5412 -0.5668
    2DOPE  H11A  138   2.711   4.088  17.204  1.2301  0.2821 -1.4001
    2DOPE  H11B  139   2.663   4.261  17.246 -0.8733  0.2888 -1.0200
    2DOPE     P  140   2.943   4.298  17.177  0.1177  0.4758  0.1443
    2DOPE   O13  141   3.002   4.194  17.262  0.1884  0.1620 -0.0324
    2DOPE   O14  142   2.913   4.431  17.232 -0.1813  0.2122 -0.1750
    2DOPE   O11  143   3.049   4.325  17.069  0.1344  0.1795 -0.4054
    2DOPE   O12  144   2.825   4.233  17.102 -0.3946 -0.2097  0.1230
    2DOPE    C1  145   3.080   4.233  16.960  0.0210  0.2741  0.2330
    2DOPE    HA  146   3.003   4.153  16.949 -2.0450  1.9661  1.5330
    2DOPE    HB  147   3.175   4.177  16.973 -0.0918 -0.3929 -1.6019
    2DOPE    C2  148   3.068   4.310  16.832 -0.8385 -0.6245 -0.5513
    2DOPE    HS  149   2.969   4.360  16.827 -0.7873 -0.3843  0.4704
    2DOPE   O21  150   3.088   4.216  16.732 -0.0458  0.3127  0.6650
    2DOPE   C21  151   2.998   4.212  16.633 -0.0414  0.2964 -0.1555
    2DOPE   O22  152   2.893   4.271  16.623 -0.2047  0.0427  0.3504
    2DOPE   C22  153   3.062   4.117  16.533  0.2632 -0.4489  0.8270
    2DOPE   H2R  154   3.081   4.020  16.584 -4.4677 -0.0162  3.9891
    2DOPE   H2S  155   3.162   4.160  16.507  0.2563 -0.2009  1.2097
    2DOPE    C3  156   3.178   4.421  16.827 -0.1186 -0.0981 -0.0521
    2DOPE    HX  157   3.277   4.370  16.830 -1.6488 -3.3832 -0.4085
    2DOPE    HY  158   3.172   4.483  16.919 -0.9690 -0.7544  0.3468
    2DOPE   O31  159   3.165   4.491  16.703 -0.1919  0.1452 -0.2542
    2DOPE   C31  160   3.120   4.620  16.707 -0.6668  0.1437  0.5516
    2DOPE   O32  161   3.069   4.672  16.807 -0.1697 -0.4411  0.2585
    2DOPE   C32  162   3.154   4.690  16.564 -0.0192  0.2817 -0.2284
    2DOPE   H2X  163   3.056   4.736  16.540  0.6709  1.9204  0.0347
    2DOPE   H2Y  164   3.236   4.759  16.590  1.0250  0.1421 -2.8299
    2DOPE   C23  165   2.983   4.109  16.396 -1.1962  0.2884 -0.1760
    2DOPE   H3R  166   2.993   4.205  16.340 -0.2649 -0.1870 -0.8596
    2DOPE   H3S  167   2.874   4.090  16.404 -0.7820 -3.4776 -1.3451
    2DOPE   C24  168   3.042   3.998  16.311 -0.0616 -0.4250 -0.5454
    2DOPE   H4R  169   3.148   4.023  16.291 -0.2327 -0.0825 -1.0236
    2DOPE   H4S  170   2.997   3.998  16.210 -0.2370 -1.2808 -0.4765
    2DOPE   C25  171   3.038   3.859  16.371 -0.0936 -0.4390 -0.1196
    2DOPE   H5R  172   2.932   3.848  16.402 -0.2266 -0.9955 -0.7312
    2DOPE   H5S  173   3.100   3.845  16.462  0.0040  0.3882 -0.0526
    2DOPE   C26  174   3.069   3.748  16.266 -0.8460 -0.3140  0.2711
    2DOPE   H6R  175   3.170   3.751  16.219 -1.6077  0.6741 -1.4271
    2DOPE   H6S  176   3.011   3.763  16.172 -2.9199  0.3706  1.6020
    2DOPE   C27  177   3.035   3.605  16.316  0.5260 -0.4318 -0.5552
    2DOPE   H7R  178   2.942   3.606  16.377  0.4393 -2.1180 -0.5977
    2DOPE   H7S  179   3.120   3.600  16.388  1.3652  0.6608 -1.4355
    2DOPE   C28  180   3.039   3.487  16.221  0.1649 -0.1644 -0.0754
    2DOPE   H8R  181   3.054   3.396  16.284 -0.4826  0.1875  0.6075
    2DOPE   H8S  182   3.130   3.506  16.162  0.8396 -1.0001  0.6636
    2DOPE   C29  183   2.912   3.482  16.137  0.6599  0.3490  0.2391
    2DOPE   H9R  184   2.827   3.466  16.205  0.6938 -0.3008  0.1329
    2DOPE  C210  185   2.895   3.528  16.013  0.2425 -0.3482  0.6809
    2DOPE  H10R  186   2.798   3.515  15.964  1.1612 -0.9556 -1.0449
    2DOPE  C211  187   2.996   3.585  15.921  0.2522 -0.4067  0.3812
    2DOPE  H11R  188   3.102   3.568  15.951  0.4709  0.2613  0.0220
    2DOPE  H11S  189   2.976   3.693  15.903  0.2565 -0.5666 -0.6342
    2DOPE  C212  190   2.999   3.502  15.791  0.4881 -0.4853  0.4607
    2DOPE  H12R  191   2.912   3.526  15.726  1.5096  2.2741 -0.0363
    2DOPE  H12S  192   2.995   3.396  15.825 -2.4548  0.1808  2.6324
    2DOPE  C213  193   3.130   3.524  15.717 -1.0134 -0.6730  0.2905
    2DOPE  H13R  194   3.217   3.520  15.786  0.1474  2.9329 -0.7445
    2DOPE  H13S  195   3.134   3.632  15.693  1.0832 -0.4781  1.2738
    2DOPE  C214  196   3.142   3.436  15.592 -0.6394 -0.0268  0.4572
    2DOPE  H14R  197   3.145   3.330  15.626 -1.3899 -0.5224 -0.9168
    2DOPE  H14S  198   3.239   3.457  15.541 -1.1352 -0.5749 -0.7459
    2DOPE  C215  199   3.034   3.465  15.488 -0.3230  0.7657  0.5746
    2DOPE  H15R  200   3.041   3.570  15.452 -0.5525  1.5916  2.7835
    2DOPE  H15S  201   2.933   3.456  15.533 -0.2869 -0.5773  0.4097
    2DOPE  C216  202   3.037   3.368  15.371  0.3126  0.1496  0.6685
    2DOPE  H16R  203   2.948   3.398  15.311 -0.2329 -2.2537  0.1919
    2DOPE  H16S  204   3.010   3.266  15.405  2.3160 -1.3359 -1.8936
    2DOPE  C217  205   3.171   3.386  15.297 -0.3073 -0.0139 -0.3568
    2DOPE  H17R  206   3.250   3.327  15.349  0.6207 -0.5877 -2.3293
    2DOPE  H17S  207   3.212   3.489  15.298 -1.9134  0.6505  0.7515
    2DOPE  C218  208   3.172   3.335  15.150 -0.4778 -0.2663 -0.2536
    2DOPE  H18R  209   3.089   3.379  15.091 -1.2875  1.6158  2.0881
    2DOPE  H18S  210   3.163   3.224  15.148  1.6331 -0.4598 -1.0182
    2DOPE  H18T  211   3.265   3.357  15.093  0.0840 -0.4339  0.5803
    2DOPE   C33  212   3.194   4.596  16.445  0.6273  0.8182 -0.2609
    2DOPE   H3X  213   3.122   4.513  16.436  2.3670 -0.6472 -1.3348
    2DOPE   H3Y  214   3.286   4.535  16.458 -0.1293 -0.0460  1.2535
    2DOPE   C34  215   3.228   4.672  16.321 -0.3034  0.1984  0.6015
    2DOPE   H4X  216   3.256   4.597  16.244 -0.7562  1.6508 -1.0573
    2DOPE   H4Y  217   3.133   4.722  16.294 -0.6789  0.1860  1.8319
    2DOPE   C35  218   3.337   4.774  16.329  0.4260  0.1583 -0.2728
    2DOPE   H5X  219   3.437   4.730  16.350  0.1223 -0.9875 -1.1645
    2DOPE   H5Y  220   3.323   4.843  16.415  0.0303  0.5999 -0.6858
    2DOPE   C36  221   3.365   4.857  16.201  0.3727  0.0155  0.2387
    2DOPE   H6X  222   3.423   4.943  16.239 -1.4091  1.0855  0.6807
    2DOPE   H6Y  223   3.268   4.889  16.156 -0.8905 -0.6002  2.3863
    2DOPE   C37  224   3.453   4.795  16.092  0.4121  0.0447 -0.4415
    2DOPE   H7X  225   3.549   4.770  16.142 -0.4601 -2.3868  0.1605
    2DOPE   H7Y  226   3.417   4.700  16.047  2.7045  0.4316 -3.4352
    2DOPE   C38  227   3.496   4.894  15.978 -0.0782  0.1102  0.6627
    2DOPE   H8X  228   3.540   4.979  16.034  0.2627 -0.2779  0.9880
    2DOPE   H8Y  229   3.392   4.919  15.946 -0.1997 -0.4020  0.6537
    2DOPE   C39  230   3.577   4.846  15.861  0.0096  0.0851  0.2703
    2DOPE   H9X  231   3.674   4.804  15.891 -0.5759 -0.9840  0.7162
    2DOPE  C310  232   3.528   4.823  15.731 -0.0003 -0.3942 -1.3362
    2DOPE  H10X  233   3.596   4.785  15.652  0.2550 -1.2816 -0.7107
    2DOPE  C311  234   3.393   4.861  15.680 -0.7789  0.5350 -0.2638
    2DOPE  H11X  235   3.333   4.767  15.679 -2.7797  1.7094 -2.5133
    2DOPE  H11Y  236   3.350   4.936  15.749  1.8850  1.3605  0.6094
    2DOPE  C312  237   3.378   4.908  15.531 -0.0620 -0.3904 -0.0940
    2DOPE  H12X  238   3.447   4.993  15.514 -0.1672 -0.7437 -2.5866
    2DOPE  H12Y  239   3.277   4.932  15.494  1.3637  1.1875 -3.3417
    2DOPE  C313  240   3.427   4.804  15.427 -0.0789  0.2174  0.3541
    2DOPE  H13X  241   3.535   4.786  15.445 -0.3339 -0.8153  0.9539
    2DOPE  H13Y  242   3.381   4.705  15.445 -0.0810 -0.6121 -3.4102
    2DOPE  C314  243   3.408   4.858  15.282  0.2117 -0.1358  0.3970
    2DOPE  H14X  244   3.461   4.955  15.274 -1.5117  0.6895 -2.4261
    2DOPE  H14Y  245   3.300   4.877  15.265  0.0706  2.3420  3.1657
    2DOPE  C315  246   3.458   4.756  15.182  0.4897  0.4416  0.1495
    2DOPE  H15X  247   3.405   4.660  15.200  3.3234 -0.9547  1.6840
    2DOPE  H15Y  248   3.568   4.740  15.188  0.8885  1.7585 -2.2082
    2DOPE  C316  249   3.447   4.792  15.032 -0.3019  0.3476 -0.3546
    2DOPE  H16X  250   3.339   4.783  15.011 -0.0896 -0.3016 -1.2172
    2DOPE  H16Y  251   3.500   4.716  14.971 -0.1234 -1.8734  2.4236
    2DOPE  C317  252   3.481   4.935  15.001  0.0824 -0.6837 -0.1914
    2DOPE  H17X  253   3.400   4.995  15.047 -2.8062 -3.0471 -1.8595
    2DOPE  H17Y  254   3.575   4.966  15.051 -1.1387  1.7298  0.7208
    2DOPE  C318  255   3.485   4.958  14.847  0.1145 -0.2886 -0.0867
    2DOPE  H18X  256   3.568   4.892  14.812  0.7595  0.8143 -0.7018
    2DOPE  H18Y  257   3.387   4.949  14.796 -0.4576 -0.3115  0.9927
    2DOPE  H18Z  258   3.510   5.062  14.819 -3.1042 -0.1634 -3.1961
    3DOPE     N  259   2.246   4.841  16.949  0.0019  0.2140  0.3443
    3DOPE   HN1  260   2.146   4.828  16.972  0.4571 -1.2763  1.7331
    3DOPE   HN2  261   2.302   4.867  17.033 -0.2817 -0.2202  0.6705
    3DOPE   HN3  262   2.247   4.927  16.891 -1.1172 -0.4485 -0.7076
    3DOPE   C12  263   2.298   4.722  16.868 -0.2544  0.4399  0.2143
    3DOPE  H12A  264   2.301   4.635  16.937  1.9000  0.5963  0.3981
    3DOPE  H12B  265   2.401   4.747  16.833 -0.9612  2.0098 -0.8443
    3DOPE   C11  266   2.213   4.690  16.744  0.3187 -0.9462 -0.2560
    3DOPE  H11A  267   2.279   4.638  16.672  0.4814 -0.8988 -0.1411
    3DOPE  H11B  268   2.185   4.784  16.692 -0.9315 -1.3393 -0.3279
    3DOPE     P  269   1.961   4.673  16.826  0.5130 -0.3177  0.1673
    3DOPE   O13  270   1.988   4.772  16.935  0.2064  0.7974 -0.4378
    3DOPE   O14  271   1.861   4.566  16.848  0.0977 -0.0789 -0.1088
    3DOPE   O11  272   1.915   4.762  16.706 -0.1258 -0.9172 -0.2705
    3DOPE   O12  273   2.099   4.611  16.780 -0.2669 -0.0823  0.1644
    3DOPE    C1  274   1.801   4.733  16.629 -0.4085  0.4238  0.5387
    3DOPE    HA  275   1.739   4.825  16.620 -0.3778  0.3930  0.0033
    3DOPE    HB  276   1.725   4.668  16.677 -0.5758  0.2237  0.0095
    3DOPE    C2  277   1.848   4.664  16.492  0.5075 -0.2977  0.3474
    3DOPE    HS  278   1.889   4.563  16.515 -1.1479 -1.0857  0.0309
    3DOPE   O21  279   1.952   4.745  16.427  0.2563  0.1426 -0.5432
    3DOPE   C21  280   2.056   4.676  16.380 -0.5194  0.2876 -0.4156
    3DOPE   O22  281   2.077   4.552  16.388  0.6757 -0.2489 -0.0118
    3DOPE   C22  282   2.149   4.777  16.321 -0.0623  0.3412  0.8861
    3DOPE   H2R  283   2.236   4.793  16.388  0.8521 -0.9383  0.0575
    3DOPE   H2S  284   2.098   4.875  16.312 -1.0527 -0.2905 -0.9277
    3DOPE    C3  285   1.724   4.633  16.408  0.2551  0.2268  1.2768
    3DOPE    HX  286   1.646   4.711  16.423  0.1029  0.2647  0.3716
    3DOPE    HY  287   1.678   4.539  16.445  1.1503  0.1331  2.1782
    3DOPE   O31  288   1.764   4.601  16.271  0.1477  0.1566  0.3317
    3DOPE   C31  289   1.657   4.621  16.186 -0.2314 -0.3484  0.1961
    3DOPE   O32  290   1.547   4.659  16.216 -0.2485  0.6863 -0.1847
    3DOPE   C32  291   1.709   4.569  16.053 -0.2567 -0.8843 -0.0846
    3DOPE   H2X  292   1.799   4.632  16.039 -0.7118 -0.7672 -3.3632
    3DOPE   H2Y  293   1.744   4.465  16.073  1.0501  0.0489  3.1046
    3DOPE   C23  294   2.208   4.721  16.186  0.0540 -0.4689 -0.4414
    3DOPE   H3R  295   2.124   4.721  16.114 -0.4515 -2.6410  0.0617
    3DOPE   H3S  296   2.254   4.620  16.199  0.4553 -0.1190  0.9975
    3DOPE   C24  297   2.308   4.824  16.122  0.4467  0.1220  0.8781
    3DOPE   H4R  298   2.393   4.856  16.185  1.0840  3.9088 -1.5902
    3DOPE   H4S  299   2.246   4.915  16.107  0.9565  0.2893 -0.3429
    3DOPE   C25  300   2.360   4.779  15.982  0.2551 -0.1936 -0.4261
    3DOPE   H5R  301   2.264   4.768  15.928  1.1602 -0.0212 -2.1197
    3DOPE   H5S  302   2.412   4.682  16.000  0.8596 -0.4113 -3.0537
    3DOPE   C26  303   2.450   4.880  15.909  0.2906  0.7234 -0.2545
    3DOPE   H6R  304   2.554   4.889  15.947 -0.4023 -0.3605  2.0190
    3DOPE   H6S  305   2.406   4.982  15.909  1.5274  1.3299  2.1473
    3DOPE   C27  306   2.462   4.826  15.766  0.0044  0.6860  0.1203
    3DOPE   H7R  307   2.363   4.825  15.715  0.5187  1.5060 -0.9264
    3DOPE   H7S  308   2.504   4.724  15.779  0.4339  0.4099 -2.7243
    3DOPE   C28  309   2.556   4.896  15.664  0.0167  0.5023  0.7361
    3DOPE   H8R  310   2.642   4.914  15.732 -0.3638  1.4028  0.9919
    3DOPE   H8S  311   2.524   4.998  15.634 -2.6144 -0.3025  0.4857
    3DOPE   C29  312   2.595   4.806  15.549  0.6406 -0.0111  0.7916
    3DOPE   H9R  313   2.656   4.718  15.572 -1.5317 -0.7882  4.2710
    3DOPE  C210  314   2.564   4.827  15.418 -0.1161  0.2362  0.0795
    3DOPE  H10R  315   2.598   4.750  15.347 -1.1489 -1.1474  1.0482
    3DOPE  C211  316   2.490   4.941  15.354  0.5241  0.2681 -0.1424
    3DOPE  H11R  317   2.544   5.036  15.377  0.9521 -0.3894  1.7529
    3DOPE  H11S  318   2.394   4.949  15.408  0.6497 -2.9685  0.7638
    3DOPE  C212  319   2.474   4.920  15.204 -0.3938  0.1231 -0.1166
    3DOPE  H12R  320   2.398   4.990  15.163  0.0967  0.1491 -0.9877
    3DOPE  H12S  321   2.442   4.820  15.168  1.6674 -0.3772 -0.6703
    3DOPE  C213  322   2.599   4.955  15.119  0.2441  0.6139 -0.2203
    3DOPE  H13R  323   2.684   4.902  15.167  0.9871  2.1492  0.2560
    3DOPE  H13S  324   2.620   5.064  15.134 -0.1177  0.7554 -0.7207
    3DOPE  C214  325   2.584   4.911  14.980  0.7326  0.1767  0.3038
    3DOPE  H14R  326   2.507   4.972  14.927  0.3948 -0.7670 -0.3259
    3DOPE  H14S  327   2.548   4.806  14.983  1.5545 -0.2565 -2.5429
    3DOPE  C215  328   2.712   4.915  14.902 -0.4222  0.4908 -0.0666
    3DOPE  H15R  329   2.768   4.836  14.955  0.7454 -0.2938 -2.3489
    3DOPE  H15S  330   2.756   5.014  14.924 -0.8548  0.2885  1.9258
    3DOPE  C216  331   2.696   4.889  14.753 -0.4093  0.3294  0.3751
    3DOPE  H16R  332   2.618   4.960  14.717 -0.7435  0.2686  0.9636
    3DOPE  H16S  333   2.669   4.784  14.727  3.5942 -0.4540 -1.2900
    3DOPE  C217  334   2.825   4.911  14.668 -0.4797 -0.5150 -0.2456
    3DOPE  H17R  335   2.867   5.012  14.687  2.1382 -1.3770 -1.0678
    3DOPE  H17S  336   2.795   4.919  14.561 -0.5237 -0.7728 -0.2519
    3DOPE  C218  337   2.924   4.799  14.686 -0.2446  0.2751  0.5470
    3DOPE  H18R  338   3.015   4.801  14.623 -0.1637 -0.3707  0.6331
    3DOPE  H18S  339   2.881   4.697  14.672  1.4214 -0.3067 -0.7163
    3DOPE  H18T  340   2.962   4.805  14.791 -0.1430 -2.1695  0.7174
    3DOPE   C33  341   1.615   4.589  15.926 -0.0887  0.7709 -0.3671
    3DOPE   H3X  342   1.592   4.695  15.904 -1.8896  0.0347 -2.3593
    3DOPE   H3Y  343   1.519   4.534  15.941 -0.3062  1.3594  0.4904
    3DOPE   C34  344   1.680   4.541  15.801 -0.6253  0.2104  0.7820
    3DOPE   H4X  345   1.786   4.575  15.803 -0.7973  1.1701 -2.3232
    3DOPE   H4Y  346   1.670   4.431  15.799  1.3179 -0.0635 -2.8900
    3DOPE   C35  347   1.610   4.582  15.673 -0.1620 -0.6753 -0.0571
    3DOPE   H5X  348   1.620   4.693  15.665 -0.3320 -0.7237 -1.1716
    3DOPE   H5Y  349   1.500   4.565  15.675 -0.3334  0.4521  1.3674
    3DOPE   C36  350   1.679   4.529  15.546 -0.7097  0.6300 -0.1258
    3DOPE   H6X  351   1.694   4.419  15.550 -1.1484  0.3653 -3.1879
    3DOPE   H6Y  352   1.780   4.573  15.537 -0.0184 -1.1066 -1.3920
    3DOPE   C37  353   1.610   4.570  15.415  0.0823  0.2735 -0.6213
    3DOPE   H7X  354   1.522   4.504  15.400 -3.3836  4.5950 -1.2420
    3DOPE   H7Y  355   1.559   4.668  15.416 -0.3509  0.0760 -2.0148
    3DOPE   C38  356   1.710   4.557  15.300 -0.2919 -0.1655 -0.3309
    3DOPE   H8X  357   1.784   4.637  15.320 -1.3829  0.9750 -0.7018
    3DOPE   H8Y  358   1.653   4.601  15.215  0.3977  1.5988  0.0649
    3DOPE   C39  359   1.777   4.428  15.264 -0.1012  0.1112 -0.3990
    3DOPE   H9X  360   1.837   4.387  15.347 -0.5175  1.5645  0.6576
    3DOPE  C310  361   1.784   4.379  15.137 -0.4761  0.4862 -0.3368
    3DOPE  H10X  362   1.842   4.292  15.105  0.5591  1.3034 -0.7402
    3DOPE  C311  363   1.723   4.439  15.011  0.1683  0.6333  0.2053
    3DOPE  H11X  364   1.699   4.364  14.933  0.7135 -0.0491  0.6837
    3DOPE  H11Y  365   1.623   4.483  15.032  0.2055  0.9660 -0.2835
    3DOPE  C312  366   1.811   4.555  14.949 -0.5792 -0.6247 -0.0709
    3DOPE  H12X  367   1.918   4.527  14.937 -0.0098  0.9363  0.9905
    3DOPE  H12Y  368   1.809   4.641  15.018 -2.8767 -0.4247 -0.3339
    3DOPE  C313  369   1.762   4.594  14.814  0.4712 -0.6236 -0.2161
    3DOPE  H13X  370   1.730   4.503  14.758 -0.0668  0.1394 -1.1839
    3DOPE  H13Y  371   1.666   4.649  14.828 -0.1082 -0.8036 -2.9467
    3DOPE  C314  372   1.850   4.689  14.734 -0.2013  0.2624 -0.0948
    3DOPE  H14X  373   1.943   4.640  14.699  0.9337  2.3727 -0.1332
    3DOPE  H14Y  374   1.878   4.773  14.801 -1.1918  1.2115 -0.8367
    3DOPE  C315  375   1.781   4.737  14.609  0.4664  0.6156 -0.1481
    3DOPE  H15X  376   1.679   4.775  14.632  0.3712  0.2182  0.0984
    3DOPE  H15Y  377   1.770   4.649  14.543 -1.9265 -0.0242  0.9926
    3DOPE  C316  378   1.874   4.836  14.530  0.0268  0.5941 -0.0657
    3DOPE  H16X  379   1.966   4.775  14.517  0.9562  1.9448 -0.0638
    3DOPE  H16Y  380   1.893   4.926  14.593  1.1551  2.3722 -2.7381
    3DOPE  C317  381   1.805   4.880  14.405  0.3872 -0.5549 -0.3906
    3DOPE  H17X  382   1.748   4.801  14.352 -1.6970  1.3334 -1.1098
    3DOPE  H17Y  383   1.723   4.953  14.420  0.5253 -0.6855  1.1722
    3DOPE  C318  384   1.895   4.928  14.286 -0.0469 -0.1288 -0.0887
    3DOPE  H18X  385   1.851   4.931  14.184 -0.6036 -1.8264  0.0765
    3DOPE  H18Y  386   1.927   5.031  14.313 -0.4754 -0.3002  1.1522
    3DOPE  H18Z  387   1.987   4.867  14.275 -0.2178 -0.7901  1.7383
    4DOPE     N  388   4.772   2.355  16.602 -0.0271 -0.2177  0.3932
    4DOPE   HN1  389   4.739   2.397  16.513  3.4476 -1.2776 -1.5744
    4DOPE   HN2  390   4.862   2.390  16.639  1.0463 -0.2131 -2.0256
    4DOPE   HN3  391   4.780   2.252  16.595 -0.8274 -0.6095  3.5636
    4DOPE   C12  392   4.661   2.373  16.704 -0.3866 -0.2300  0.1093
    4DOPE  H12A  393   4.644   2.481  16.720  0.1099 -0.2120  0.5194
    4DOPE  H12B  394   4.706   2.328  16.795  2.0826  1.5283 -0.1502
    4DOPE   C11  395   4.540   2.291  16.674  0.7136  0.0663 -0.7443
    4DOPE  H11A  396   4.461   2.314  16.749  2.3399 -0.6626  1.2633
    4DOPE  H11B  397   4.560   2.184  16.696  0.2880  0.4374  1.6462
    4DOPE     P  398   4.363   2.219  16.502  0.3978  0.0877  0.0193
    4DOPE   O13  399   4.246   2.294  16.557 -0.5460  0.8240 -0.0131
    4DOPE   O14  400   4.371   2.079  16.545 -0.2867 -0.0928 -0.4156
    4DOPE   O11  401   4.361   2.232  16.352 -0.8245 -0.3879  0.0753
    4DOPE   O12  402   4.494   2.302  16.537  0.4213  0.1205  0.4768
    4DOPE    C1  403   4.343   2.352  16.280  0.3980  0.5889 -0.1796
    4DOPE    HA  404   4.390   2.442  16.324  0.5585  0.2043  0.4576
    4DOPE    HB  405   4.237   2.381  16.270  1.2800  3.9158 -1.1827
    4DOPE    C2  406   4.387   2.325  16.136 -0.5160  0.2334  0.6578
    4DOPE    HS  407   4.494   2.296  16.130 -1.1032 -1.7325 -2.0968
    4DOPE   O21  408   4.360   2.441  16.053  0.3582 -0.3929  0.0288
    4DOPE   C21  409   4.455   2.534  16.059  0.4410 -0.1214 -0.4210
    4DOPE   O22  410   4.563   2.517  16.110 -0.0889 -0.0223 -0.1604
    4DOPE   C22  411   4.409   2.662  15.995 -0.4727  0.4367  0.6110
    4DOPE   H2R  412   4.383   2.730  16.079 -1.0292 -0.9025  1.5625
    4DOPE   H2S  413   4.321   2.638  15.931  1.3327 -2.3161 -1.0187
    4DOPE    C3  414   4.316   2.196  16.075  0.1395  0.3543 -0.4909
    4DOPE    HX  415   4.212   2.205  16.112 -1.0816 -0.5304 -3.4613
    4DOPE    HY  416   4.338   2.098  16.125  0.9041  1.2306  0.9671
    4DOPE   O31  417   4.311   2.187  15.939  0.3459  0.4222 -0.4127
    4DOPE   C31  418   4.426   2.173  15.876  0.1619  0.0114 -0.6647
    4DOPE   O32  419   4.532   2.142  15.929 -0.2762 -0.4664  0.4071
    4DOPE   C32  420   4.399   2.202  15.728  0.1988 -0.1708  0.4176
    4DOPE   H2X  421   4.314   2.274  15.726  0.2371 -0.1370 -0.2126
    4DOPE   H2Y  422   4.486   2.252  15.681 -1.0028  2.1069  0.4782
    4DOPE   C23  423   4.512   2.726  15.901 -0.0831  0.2029 -0.1487
    4DOPE   H3R  424   4.590   2.768  15.967 -1.5118  0.6444  1.3075
    4DOPE   H3S  425   4.465   2.818  15.860  1.2573 -0.1146 -2.5935
    4DOPE   C24  426   4.577   2.637  15.796  0.2041 -0.2554  0.2497
    4DOPE   H4R  427   4.598   2.540  15.846  0.1303  0.5721  1.9612
    4DOPE   H4S  428   4.661   2.694  15.752 -2.3194  1.2613 -3.0538
    4DOPE   C25  429   4.469   2.601  15.694 -0.3173 -0.0025  0.1350
    4DOPE   H5R  430   4.404   2.689  15.674 -0.0128  0.7437  2.1788
    4DOPE   H5S  431   4.403   2.516  15.723 -2.8505  1.0086 -2.2359
    4DOPE   C26  432   4.531   2.557  15.561 -0.6289  0.7299 -0.2436
    4DOPE   H6R  433   4.613   2.482  15.566 -1.4916 -0.4913 -2.8833
    4DOPE   H6S  434   4.580   2.645  15.514  1.4794  0.3228  1.0469
    4DOPE   C27  435   4.425   2.496  15.470  0.0239  0.1180  0.0781
    4DOPE   H7R  436   4.346   2.573  15.456 -0.5827 -0.1974  1.5220
    4DOPE   H7S  437   4.387   2.403  15.519  0.2865  0.2348  0.5144
    4DOPE   C28  438   4.504   2.480  15.333  0.0873 -0.3427  0.0552
    4DOPE   H8R  439   4.601   2.439  15.370 -1.0277 -1.1120  2.3212
    4DOPE   H8S  440   4.519   2.587  15.305  3.9108 -0.4050  1.2265
    4DOPE   C29  441   4.423   2.398  15.235 -0.3673 -0.0733 -0.9432
    4DOPE   H9R  442   4.381   2.306  15.278 -1.3109  0.2995 -1.0597
    4DOPE  C210  443   4.380   2.436  15.116 -0.3820  0.1611  0.3156
    4DOPE  H10R  444   4.308   2.371  15.064 -0.4597 -0.0052  0.6329
    4DOPE  C211  445   4.402   2.573  15.048  0.1833  0.2448  0.0857
    4DOPE  H11R  446   4.493   2.627  15.083 -0.0971  0.7726  0.0207
    4DOPE  H11S  447   4.306   2.628  15.061 -2.3796 -3.7075 -0.6114
    4DOPE  C212  448   4.405   2.544  14.897  0.5414 -0.5983 -0.1538
    4DOPE  H12R  449   4.404   2.642  14.845 -0.2787 -1.0625 -1.0471
    4DOPE  H12S  450   4.313   2.488  14.869  0.2077  0.5764 -1.4929
    4DOPE  C213  451   4.525   2.470  14.852 -0.4510  0.0606 -0.1447
    4DOPE  H13R  452   4.526   2.360  14.872  2.3214 -0.1250 -0.9527
    4DOPE  H13S  453   4.615   2.517  14.897 -1.4084  0.7892  1.0882
    4DOPE  C214  454   4.539   2.480  14.701 -0.2011  0.0407  0.1087
    4DOPE  H14R  455   4.443   2.481  14.645  0.2143 -1.1776 -0.6663
    4DOPE  H14S  456   4.605   2.398  14.665 -1.3723 -0.3249 -1.3039
    4DOPE  C215  457   4.612   2.600  14.663 -0.2660 -1.3706 -0.0121
    4DOPE  H15R  458   4.713   2.604  14.708 -1.2949 -2.4687  2.6070
    4DOPE  H15S  459   4.568   2.690  14.712  2.0860  0.0852 -0.4419
    4DOPE  C216  460   4.620   2.617  14.513 -0.8347 -0.3984 -0.0457
    4DOPE  H16R  461   4.682   2.536  14.469  0.3906  0.5974 -0.1954
    4DOPE  H16S  462   4.671   2.715  14.502 -1.6354  0.1185  0.6791
    4DOPE  C217  463   4.492   2.620  14.436  0.4726  0.1666 -0.4693
    4DOPE  H17R  464   4.402   2.667  14.482 -0.8182 -2.3635 -0.2469
    4DOPE  H17S  465   4.459   2.515  14.423 -0.8283  0.6209 -1.0574
    4DOPE  C218  466   4.510   2.685  14.297  0.0280  0.3623  0.0124
    4DOPE  H18R  467   4.587   2.622  14.248  1.4692 -0.4744  3.0669
    4DOPE  H18S  468   4.538   2.792  14.299 -0.7070  0.6864 -2.7783
    4DOPE  H18T  469   4.418   2.677  14.235 -0.4964 -0.6723  0.8657
    4DOPE   C33  470   4.368   2.070  15.657 -0.5860 -0.1890  0.4670
    4DOPE   H3X  471   4.290   2.014  15.713  1.0210 -2.1224  0.9017
    4DOPE   H3Y  472   4.457   2.003  15.660 -1.5110 -1.4056  1.3543
    4DOPE   C34  473   4.347   2.091  15.505  0.7664 -0.2802  0.7591
    4DOPE   H4X  474   4.264   2.163  15.491 -0.0067 -1.3730 -0.4550
    4DOPE   H4Y  475   4.436   2.125  15.449  0.0246 -1.2648 -1.0893
    4DOPE   C35  476   4.318   1.964  15.420 -0.1413  0.0544  0.3703
    4DOPE   H5X  477   4.220   1.928  15.458  0.2180 -0.8162  0.4746
    4DOPE   H5Y  478   4.402   1.895  15.443 -0.9833 -1.4506 -0.9486
    4DOPE   C36  479   4.315   1.985  15.269  0.0418 -0.6243 -0.1256
    4DOPE   H6X  480   4.299   1.888  15.218  1.2867  0.2322 -2.2592
    4DOPE   H6Y  481   4.408   2.036  15.236  0.3879 -0.3657  1.2028
    4DOPE   C37  482   4.198   2.066  15.214  0.7965 -0.1378  0.1074
    4DOPE   H7X  483   4.106   2.025  15.260  0.0953  0.3409 -0.8477
    4DOPE   H7Y  484   4.206   2.169  15.256  0.9489  0.1428 -0.6003
    4DOPE   C38  485   4.178   2.056  15.059  0.0770 -0.6885 -0.4868
    4DOPE   H8X  486   4.219   1.957  15.030  1.2052 -0.3927  0.0673
    4DOPE   H8Y  487   4.244   2.131  15.012  0.7248 -0.9021  0.0623
    4DOPE   C39  488   4.035   2.064  15.000  0.7259 -0.2534 -0.3840
    4DOPE   H9X  489   3.961   1.995  15.043  0.6260  1.5572  2.6639
    4DOPE  C310  490   4.001   2.161  14.910 -0.7671  0.8023  0.0589
    4DOPE  H10X  491   3.900   2.156  14.867 -0.0379  0.5004 -1.6732
    4DOPE  C311  492   4.090   2.262  14.850  0.7015 -0.7905 -0.1806
    4DOPE  H11X  493   4.086   2.357  14.907 -0.2045 -2.6560  3.1215
    4DOPE  H11Y  494   4.198   2.234  14.847  0.5184 -1.5255 -0.2363
    4DOPE  C312  495   4.050   2.278  14.706 -0.0106  0.4985  0.3496
    4DOPE  H12X  496   3.941   2.268  14.687  0.0516  0.0369  0.2158
    4DOPE  H12Y  497   4.093   2.190  14.653  1.5511 -0.0154  2.3471
    4DOPE  C313  498   4.101   2.403  14.636 -0.3068  0.0536  0.5445
    4DOPE  H13X  499   4.029   2.482  14.667 -1.0493 -0.8360  1.1496
    4DOPE  H13Y  500   4.198   2.423  14.687 -0.0173 -2.8745  1.3450
    4DOPE  C314  501   4.109   2.369  14.486  0.1352  0.8218  0.5531
    4DOPE  H14X  502   4.171   2.279  14.468  0.0703  0.9286 -0.2541
    4DOPE  H14Y  503   4.154   2.460  14.441  1.3294  0.2927  0.6330
    4DOPE  C315  504   3.961   2.344  14.423 -0.0488 -0.2624  1.2096
    4DOPE  H15X  505   3.900   2.435  14.443  0.3647  0.0569  1.0259
    4DOPE  H15Y  506   3.904   2.264  14.475  1.1431 -0.9853  1.4562
    4DOPE  C316  507   3.970   2.330  14.265  0.1587  0.6632 -0.3569
    4DOPE  H16X  508   4.045   2.251  14.245 -1.3884 -1.8768  2.9222
    4DOPE  H16Y  509   4.013   2.422  14.220 -0.6981  1.6144  0.7329
    4DOPE  C317  510   3.830   2.297  14.205  0.2789 -0.0727  0.3207
    4DOPE  H17X  511   3.795   2.198  14.239 -1.6730  0.6986  0.6861
    4DOPE  H17Y  512   3.758   2.372  14.245  0.4466  0.1962  0.1275
    4DOPE  C318  513   3.834   2.298  14.046 -0.7310 -0.1320 -0.0547
    4DOPE  H18X  514   3.916   2.233  14.009  1.3759  1.5916  1.2638
    4DOPE  H18Y  515   3.738   2.261  14.005 -0.9851 -2.7946  2.6237
    4DOPE  H18Z  516   3.856   2.403  14.017  3.0209 -0.4364  1.1605
    5DOPE     N  517   1.389   3.575  16.609 -0.0407  0.0970 -0.2849
    5DOPE   HN1  518   1.314   3.581  16.681  1.3985  0.8953  1.2023
    5DOPE   HN2  519   1.364   3.645  16.536  1.1659  0.3106 -0.5122
    5DOPE   HN3  520   1.388   3.480  16.567 -1.8543 -0.3064  0.5449
    5DOPE   C12  521   1.516   3.633  16.675  0.2472  1.0057 -0.0158
    5DOPE  H12A  522   1.600   3.635  16.602 -0.6436 -2.4500 -1.3174
    5DOPE  H12B  523   1.551   3.551  16.741 -2.3740 -0.9604 -0.8898
    5DOPE   C11  524   1.487   3.775  16.720  0.0839  0.1159 -0.3019
    5DOPE  H11A  525   1.570   3.814  16.782 -0.8165 -2.0187  2.4243
    5DOPE  H11B  526   1.409   3.773  16.799  0.5378  1.2850  0.1979
    5DOPE     P  527   1.520   3.979  16.552 -0.4397  0.1396  0.1046
    5DOPE   O13  528   1.511   4.096  16.635  0.4105  0.1763  0.3104
    5DOPE   O14  529   1.458   3.992  16.415 -0.2186  0.1739  0.4593
    5DOPE   O11  530   1.669   3.927  16.537  0.2109  0.0085  0.0836
    5DOPE   O12  531   1.452   3.858  16.614  0.0841  0.1305  0.2618
    5DOPE    C1  532   1.779   4.026  16.530  1.4346 -0.0853  0.1731
    5DOPE    HA  533   1.874   3.969  16.528  0.7327 -1.3675 -2.9558
    5DOPE    HB  534   1.777   4.093  16.619 -0.4651  1.4769 -0.9493
    5DOPE    C2  535   1.783   4.106  16.398  0.1115  0.2505  0.3137
    5DOPE    HS  536   1.688   4.162  16.386 -0.1443 -0.4973 -1.5606
    5DOPE   O21  537   1.802   4.016  16.284  0.1727  0.7547  0.0293
    5DOPE   C21  538   1.739   4.055  16.171 -0.5770  0.2350 -0.9345
    5DOPE   O22  539   1.679   4.160  16.161  0.5781  0.1735  0.2062
    5DOPE   C22  540   1.779   3.961  16.061 -0.6567 -0.0394  0.4699
    5DOPE   H2R  541   1.804   3.861  16.102 -1.3631 -1.3173 -1.9775
    5DOPE   H2S  542   1.857   4.010  15.998 -2.5127  1.3688 -0.8615
    5DOPE    C3  543   1.904   4.208  16.399  0.7343 -0.5040 -0.3838
    5DOPE    HX  544   1.993   4.144  16.420  1.3488  0.5993  0.4561
    5DOPE    HY  545   1.891   4.272  16.488 -3.7144 -1.4402 -0.1217
    5DOPE   O31  546   1.915   4.284  16.281 -0.2500  0.3783 -0.1042
    5DOPE   C31  547   2.031   4.269  16.219  0.6021 -0.4622  0.2538
    5DOPE   O32  548   2.125   4.197  16.252 -0.3269 -0.1184 -0.2731
    5DOPE   C32  549   2.037   4.367  16.103  0.5344 -0.1960  0.0792
    5DOPE   H2X  550   1.942   4.424  16.107  1.6309  1.6924  2.9792
    5DOPE   H2Y  551   2.117   4.438  16.134  1.1893 -0.6075 -0.6136
    5DOPE   C23  552   1.655   3.931  15.964 -0.5338 -0.0002  0.0518
    5DOPE   H3R  553   1.597   4.023  15.941 -0.0588  0.0149 -1.1440
    5DOPE   H3S  554   1.594   3.850  16.009  0.0674 -1.0923 -1.0519
    5DOPE   C24  555   1.700   3.872  15.824  0.1960  0.5079 -0.3565
    5DOPE   H4R  556   1.606   3.834  15.777  0.4639 -0.5826 -0.0300
    5DOPE   H4S  557   1.763   3.783  15.845  0.2502  0.0692 -2.2043
    5DOPE   C25  558   1.775   3.961  15.730  0.5917  0.0622 -0.0407
    5DOPE   H5R  559   1.879   3.984  15.761  0.7654  1.3038 -1.4686
    5DOPE   H5S  560   1.725   4.059  15.718  0.6595  0.2401  1.0552
    5DOPE   C26  561   1.801   3.894  15.589  0.8702  0.3271 -0.1756
    5DOPE   H6R  562   1.783   3.787  15.611 -0.2101  0.7697  1.2176
    5DOPE   H6S  563   1.909   3.918  15.579  1.4447 -1.5362  1.0411
    5DOPE   C27  564   1.717   3.954  15.473 -0.2204 -0.1734 -0.1678
    5DOPE   H7R  565   1.753   4.059  15.467 -1.0527  0.2755  1.7432
    5DOPE   H7S  566   1.613   3.968  15.509  0.4820 -1.0282  2.4873
    5DOPE   C28  567   1.729   3.887  15.334 -0.3411  0.4169  0.3411
    5DOPE   H8R  568   1.657   3.938  15.266 -1.3987  0.2660  1.3174
    5DOPE   H8S  569   1.699   3.781  15.347  0.0629  0.3069  0.3944
    5DOPE   C29  570   1.870   3.886  15.280  0.2776  0.4504 -0.1778
    5DOPE   H9R  571   1.945   3.832  15.341 -0.0402 -0.3901 -0.5104
    5DOPE  C210  572   1.908   3.942  15.167  0.3942 -0.2022  0.1822
    5DOPE  H10R  573   2.015   3.930  15.146  0.2332  0.5750 -1.1469
    5DOPE  C211  574   1.828   4.023  15.061 -0.4443  0.0014  0.0251
    5DOPE  H11R  575   1.905   4.073  14.998 -1.1021 -1.0830 -1.7063
    5DOPE  H11S  576   1.755   4.096  15.103  0.4478 -0.4003  2.4444
    5DOPE  C212  577   1.752   3.927  14.969 -0.1050  0.8513 -0.3552
    5DOPE  H12R  578   1.671   3.875  15.025 -1.8794  0.7790 -2.8009
    5DOPE  H12S  579   1.813   3.852  14.915  0.5156 -0.1332  1.6289
    5DOPE  C213  580   1.688   4.009  14.857  0.4092 -0.5315 -0.3379
    5DOPE  H13R  581   1.765   4.074  14.810  0.0649 -1.1014 -1.7418
    5DOPE  H13S  582   1.608   4.071  14.902 -0.8318 -2.2696 -0.0410
    5DOPE  C214  583   1.610   3.915  14.750  0.0592 -0.5319  0.3225
    5DOPE  H14R  584   1.567   3.992  14.683  0.6917  0.0763  0.5999
    5DOPE  H14S  585   1.528   3.871  14.811  0.6663  0.8304  2.2359
    5DOPE  C215  586   1.706   3.824  14.675  0.0767 -0.5636 -0.1693
    5DOPE  H15R  587   1.715   3.729  14.731 -0.7585 -0.3768  0.2934
    5DOPE  H15S  588   1.809   3.866  14.679  0.4415 -1.4368 -0.2159
    5DOPE  C216  589   1.664   3.782  14.530 -0.4084 -0.1611  0.9596
    5DOPE  H16R  590   1.600   3.864  14.490  0.8695 -1.0406 -3.4362
    5DOPE  H16S  591   1.610   3.686  14.539  0.3254 -1.0111 -2.4159
    5DOPE  C217  592   1.786   3.749  14.432  0.5677 -0.9529  0.1206
    5DOPE  H17R  593   1.845   3.665  14.474  1.9228  0.7015  1.7365
    5DOPE  H17S  594   1.855   3.836  14.423 -1.1738  0.3952 -0.9650
    5DOPE  C218  595   1.730   3.727  14.287 -0.2015  0.6283 -0.4695
    5DOPE  H18R  596   1.660   3.813  14.276  0.8812  1.8615  1.6124
    5DOPE  H18S  597   1.676   3.630  14.296  1.5222 -0.2235  1.4467
    5DOPE  H18T  598   1.819   3.722  14.220 -0.9432 -2.0218 -1.3990
    5DOPE   C33  599   2.058   4.322  15.958 -0.3922 -0.3505  0.6777
    5DOPE   H3X  600   1.972   4.259  15.926 -0.8436  0.6588 -0.1760
    5DOPE   H3Y  601   2.147   4.257  15.943  0.8594  1.3913  0.2468
    5DOPE   C34  602   2.068   4.444  15.861  0.3257  0.1709  0.0305
    5DOPE   H4X  603   1.988   4.519  15.881  1.2223  1.4874 -1.0796
    5DOPE   H4Y  604   2.168   4.490  15.868  0.0082  1.1029 -1.1289
    5DOPE   C35  605   2.058   4.409  15.712 -0.3066  0.1830  0.7482
    5DOPE   H5X  606   1.949   4.404  15.692 -0.1528 -0.0684 -0.0491
    5DOPE   H5Y  607   2.105   4.312  15.687  1.1605  0.5581  1.9049
    5DOPE   C36  608   2.130   4.515  15.634 -0.2024 -0.4977 -0.0930
    5DOPE   H6X  609   2.237   4.515  15.663  0.1282 -0.8290 -1.2753
    5DOPE   H6Y  610   2.082   4.615  15.643 -0.0676 -0.2891 -1.4284
    5DOPE   C37  611   2.128   4.481  15.485  0.4129 -0.2823 -0.2207
    5DOPE   H7X  612   2.206   4.405  15.463  2.1866  2.0682 -2.8176
    5DOPE   H7Y  613   2.026   4.455  15.451  0.6357 -0.1019 -1.0477
    5DOPE   C38  614   2.173   4.594  15.392  0.4174 -0.0151  0.0910
    5DOPE   H8X  615   2.198   4.534  15.302 -1.0738  0.2364 -0.5149
    5DOPE   H8Y  616   2.272   4.631  15.426  0.2209  0.1459  0.5061
    5DOPE   C39  617   2.073   4.703  15.366 -0.6465  0.4418  0.5785
    5DOPE   H9X  618   2.025   4.740  15.457 -0.7295  1.0258  0.3044
    5DOPE  C310  619   2.046   4.745  15.241  0.1022 -0.6334 -0.3580
    5DOPE  H10X  620   1.977   4.829  15.232 -0.6419 -0.8351  2.6208
    5DOPE  C311  621   2.130   4.708  15.123  0.2034 -0.6373 -0.4619
    5DOPE  H11X  622   2.238   4.701  15.147  0.1629 -3.6353 -0.8416
    5DOPE  H11Y  623   2.100   4.606  15.092  0.6107 -0.7082 -0.6269
    5DOPE  C312  624   2.114   4.814  15.008  0.2706  0.0956  0.0065
    5DOPE  H12X  625   2.149   4.913  15.041  1.8416 -0.2930 -0.4129
    5DOPE  H12Y  626   2.005   4.822  14.986  0.4538  0.8665 -0.6482
    5DOPE  C313  627   2.188   4.780  14.880  0.5677  0.2340 -0.2489
    5DOPE  H13X  628   2.293   4.759  14.908  0.3864  3.0061  3.1874
    5DOPE  H13Y  629   2.146   4.682  14.850 -0.1546  0.5106 -0.1630
    5DOPE  C314  630   2.185   4.874  14.766  0.4971 -0.7219  0.0305
    5DOPE  H14X  631   2.222   4.973  14.801  0.5414 -0.7985  0.1992
    5DOPE  H14Y  632   2.084   4.884  14.719  0.7022 -0.7517 -0.4266
    5DOPE  C315  633   2.282   4.831  14.653 -0.2221 -0.2040 -0.8225
    5DOPE  H15X  634   2.238   4.757  14.582 -0.8589  0.6811 -1.3766
    5DOPE  H15Y  635   2.366   4.781  14.706  0.0187 -1.6716 -2.5097
    5DOPE  C316  636   2.333   4.956  14.576 -0.7835  0.0918  0.1309
    5DOPE  H16X  637   2.414   4.926  14.506 -1.2571  0.2790 -0.5043
    5DOPE  H16Y  638   2.385   5.017  14.653 -0.0078 -1.9123  1.2765
    5DOPE  C317  639   2.221   5.034  14.505  0.0210 -0.3436  0.1306
    5DOPE  H17X  640   2.168   4.968  14.434 -0.2256 -0.2101  0.1907
    5DOPE  H17Y  641   2.144   5.065  14.579 -1.1071 -1.5936 -0.4885
    5DOPE  C318  642   2.268   5.160  14.417 -0.8373  0.3320  0.3541
    5DOPE  H18X  643   2.332   5.226  14.479 -0.1993  0.0372  0.0325
    5DOPE  H18Y  644   2.324   5.113  14.333 -0.5010 -0.2573  0.8980
    5DOPE  H18Z  645   2.181   5.222  14.388  0.1336  2.0151  0.8678
    6DOPE     N  646   0.977   4.016  16.544  0.2964 -0.3127 -0.0443
    6DOPE   HN1  647   0.921   4.103  16.550  1.0119  0.2790 -1.3495
    6DOPE   HN2  648   1.033   4.011  16.456  3.4237  0.7512  1.7380
    6DOPE   HN3  649   0.909   3.937  16.550 -0.2015  0.2189  1.7282
    6DOPE   C12  650   1.090   4.001  16.642 -0.6750  0.1214 -0.2988
    6DOPE  H12A  651   1.166   3.931  16.600 -0.0895 -0.0761  1.0244
    6DOPE  H12B  652   1.050   3.964  16.739  3.0299  0.1802  1.4130
    6DOPE   C11  653   1.165   4.136  16.664  0.1183  0.4641  0.2346
    6DOPE  H11A  654   1.209   4.164  16.566  2.5790  1.7110  1.5979
    6DOPE  H11B  655   1.257   4.114  16.722  0.3892  0.0407 -0.3465
    6DOPE     P  656   1.145   4.356  16.810 -0.7703 -0.5900 -0.0950
    6DOPE   O13  657   1.280   4.307  16.863 -0.1071 -0.1139 -0.1101
    6DOPE   O14  658   1.048   4.390  16.916  0.4750 -0.0675  0.0279
    6DOPE   O11  659   1.162   4.475  16.711 -0.6140  0.9624 -0.2671
    6DOPE   O12  660   1.082   4.234  16.728  0.2128  0.5407 -0.2630
    6DOPE    C1  661   1.295   4.521  16.672 -0.4075  1.1969  0.0848
    6DOPE    HA  662   1.368   4.436  16.672 -0.8154  0.8408 -0.2545
    6DOPE    HB  663   1.332   4.590  16.751  0.3554  0.8424  0.0458
    6DOPE    C2  664   1.322   4.588  16.537  0.4425 -0.6495 -0.1611
    6DOPE    HS  665   1.430   4.579  16.514  0.5883  1.1275 -0.2896
    6DOPE   O21  666   1.273   4.725  16.526  0.3324  0.4746 -0.2500
    6DOPE   C21  667   1.359   4.811  16.578  0.2205  0.5141  0.5902
    6DOPE   O22  668   1.475   4.785  16.598  0.2487  0.0840  0.0486
    6DOPE   C22  669   1.290   4.951  16.590  0.8745  0.5478  0.0237
    6DOPE   H2R  670   1.281   4.970  16.699 -4.5608 -1.1488  0.2020
    6DOPE   H2S  671   1.186   4.945  16.550  0.5246  3.1136  0.4223
    6DOPE    C3  672   1.247   4.507  16.426 -0.0781 -0.0922 -0.2184
    6DOPE    HX  673   1.139   4.508  16.455 -0.5025 -0.7805 -1.6804
    6DOPE    HY  674   1.292   4.406  16.429 -1.7382 -0.8723 -0.2642
    6DOPE   O31  675   1.256   4.580  16.300  0.3122 -0.3397 -0.2374
    6DOPE   C31  676   1.208   4.529  16.189 -0.2361  0.7910  0.5379
    6DOPE   O32  677   1.144   4.428  16.179  0.7002  0.5320  0.2098
    6DOPE   C32  678   1.236   4.628  16.077  1.1551 -0.5932  0.0040
    6DOPE   H2X  679   1.194   4.724  16.111  1.0338 -1.2499  1.8073
    6DOPE   H2Y  680   1.344   4.651  16.063  0.2919  2.3227 -3.1835
    6DOPE   C23  681   1.376   5.063  16.531  0.2021  0.1403 -0.2745
    6DOPE   H3R  682   1.482   5.038  16.549  0.5220  1.0917 -0.7653
    6DOPE   H3S  683   1.336   5.158  16.574 -0.9834 -0.4117 -0.1161
    6DOPE   C24  684   1.357   5.089  16.378 -1.0475 -0.3140  0.7731
    6DOPE   H4R  685   1.397   5.186  16.342 -2.0875 -0.7576 -1.7470
    6DOPE   H4S  686   1.247   5.089  16.364 -1.0341 -0.4422  0.6656
    6DOPE   C25  687   1.427   4.979  16.294  0.3699 -0.5763  0.0135
    6DOPE   H5R  688   1.385   4.881  16.326  0.6096 -0.1552  1.7285
    6DOPE   H5S  689   1.534   4.983  16.322 -0.2767 -0.6600  2.7560
    6DOPE   C26  690   1.417   5.012  16.148 -0.2745  0.2632  0.3303
    6DOPE   H6R  691   1.446   4.922  16.090  0.3414  1.2092 -0.8686
    6DOPE   H6S  692   1.498   5.083  16.120 -0.5021  0.4505  0.1509
    6DOPE   C27  693   1.286   5.064  16.086 -0.3405  0.1662 -0.2761
    6DOPE   H7R  694   1.275   5.160  16.141  1.8924  0.4208 -0.1823
    6DOPE   H7S  695   1.205   4.993  16.112 -1.0322  1.2836  0.7748
    6DOPE   C28  696   1.299   5.084  15.932  0.5722  0.0350  0.3827
    6DOPE   H8R  697   1.387   5.147  15.908  1.7796 -1.8030 -0.2728
    6DOPE   H8S  698   1.205   5.135  15.899 -0.2271 -0.8580  1.2174
    6DOPE   C29  699   1.304   4.952  15.857 -0.3676  0.1525  1.0588
    6DOPE   H9R  700   1.209   4.899  15.869 -0.6713  0.0151 -1.3966
    6DOPE  C210  701   1.400   4.909  15.774 -0.0531 -0.4437 -0.7070
    6DOPE  H10R  702   1.389   4.810  15.726  3.5390 -0.5936 -1.5790
    6DOPE  C211  703   1.521   4.990  15.738 -0.7754  0.1208 -0.0044
    6DOPE  H11R  704   1.609   4.946  15.791 -0.1130  0.9717 -0.3773
    6DOPE  H11S  705   1.513   5.095  15.775  2.9431  1.0511 -1.3997
    6DOPE  C212  706   1.532   4.997  15.585 -0.3275 -0.7421 -0.0468
    6DOPE  H12R  707   1.431   5.005  15.539  0.9951 -0.9509 -3.2756
    6DOPE  H12S  708   1.583   4.909  15.542 -0.1731  0.1017 -1.6601
    6DOPE  C213  709   1.603   5.120  15.531 -0.4598 -0.5930  0.7530
    6DOPE  H13R  710   1.684   5.149  15.600 -1.3567 -0.0259  1.5855
    6DOPE  H13S  711   1.535   5.207  15.529  2.1468  1.5639 -0.5916
    6DOPE  C214  712   1.661   5.097  15.392  0.0926 -0.0897  0.1872
    6DOPE  H14R  713   1.730   5.011  15.379 -1.0247 -1.1238  0.8997
    6DOPE  H14S  714   1.721   5.188  15.371  1.6476 -0.8739  1.0372
    6DOPE  C215  715   1.545   5.094  15.284  0.2049  0.0244 -0.1285
    6DOPE  H15R  716   1.491   5.190  15.294 -1.5143 -0.7064 -1.8337
    6DOPE  H15S  717   1.471   5.014  15.304 -0.6764  0.4236 -1.6415
    6DOPE  C216  718   1.590   5.085  15.140 -0.1327 -0.1779  0.7895
    6DOPE  H16R  719   1.664   5.165  15.118  0.4096 -0.8880 -0.0883
    6DOPE  H16S  720   1.511   5.111  15.067  0.4218  4.3432  1.5122
    6DOPE  C217  721   1.664   4.950  15.107 -0.2400 -0.4034 -0.1349
    6DOPE  H17R  722   1.589   4.868  15.114  1.3212 -2.0035 -1.3508
    6DOPE  H17S  723   1.742   4.926  15.181 -0.9048 -0.1275  0.6717
    6DOPE  C218  724   1.721   4.942  14.964  0.1457  0.3706  0.1769
    6DOPE  H18R  725   1.814   5.003  14.953  0.0712  0.1651 -2.2099
    6DOPE  H18S  726   1.655   4.989  14.888 -1.4176 -2.5200 -0.3860
    6DOPE  H18T  727   1.752   4.837  14.945  1.4147  0.6744  0.4431
    6DOPE   C33  728   1.168   4.600  15.933 -0.9906  0.1406 -0.3619
    6DOPE   H3X  729   1.188   4.693  15.876 -0.5548  0.1224 -0.2459
    6DOPE   H3Y  730   1.062   4.593  15.965 -0.1466 -0.2657  2.6949
    6DOPE   C34  731   1.244   4.483  15.860 -0.1267 -0.7098 -0.3598
    6DOPE   H4X  732   1.338   4.532  15.827 -0.8208 -0.0204 -1.3743
    6DOPE   H4Y  733   1.255   4.396  15.928 -2.0158 -0.8672 -0.1885
    6DOPE   C35  734   1.179   4.440  15.728  0.2313 -0.0306 -0.1411
    6DOPE   H5X  735   1.115   4.517  15.680 -0.3051  0.0143  0.6269
    6DOPE   H5Y  736   1.107   4.365  15.767 -0.0731 -0.8031 -2.1222
    6DOPE   C36  737   1.265   4.378  15.618 -0.0511 -0.1477 -0.1469
    6DOPE   H6X  738   1.346   4.446  15.584 -1.8311  1.2940 -1.7332
    6DOPE   H6Y  739   1.211   4.349  15.525  1.9165 -1.3970 -0.9658
    6DOPE   C37  740   1.337   4.247  15.667  0.5490 -0.2612 -0.1081
    6DOPE   H7X  741   1.405   4.280  15.748 -0.4938 -1.4541  1.3112
    6DOPE   H7Y  742   1.265   4.196  15.735  2.7481  0.2877  2.8516
    6DOPE   C38  743   1.381   4.142  15.559 -0.9225 -0.6571  0.0917
    6DOPE   H8X  744   1.284   4.119  15.509 -0.4622 -1.3528 -0.5165
    6DOPE   H8Y  745   1.419   4.042  15.589 -0.6487 -0.6232 -0.1426
    6DOPE   C39  746   1.484   4.204  15.460  0.5351  0.0057  0.1057
    6DOPE   H9X  747   1.586   4.228  15.495  0.8899 -2.6324  1.0546
    6DOPE  C310  748   1.465   4.221  15.329  0.2844 -0.2319 -0.1543
    6DOPE  H10X  749   1.550   4.259  15.269  1.8876 -2.5611  0.4971
    6DOPE  C311  750   1.339   4.192  15.249 -0.2038 -0.8274  0.3171
    6DOPE  H11X  751   1.288   4.105  15.295  0.5462 -0.9074  1.0108
    6DOPE  H11Y  752   1.272   4.281  15.256  0.7032 -0.0380 -0.6234
    6DOPE  C312  753   1.354   4.170  15.095  0.4880  0.4107 -0.4185
    6DOPE  H12X  754   1.413   4.077  15.081  0.7385  0.1262  2.0785
    6DOPE  H12Y  755   1.397   4.262  15.050  1.8757  0.0416  0.0928
    6DOPE  C313  756   1.218   4.140  15.032 -0.3802  0.3363 -0.3622
    6DOPE  H13X  757   1.170   4.063  15.096  1.9165  0.0528  1.1129
    6DOPE  H13Y  758   1.151   4.227  15.049  1.7503  1.9876 -0.0000
    6DOPE  C314  759   1.216   4.097  14.884 -0.4738 -0.1685 -0.4292
    6DOPE  H14X  760   1.268   3.999  14.887 -0.9128 -0.5047 -2.4895
    6DOPE  H14Y  761   1.262   4.168  14.811  0.9742 -0.5979  0.0501
    6DOPE  C315  762   1.078   4.065  14.837 -0.4060 -0.4783  0.5420
    6DOPE  H15X  763   1.012   4.153  14.851 -0.8865 -0.4908 -1.4618
    6DOPE  H15Y  764   1.029   3.985  14.895 -0.8867  0.4727  1.4910
    6DOPE  C316  765   1.065   4.012  14.692 -0.1624 -0.7804 -0.4219
    6DOPE  H16X  766   1.093   4.089  14.617  2.1033 -1.8059 -0.7166
    6DOPE  H16Y  767   0.956   3.991  14.684 -1.1999  2.9640  1.7267
    6DOPE  C317  768   1.139   3.884  14.663 -0.2227 -0.1402  0.1820
    6DOPE  H17X  769   1.243   3.920  14.647 -0.3786  0.9074  1.3698
    6DOPE  H17Y  770   1.132   3.823  14.755 -3.0153  0.3979  0.4167
    6DOPE  C318  771   1.078   3.792  14.551  0.0704 -0.6739  0.3755
    6DOPE  H18X  772   1.134   3.696  14.555 -0.0937 -0.7506  0.9351
    6DOPE  H18Y  773   0.974   3.774  14.584 -0.1566 -0.7652 -0.3715
    6DOPE  H18Z  774   1.096   3.838  14.451 -0.4344 -1.2133  0.0361
    7DOPE     N  775   2.494   6.434  16.855 -0.1447 -0.2598  0.2036
    7DOPE   HN1  776   2.501   6.512  16.924  1.5077 -0.3764  0.2143
    7DOPE   HN2  777   2.574   6.450  16.790 -1.3558 -0.0730 -1.2829
    7DOPE   HN3  778   2.403   6.443  16.806 -1.0543 -0.5917  1.7722
    7DOPE   C12  779   2.487   6.309  16.941  0.7450 -0.1030  0.2048
    7DOPE  H12A  780   2.445   6.229  16.877  0.7503  0.8527 -1.0412
    7DOPE  H12B  781   2.411   6.334  17.019 -2.2153  0.4325 -2.6009
    7DOPE   C11  782   2.616   6.272  17.016 -0.2309 -0.1896 -0.0971
    7DOPE  H11A  783   2.598   6.177  17.071  0.1001 -0.1908  0.0130
    7DOPE  H11B  784   2.628   6.343  17.101 -0.0680  0.4111 -0.6143
    7DOPE     P  785   2.875   6.248  16.963 -0.2647 -0.0624 -0.0139
    7DOPE   O13  786   2.896   6.143  17.060  0.0574  0.3914  0.1358
    7DOPE   O14  787   2.919   6.384  17.001 -0.1403  0.1152  0.2897
    7DOPE   O11  788   2.955   6.192  16.837  0.3705 -0.1653  0.1162
    7DOPE   O12  789   2.733   6.261  16.923  1.2809  0.0701 -0.6099
    7DOPE    C1  790   2.902   6.224  16.707  0.0537 -0.3870  0.3517
    7DOPE    HA  791   2.798   6.188  16.691 -1.1169  2.7210  0.2770
    7DOPE    HB  792   2.958   6.169  16.628 -1.0124 -2.2876  0.8512
    7DOPE    C2  793   2.910   6.379  16.662 -0.2256  0.1957  0.0268
    7DOPE    HS  794   2.858   6.446  16.734 -0.9097  0.4330 -0.6684
    7DOPE   O21  795   2.845   6.404  16.532  0.0763  0.4052  0.2722
    7DOPE   C21  796   2.721   6.434  16.539 -0.4249 -0.5401  0.3101
    7DOPE   O22  797   2.642   6.416  16.630 -0.2270 -0.5900 -0.7104
    7DOPE   C22  798   2.675   6.490  16.397 -0.7703  0.1406 -0.9170
    7DOPE   H2R  799   2.743   6.453  16.317  1.5849 -0.5450  1.2645
    7DOPE   H2S  800   2.691   6.599  16.415  2.1084 -0.3825  0.1939
    7DOPE    C3  801   3.056   6.419  16.667 -0.0456 -0.7753  0.5659
    7DOPE    HX  802   3.091   6.391  16.768 -0.9329  0.2192  1.1666
    7DOPE    HY  803   3.057   6.530  16.664  0.4714 -0.7402  1.7936
    7DOPE   O31  804   3.137   6.351  16.570  0.2440 -0.9467 -0.0551
    7DOPE   C31  805   3.142   6.399  16.445  0.6258  0.2935  0.0606
    7DOPE   O32  806   3.111   6.515  16.414  0.0500 -0.1026  0.5327
    7DOPE   C32  807   3.202   6.298  16.350  0.1765  0.3187 -0.4176
    7DOPE   H2X  808   3.216   6.341  16.248  3.3742  2.0403  0.6111
    7DOPE   H2Y  809   3.302   6.266  16.385  0.4483  1.9605  0.3684
    7DOPE   C23  810   2.527   6.483  16.351 -0.8287 -0.0611  0.2082
    7DOPE   H3R  811   2.463   6.517  16.435 -2.1102 -1.2419 -0.2549
    7DOPE   H3S  812   2.504   6.376  16.333 -1.9876  0.5475 -2.4256
    7DOPE   C24  813   2.504   6.556  16.220 -0.0480  0.5011  0.0838
    7DOPE   H4R  814   2.522   6.664  16.240 -0.1263  0.4749  0.2946
    7DOPE   H4S  815   2.400   6.533  16.188  0.5443 -2.0890 -0.2391
    7DOPE   C25  816   2.595   6.513  16.112 -0.0921 -0.9812 -0.6339
    7DOPE   H5R  817   2.591   6.402  16.111 -0.5585 -1.0637  2.2674
    7DOPE   H5S  818   2.694   6.561  16.127 -0.5538  0.0037 -0.6731
    7DOPE   C26  819   2.552   6.551  15.972 -0.3124 -0.1356  0.1927
    7DOPE   H6R  820   2.527   6.659  15.968 -0.0267  0.0580  2.3958
    7DOPE   H6S  821   2.463   6.489  15.945  0.1292 -0.5309 -0.3780
    7DOPE   C27  822   2.661   6.522  15.868 -0.1203 -0.2541 -0.6717
    7DOPE   H7R  823   2.658   6.416  15.836 -1.9193 -0.5391  0.3451
    7DOPE   H7S  824   2.754   6.528  15.929 -1.5009 -0.4149  1.5541
    7DOPE   C28  825   2.661   6.604  15.741  0.2743 -0.3553 -0.3874
    7DOPE   H8R  826   2.741   6.576  15.671 -0.9967 -1.2048 -1.5477
    7DOPE   H8S  827   2.675   6.710  15.773 -2.4163 -0.4774  1.6143
    7DOPE   C29  828   2.533   6.617  15.666 -0.4591 -0.0819 -0.4420
    7DOPE   H9R  829   2.453   6.676  15.712 -0.3492  1.6313 -2.2775
    7DOPE  C210  830   2.498   6.543  15.558  0.4993  0.7840 -0.4277
    7DOPE  H10R  831   2.399   6.557  15.512 -0.3236 -0.1620  0.9677
    7DOPE  C211  832   2.584   6.447  15.483  0.1222  0.8054 -0.6546
    7DOPE  H11R  833   2.529   6.359  15.443 -0.1693  0.5982  0.1678
    7DOPE  H11S  834   2.666   6.407  15.546 -0.9289 -1.2983 -0.5244
    7DOPE  C212  835   2.651   6.521  15.363  0.1737 -0.0002  0.3557
    7DOPE  H12R  836   2.718   6.454  15.305  0.6838  2.1504 -1.6786
    7DOPE  H12S  837   2.724   6.602  15.385  0.4079 -0.4125  1.1048
    7DOPE  C213  838   2.549   6.582  15.266 -0.2278 -0.3503 -0.0061
    7DOPE  H13R  839   2.513   6.682  15.297  0.8170 -0.1617  0.6508
    7DOPE  H13S  840   2.457   6.520  15.256  0.0432 -0.7681  0.0874
    7DOPE  C214  841   2.612   6.590  15.127 -0.3312 -0.9525 -0.2348
    7DOPE  H14R  842   2.657   6.489  15.109  3.0484 -0.0418  2.2043
    7DOPE  H14S  843   2.692   6.666  15.131 -1.4551  0.3932 -1.7586
    7DOPE  C215  844   2.520   6.622  15.010 -0.1321 -0.0273  0.2523
    7DOPE  H15R  845   2.469   6.721  15.018 -2.5686 -1.2088  0.3860
    7DOPE  H15S  846   2.453   6.534  15.006 -1.1478  0.7722 -1.9374
    7DOPE  C216  847   2.586   6.637  14.874 -0.3087  1.1220 -0.2971
    7DOPE  H16R  848   2.637   6.538  14.868  1.3719  1.9584 -0.6133
    7DOPE  H16S  849   2.671   6.706  14.893 -1.2668  1.8490  1.5846
    7DOPE  C217  850   2.492   6.695  14.762  0.6713  0.0275 -0.1302
    7DOPE  H17R  851   2.421   6.768  14.808  1.8656  1.1767 -0.0424
    7DOPE  H17S  852   2.440   6.608  14.716 -1.3998  0.6450  0.9113
    7DOPE  C218  853   2.579   6.758  14.657  0.3738 -0.0901 -0.2264
    7DOPE  H18R  854   2.650   6.833  14.699 -2.9390  2.2382  1.7126
    7DOPE  H18S  855   2.521   6.814  14.580 -1.9116 -1.6207  0.2818
    7DOPE  H18T  856   2.636   6.676  14.608  0.6833  1.0350 -1.8285
    7DOPE   C33  857   3.116   6.172  16.342  0.0578 -0.3988 -0.3711
    7DOPE   H3X  858   3.099   6.126  16.441  0.6026  0.1805 -0.0060
    7DOPE   H3Y  859   3.156   6.100  16.267 -2.1485 -2.1971  0.0485
    7DOPE   C34  860   2.972   6.195  16.284  0.1574 -0.0975 -0.3301
    7DOPE   H4X  861   2.925   6.095  16.285  0.7789 -0.3932 -0.4825
    7DOPE   H4Y  862   2.912   6.256  16.355  0.2336 -0.2021 -0.1764
    7DOPE   C35  863   2.964   6.264  16.146 -0.1647 -0.1939 -0.2326
    7DOPE   H5X  864   3.019   6.360  16.146  0.6151 -0.5667  2.1621
    7DOPE   H5Y  865   2.855   6.280  16.134 -0.2122 -0.6725 -0.4887
    7DOPE   C36  866   3.024   6.193  16.015  0.4124  0.2912 -0.2050
    7DOPE   H6X  867   2.989   6.088  16.007 -0.8742  0.7914 -1.5005
    7DOPE   H6Y  868   3.133   6.180  16.035 -0.1694  0.2256  3.6868
    7DOPE   C37  869   3.000   6.260  15.881 -0.2625  0.0074  0.6436
    7DOPE   H7X  870   2.892   6.287  15.882 -0.5417 -1.0230  0.2703
    7DOPE   H7Y  871   3.061   6.351  15.864  0.5015 -0.5024  0.5856
    7DOPE   C38  872   3.031   6.165  15.748  0.1831  0.1677 -0.0112
    7DOPE   H8X  873   2.968   6.074  15.742 -0.9405  0.9978 -1.4347
    7DOPE   H8Y  874   3.139   6.139  15.754  0.4974  1.4344  0.1817
    7DOPE   C39  875   2.991   6.232  15.622 -0.7474 -0.1358  0.7588
    7DOPE   H9X  876   2.889   6.274  15.625 -1.1138 -0.8235 -0.9722
    7DOPE  C310  877   3.056   6.247  15.509  0.3267 -0.0959  0.5855
    7DOPE  H10X  878   3.006   6.300  15.427  1.2127 -0.0491  0.0627
    7DOPE  C311  879   3.191   6.190  15.478 -0.4951  0.0375 -0.3517
    7DOPE  H11X  880   3.247   6.276  15.435 -0.7534 -0.1433 -1.0537
    7DOPE  H11Y  881   3.250   6.169  15.571  0.0492  0.6334 -0.5528
    7DOPE  C312  882   3.197   6.073  15.373  0.1067 -1.1943 -0.1673
    7DOPE  H12X  883   3.161   5.977  15.417  0.5434 -0.7719  1.1543
    7DOPE  H12Y  884   3.304   6.058  15.344  0.4722 -0.1126  0.5598
    7DOPE  C313  885   3.116   6.104  15.242  0.2756 -0.7081 -0.0379
    7DOPE  H13X  886   3.013   6.098  15.282 -0.1623 -0.4008 -1.0722
    7DOPE  H13Y  887   3.130   6.208  15.207 -2.4597  0.1765  1.2701
    7DOPE  C314  888   3.149   6.010  15.124  0.0106 -0.1729 -0.3508
    7DOPE  H14X  889   3.137   5.906  15.162 -1.2275  1.1272  3.2147
    7DOPE  H14Y  890   3.254   6.023  15.090  0.3914 -0.5341  0.6257
    7DOPE  C315  891   3.044   6.048  15.016  0.5549 -0.6990 -0.0764
    7DOPE  H15X  892   3.031   6.157  15.001  0.0762 -0.6945  0.3542
    7DOPE  H15Y  893   2.941   6.020  15.048  0.0815  2.2165  1.2696
    7DOPE  C316  894   3.064   5.991  14.878  0.0483  0.6757  0.7041
    7DOPE  H16X  895   3.058   5.880  14.883 -2.4000  0.8075  3.0679
    7DOPE  H16Y  896   3.160   6.026  14.835  0.7822 -1.2958  0.6446
    7DOPE  C317  897   2.962   6.036  14.776 -0.0555 -0.0174  0.4446
    7DOPE  H17X  898   2.864   5.988  14.797 -0.4272  0.5864  0.1191
    7DOPE  H17Y  899   2.946   6.146  14.773  2.8661  0.5671  2.3351
    7DOPE  C318  900   3.008   5.984  14.638  0.1711 -0.3104  0.6609
    7DOPE  H18X  901   3.039   5.879  14.649  1.2686 -0.2323 -1.3115
    7DOPE  H18Y  902   2.927   5.993  14.563  1.9244 -0.3802 -1.3232
    7DOPE  H18Z  903   3.098   6.035  14.598 -0.0349 -0.4741 -0.0177
    8DOPE     N  904   5.968   6.380  16.403 -0.3677 -0.4184  0.4039
    8DOPE   HN1  905   6.043   6.340  16.342 -1.0583 -1.6946  0.3504
    8DOPE   HN2  906   5.921   6.459  16.355 -0.9911 -0.7878  0.3998
    8DOPE   HN3  907   6.016   6.404  16.492  0.2616  2.3265 -0.5934
    8DOPE   C12  908   5.875   6.271  16.424  0.2328  0.0471  1.4090
    8DOPE  H12A  909   5.782   6.324  16.455  0.1850  0.2243  0.9641
    8DOPE  H12B  910   5.912   6.202  16.504  1.4413 -1.4834 -0.3763
    8DOPE   C11  911   5.845   6.190  16.296 -0.3426 -0.7101 -0.4583
    8DOPE  H11A  912   5.768   6.116  16.326  0.3535 -0.3734  2.3866
    8DOPE  H11B  913   5.933   6.125  16.275  0.5471 -0.3500  1.8701
    8DOPE     P  914   5.658   6.339  16.191 -0.1737  0.0579  0.3262
    8DOPE   O13  915   5.667   6.485  16.178 -0.2811  0.4301 -0.4807
    8DOPE   O14  916   5.576   6.281  16.301  0.0902  0.4598 -0.3976
    8DOPE   O11  917   5.592   6.284  16.053  0.9335 -0.4671  0.3916
    8DOPE   O12  918   5.805   6.278  16.187 -0.2415  0.2403 -0.2897
    8DOPE    C1  919   5.636   6.156  16.002 -0.0508  0.5496  0.0864
    8DOPE    HA  920   5.646   6.082  16.083  0.2253 -0.5237 -0.8988
    8DOPE    HB  921   5.736   6.167  15.955  0.0618 -2.0776 -0.4284
    8DOPE    C2  922   5.551   6.108  15.879 -0.2503 -0.3840 -0.4263
    8DOPE    HS  923   5.593   6.009  15.851  1.6888  0.4311 -0.5283
    8DOPE   O21  924   5.558   6.212  15.777  0.6395  0.1607  0.1841
    8DOPE   C21  925   5.652   6.185  15.687 -0.0774 -0.4815  0.7660
    8DOPE   O22  926   5.714   6.081  15.687 -0.6313  0.2903  0.3929
    8DOPE   C22  927   5.673   6.307  15.594  0.7493  0.3715 -0.2291
    8DOPE   H2R  928   5.742   6.380  15.640 -0.5204  0.9207  0.8755
    8DOPE   H2S  929   5.574   6.357  15.583  0.6087  0.3223  0.7399
    8DOPE    C3  930   5.400   6.094  15.912 -0.5838 -0.3433 -0.3292
    8DOPE    HX  931   5.356   6.195  15.928  1.7185  0.4382  1.7122
    8DOPE    HY  932   5.408   6.036  16.006 -0.1666 -3.0687 -1.9479
    8DOPE   O31  933   5.324   6.018  15.813  0.3911  0.1090  0.0271
    8DOPE   C31  934   5.351   5.889  15.801 -0.8579 -0.6391  0.1031
    8DOPE   O32  935   5.419   5.829  15.880 -0.1157  0.3075  0.3115
    8DOPE   C32  936   5.272   5.827  15.687 -0.4835  0.4003  0.4459
    8DOPE   H2X  937   5.258   5.718  15.704 -0.5078 -0.3575 -3.4842
    8DOPE   H2Y  938   5.175   5.879  15.703  0.4754  2.4681 -0.1921
    8DOPE   C23  939   5.721   6.248  15.455 -0.2836  0.1194 -0.1550
    8DOPE   H3R  940   5.674   6.148  15.448 -1.3510  0.4321  1.7727
    8DOPE   H3S  941   5.829   6.226  15.460 -0.8832 -3.1950  0.5019
    8DOPE   C24  942   5.669   6.344  15.346 -0.0163 -0.3780 -0.3514
    8DOPE   H4R  943   5.734   6.433  15.358  1.6594 -1.8939  3.2841
    8DOPE   H4S  944   5.567   6.384  15.360  0.0758 -0.8318  1.9862
    8DOPE   C25  945   5.684   6.289  15.206 -0.7771  0.0028  0.5309
    8DOPE   H5R  946   5.655   6.366  15.131 -3.5820 -1.6039 -0.1626
    8DOPE   H5S  947   5.610   6.207  15.192 -1.4863  1.0777 -3.3020
    8DOPE   C26  948   5.831   6.246  15.165 -0.5715  0.0229  0.1735
    8DOPE   H6R  949   5.875   6.176  15.240  0.6721  0.9480  0.3477
    8DOPE   H6S  950   5.911   6.323  15.159 -0.2033 -0.3060  0.8129
    8DOPE   C27  951   5.831   6.162  15.032 -0.6589  0.7720  0.2450
    8DOPE   H7R  952   5.737   6.103  15.040 -0.2095  0.2168  1.6535
    8DOPE   H7S  953   5.914   6.089  15.036 -0.3949  1.0614  0.0712
    8DOPE   C28  954   5.859   6.249  14.916 -0.3653 -0.0126  0.0379
    8DOPE   H8R  955   5.963   6.287  14.920  0.3941 -2.0866  1.1238
    8DOPE   H8S  956   5.796   6.340  14.930 -0.8738 -0.3393 -0.1123
    8DOPE   C29  957   5.820   6.177  14.789 -0.0139  0.1483  0.6401
    8DOPE   H9R  958   5.900   6.114  14.746  1.4230  0.8729  2.1303
    8DOPE  C210  959   5.698   6.177  14.724  0.4524 -0.5976  0.0118
    8DOPE  H10R  960   5.692   6.127  14.626  0.6694 -1.7264  0.5669
    8DOPE  C211  961   5.577   6.256  14.766 -0.0452 -0.3347  0.9363
    8DOPE  H11R  962   5.599   6.362  14.793 -2.8843  0.5416  0.2632
    8DOPE  H11S  963   5.523   6.207  14.849 -1.1695 -0.5191  0.1278
    8DOPE  C212  964   5.462   6.272  14.656 -0.2810 -0.4858 -0.3176
    8DOPE  H12R  965   5.372   6.324  14.695 -1.9187 -2.5805 -1.1184
    8DOPE  H12S  966   5.431   6.168  14.633 -3.3221 -0.0661  1.4518
    8DOPE  C213  967   5.508   6.339  14.524 -0.6791  0.1294  0.1460
    8DOPE  H13R  968   5.419   6.326  14.460 -0.0745 -3.2447 -0.1527
    8DOPE  H13S  969   5.584   6.272  14.480 -0.3713  0.0696  0.7491
    8DOPE  C214  970   5.570   6.478  14.538  0.2648 -0.4319  0.3584
    8DOPE  H14R  971   5.665   6.460  14.593 -0.3453  0.0698  1.6117
    8DOPE  H14S  972   5.516   6.550  14.602 -0.4135 -0.2704 -0.3852
    8DOPE  C215  973   5.601   6.557  14.406  0.1309  0.1442  0.3193
    8DOPE  H15R  974   5.640   6.660  14.418  1.5797 -0.3396 -0.0447
    8DOPE  H15S  975   5.507   6.573  14.349 -0.4736 -0.1461  1.2104
    8DOPE  C216  976   5.683   6.483  14.293 -0.4282 -0.0510  0.3168
    8DOPE  H16R  977   5.621   6.398  14.259 -0.0691 -0.3828  0.4691
    8DOPE  H16S  978   5.773   6.432  14.335 -1.6805 -0.3521  2.7934
    8DOPE  C217  979   5.721   6.567  14.174  0.5601  0.2958  0.0081
    8DOPE  H17R  980   5.784   6.510  14.103 -0.9702 -0.5372 -0.7317
    8DOPE  H17S  981   5.789   6.649  14.204  1.0790 -0.0735 -0.1469
    8DOPE  C218  982   5.603   6.604  14.081 -0.3450 -0.1003  0.3124
    8DOPE  H18R  983   5.546   6.518  14.041 -0.8131  0.7341 -0.8778
    8DOPE  H18S  984   5.639   6.663  13.994  0.7947 -0.6950  0.3700
    8DOPE  H18T  985   5.536   6.667  14.144 -0.5336  0.8042 -0.7692
    8DOPE   C33  986   5.327   5.853  15.546 -0.5756 -0.5064 -0.3640
    8DOPE   H3X  987   5.251   5.803  15.481 -0.8986  1.7444 -1.8433
    8DOPE   H3Y  988   5.426   5.809  15.526 -0.0298 -0.4270  1.9646
    8DOPE   C34  989   5.336   6.011  15.510 -0.2291  0.0510 -0.4063
    8DOPE   H4X  990   5.231   6.046  15.522 -0.8715 -2.0683  0.5606
    8DOPE   H4Y  991   5.406   6.070  15.574 -1.1217 -0.0244  0.6672
    8DOPE   C35  992   5.361   6.033  15.359  0.2319 -1.0496  0.1424
    8DOPE   H5X  993   5.306   5.959  15.297 -0.0964  0.8471 -1.9632
    8DOPE   H5Y  994   5.469   6.021  15.333  0.3587 -0.3107  0.3188
    8DOPE   C36  995   5.324   6.180  15.322  0.2170  1.2270 -0.8101
    8DOPE   H6X  996   5.391   6.256  15.368 -0.3903  1.7603 -0.7910
    8DOPE   H6Y  997   5.222   6.212  15.353  0.5690  3.0238 -1.3710
    8DOPE   C37  998   5.335   6.192  15.173  0.4166  0.7189  0.5363
    8DOPE   H7X  999   5.337   6.299  15.144 -1.5544  0.6775  0.1785
    8DOPE   H7Y 1000   5.428   6.151  15.128 -0.7731  1.0748 -2.4543
    8DOPE   C38 1001   5.221   6.136  15.087  1.3212 -0.1528  0.0783
    8DOPE   H8X 1002   5.196   6.030  15.109 -1.2318 -0.0538 -1.7528
    8DOPE   H8Y 1003   5.260   6.138  14.983 -1.8414  0.8583 -1.2476
    8DOPE   C39 1004   5.086   6.208  15.089  0.4786  0.2772 -0.8163
    8DOPE   H9X 1005   5.042   6.195  15.189  3.4150 -1.0049  0.4229
    8DOPE  C310 1006   5.027   6.287  15.001  0.0947  0.2037  0.2239
    8DOPE  H10X 1007   4.921   6.312  15.012  0.0676  0.4797 -0.6174
    8DOPE  C311 1008   5.084   6.323  14.864 -0.2194  0.2394 -0.4239
    8DOPE  H11X 1009   5.094   6.433  14.852  1.4455 -0.0464 -2.0909
    8DOPE  H11Y 1010   5.180   6.270  14.851 -0.2950 -0.6236  2.0317
    8DOPE  C312 1011   4.984   6.283  14.754 -0.2402 -0.1169 -0.2952
    8DOPE  H12X 1012   4.892   6.343  14.766 -1.3677 -1.9732  0.7378
    8DOPE  H12Y 1013   4.958   6.177  14.769 -1.0665  0.0739 -0.3667
    8DOPE  C313 1014   5.048   6.310  14.618 -0.5581  0.2023 -0.1989
    8DOPE  H13X 1015   5.075   6.416  14.600  1.5965 -0.1754  0.4957
    8DOPE  H13Y 1016   5.149   6.266  14.603 -0.7496 -0.4444  0.3926
    8DOPE  C314 1017   4.955   6.265  14.504  0.6360  0.0951  0.3354
    8DOPE  H14X 1018   4.985   6.321  14.412  0.8456 -0.8551 -0.1873
    8DOPE  H14Y 1019   4.851   6.296  14.526  0.2106  0.4312 -1.8421
    8DOPE  C315 1020   4.967   6.116  14.479 -0.1087  0.6825  0.1066
    8DOPE  H15X 1021   4.871   6.084  14.433 -0.3396 -1.4387  1.8971
    8DOPE  H15Y 1022   4.967   6.046  14.565 -2.6734  0.1927 -0.2210
    8DOPE  C316 1023   5.077   6.076  14.378  0.3026 -0.0896  0.3125
    8DOPE  H16X 1024   5.079   6.135  14.284 -1.4317 -0.2147  0.1655
    8DOPE  H16Y 1025   5.037   5.978  14.345 -0.6559 -0.1028  1.4485
    8DOPE  C317 1026   5.223   6.058  14.422 -0.3076 -0.1479  0.0034
    8DOPE  H17X 1027   5.263   6.152  14.465  1.4579 -1.8455  2.3095
    8DOPE  H17Y 1028   5.217   5.992  14.510  2.8341  0.3348  0.6963
    8DOPE  C318 1029   5.317   5.990  14.319 -0.5342  0.2105  0.0159
    8DOPE  H18X 1030   5.350   6.065  14.245  0.0972 -0.6346 -0.5838
    8DOPE  H18Y 1031   5.265   5.900  14.278  0.1503 -1.1088  1.9071
    8DOPE  H18Z 1032   5.412   5.969  14.373  1.1138  1.3593 -2.2652
    9DOPE     N 1033   1.298   4.142  16.227 -0.2759  0.0229 -0.1651
    9DOPE   HN1 1034   1.344   4.077  16.294  2.0554  2.2140  0.5241
    9DOPE   HN2 1035   1.358   4.226  16.241  0.8266 -0.1613 -3.0997
    9DOPE   HN3 1036   1.201   4.154  16.262 -0.0680 -0.3386  0.5499
    9DOPE   C12 1037   1.321   4.094  16.084 -0.1671  0.0416  0.7856
    9DOPE  H12A 1038   1.427   4.087  16.052  0.0840  0.2195  1.5460
    9DOPE  H12B 1039   1.276   4.173  16.020  1.1736 -0.2436 -0.5603
    9DOPE   C11 1040   1.262   3.954  16.052  0.4272  0.4993 -0.1481
    9DOPE  H11A 1041   1.319   3.871  16.100 -1.0125 -1.1118 -1.1059
    9DOPE  H11B 1042   1.283   3.933  15.945  0.6708 -1.0174  0.1731
    9DOPE     P 1043   1.065   3.869  16.210  0.0048  0.5400  0.2291
    9DOPE   O13 1044   0.918   3.875  16.206 -0.2025 -0.6403 -0.1131
    9DOPE   O14 1045   1.128   3.932  16.327 -0.2205  0.2196  0.6150
    9DOPE   O11 1046   1.117   3.725  16.187 -0.7044 -0.0047  0.1525
    9DOPE   O12 1047   1.123   3.939  16.072  0.3136  0.1179  0.4501
    9DOPE    C1 1048   1.056   3.620  16.269 -0.2540  0.4074 -0.1739
    9DOPE    HA 1049   0.945   3.610  16.267 -0.1205 -3.1651  1.6692
    9DOPE    HB 1050   1.084   3.644  16.374 -1.8187  2.9219 -0.2650
    9DOPE    C2 1051   1.111   3.483  16.221 -0.1293  0.1974  0.2141
    9DOPE    HS 1052   1.097   3.413  16.307 -2.2239  1.1407  0.7001
    9DOPE   O21 1053   1.255   3.495  16.198 -0.7336  0.1756 -0.1447
    9DOPE   C21 1054   1.326   3.385  16.170 -0.2835  0.0891 -0.6732
    9DOPE   O22 1055   1.290   3.270  16.182 -0.2909  0.2518 -0.3458
    9DOPE   C22 1056   1.473   3.424  16.139 -0.6705  0.3949  0.0472
    9DOPE   H2R 1057   1.528   3.330  16.117  0.8627  1.0536  0.8570
    9DOPE   H2S 1058   1.514   3.464  16.235  1.9896 -0.4925 -0.6430
    9DOPE    C3 1059   1.041   3.429  16.092  0.0991 -0.6661  0.1239
    9DOPE    HX 1060   0.931   3.430  16.101  0.0828 -0.9370 -0.0141
    9DOPE    HY 1061   1.063   3.320  16.097 -1.0777 -1.2148 -3.3859
    9DOPE   O31 1062   1.093   3.480  15.968 -0.1750 -0.1555  0.6111
    9DOPE   C31 1063   1.028   3.581  15.914  0.1175  0.2284  0.4601
    9DOPE   O32 1064   0.911   3.610  15.947 -0.5073 -0.1597 -0.9641
    9DOPE   C32 1065   1.113   3.655  15.810  0.4189 -0.4492  0.4974
    9DOPE   H2X 1066   1.212   3.649  15.860  0.5761 -0.4999  0.1823
    9DOPE   H2Y 1067   1.119   3.590  15.721 -1.3496  0.4035 -0.3131
    9DOPE   C23 1068   1.500   3.517  16.016  0.8032 -0.5089  0.2470
    9DOPE   H3R 1069   1.606   3.551  16.024  0.5813  0.3721 -0.4158
    9DOPE   H3S 1070   1.449   3.616  16.020  1.6679 -0.0662  0.6913
    9DOPE   C24 1071   1.470   3.460  15.878 -0.2823  0.1093  0.5626
    9DOPE   H4R 1072   1.364   3.429  15.875  0.0316 -1.2443  2.1013
    9DOPE   H4S 1073   1.541   3.376  15.866 -1.5242 -0.8375 -0.3757
    9DOPE   C25 1074   1.498   3.571  15.764  0.2287 -0.2723 -0.4061
    9DOPE   H5R 1075   1.606   3.593  15.782 -0.2593  0.8192  1.5296
    9DOPE   H5S 1076   1.444   3.664  15.790  1.9188  0.5452  0.2858
    9DOPE   C26 1077   1.469   3.531  15.627  0.1397  0.4702 -0.4921
    9DOPE   H6R 1078   1.361   3.520  15.607 -0.0245  1.0128  0.0996
    9DOPE   H6S 1079   1.520   3.433  15.610 -4.1216 -2.4576  1.6857
    9DOPE   C27 1080   1.526   3.637  15.533 -0.1219 -0.0165  0.2268
    9DOPE   H7R 1081   1.636   3.644  15.548  0.0678  1.4123 -1.4964
    9DOPE   H7S 1082   1.483   3.739  15.542 -1.1741 -0.4140 -0.1809
    9DOPE   C28 1083   1.500   3.599  15.388 -0.4340  0.6348  0.7206
    9DOPE   H8R 1084   1.517   3.685  15.320  0.3171  1.3252  1.7581
    9DOPE   H8S 1085   1.391   3.579  15.379 -0.0742 -1.9910  1.2896
    9DOPE   C29 1086   1.580   3.475  15.339  0.4073 -0.1106  0.5583
    9DOPE   H9R 1087   1.540   3.381  15.380  1.6681 -1.6344 -1.4838
    9DOPE  C210 1088   1.677   3.458  15.251  0.7825  0.6059 -0.6030
    9DOPE  H10R 1089   1.725   3.360  15.238  2.1410  1.0740  0.5913
    9DOPE  C211 1090   1.738   3.562  15.153  0.5254 -0.2110  0.7055
    9DOPE  H11R 1091   1.837   3.598  15.189  1.6516 -1.7697 -0.6829
    9DOPE  H11S 1092   1.673   3.651  15.149  1.5150  0.5615  1.4449
    9DOPE  C212 1093   1.759   3.523  15.005  0.0179  0.5585  0.0696
    9DOPE  H12R 1094   1.806   3.604  14.946 -1.6500 -0.1680 -2.4169
    9DOPE  H12S 1095   1.655   3.524  14.966 -0.0719  2.6903  0.2523
    9DOPE  C213 1096   1.822   3.382  14.990  0.1815 -0.1121  0.5241
    9DOPE  H13R 1097   1.740   3.309  15.008 -2.7696  2.7196 -0.3997
    9DOPE  H13S 1098   1.905   3.376  15.063  0.7795 -1.3544 -0.2333
    9DOPE  C214 1099   1.863   3.374  14.845 -0.2361  0.1958  0.2316
    9DOPE  H14R 1100   1.941   3.297  14.824  1.1948  1.7922 -0.5964
    9DOPE  H14S 1101   1.914   3.471  14.826  3.6478 -1.8136 -0.7085
    9DOPE  C215 1102   1.747   3.347  14.742  0.5126 -0.5114  0.0729
    9DOPE  H15R 1103   1.672   3.422  14.772  0.2169 -1.2802  1.3171
    9DOPE  H15S 1104   1.709   3.243  14.757  0.3211 -0.3328  0.8467
    9DOPE  C216 1105   1.789   3.365  14.596 -1.1611 -0.1603 -0.5763
    9DOPE  H16R 1106   1.870   3.441  14.598 -0.8246 -0.5307  0.2750
    9DOPE  H16S 1107   1.702   3.401  14.537 -1.2363 -0.8282 -0.8846
    9DOPE  C217 1108   1.857   3.233  14.527 -0.3184 -0.4387  0.1068
    9DOPE  H17R 1109   1.777   3.156  14.535 -2.4175  1.2911 -2.4043
    9DOPE  H17S 1110   1.952   3.212  14.581  0.7121  1.6900 -0.7710
    9DOPE  C218 1111   1.878   3.254  14.372  0.0610 -1.3824  0.1284
    9DOPE  H18R 1112   1.906   3.360  14.351 -0.4188 -1.4235 -0.7775
    9DOPE  H18S 1113   1.784   3.242  14.313  0.8536  2.0316 -2.1582
    9DOPE  H18T 1114   1.951   3.182  14.330  0.3160 -0.5980 -0.8218
    9DOPE   C33 1115   1.055   3.793  15.771  0.3259 -0.0423 -0.7634
    9DOPE   H3X 1116   1.052   3.857  15.862 -0.7451 -1.5011  0.2905
    9DOPE   H3Y 1117   0.950   3.787  15.737 -0.1421 -0.6956  0.7075
    9DOPE   C34 1118   1.135   3.847  15.651  0.7648 -0.3286 -0.0024
    9DOPE   H4X 1119   1.119   3.957  15.652 -0.4765 -0.4981  0.5999
    9DOPE   H4Y 1120   1.244   3.831  15.662  0.8892  0.4133 -0.1436
    9DOPE   C35 1121   1.089   3.786  15.518  0.5675 -1.0960 -0.2044
    9DOPE   H5X 1122   0.978   3.791  15.525  0.6831 -0.9349  2.0737
    9DOPE   H5Y 1123   1.130   3.683  15.505  1.9857 -0.9853  2.6452
    9DOPE   C36 1124   1.141   3.869  15.405  0.1760  0.3908 -0.0161
    9DOPE   H6X 1125   1.250   3.848  15.397 -0.1500 -1.3797 -0.0984
    9DOPE   H6Y 1126   1.130   3.978  15.429  2.3707  0.8724 -0.9236
    9DOPE   C37 1127   1.068   3.840  15.272  0.4658  0.2635 -0.3300
    9DOPE   H7X 1128   0.969   3.890  15.281 -0.6552 -1.9049 -0.0478
    9DOPE   H7Y 1129   1.127   3.884  15.188  0.2705 -1.1114 -1.2215
    9DOPE   C38 1130   1.042   3.694  15.230 -0.3173  0.2453  0.3269
    9DOPE   H8X 1131   0.990   3.695  15.132 -0.0974 -0.2357  0.2059
    9DOPE   H8Y 1132   0.956   3.653  15.286 -2.7744  0.7050 -2.8263
    9DOPE   C39 1133   1.164   3.601  15.233 -0.0466 -0.2673  0.4148
    9DOPE   H9X 1134   1.187   3.567  15.335 -0.3213  2.0477  1.3086
    9DOPE  C310 1135   1.245   3.588  15.127  0.2259  0.0827 -0.0611
    9DOPE  H10X 1136   1.334   3.526  15.148 -0.7522 -1.6651 -0.9417
    9DOPE  C311 1137   1.235   3.635  14.988 -0.5128 -0.2570  0.2808
    9DOPE  H11X 1138   1.146   3.697  14.968  0.3237  0.6069 -0.9158
    9DOPE  H11Y 1139   1.326   3.695  14.965 -0.8782 -0.3768 -1.6599
    9DOPE  C312 1140   1.237   3.528  14.878  0.2302  0.2010 -0.3294
    9DOPE  H12X 1141   1.213   3.575  14.780 -1.0423  1.6014  0.6003
    9DOPE  H12Y 1142   1.150   3.461  14.900 -0.5307  1.1728 -0.3141
    9DOPE  C313 1143   1.375   3.460  14.875  0.3608  0.3788  0.1523
    9DOPE  H13X 1144   1.452   3.537  14.854 -0.0225  1.0324  1.0492
    9DOPE  H13Y 1145   1.402   3.409  14.971  3.2674 -0.2340 -0.9049
    9DOPE  C314 1146   1.380   3.361  14.759  0.7773  0.2402  0.2884
    9DOPE  H14X 1147   1.472   3.300  14.768  0.2472 -0.5147  0.6945
    9DOPE  H14Y 1148   1.402   3.416  14.665  2.1458  1.2035  1.1387
    9DOPE  C315 1149   1.250   3.273  14.737  1.1561  0.3076  0.0310
    9DOPE  H15X 1150   1.164   3.339  14.712 -0.0789 -1.0839  0.4238
    9DOPE  H15Y 1151   1.220   3.220  14.830  3.0854  0.1424  0.6050
    9DOPE  C316 1152   1.271   3.159  14.631 -0.0529 -0.6041  0.4170
    9DOPE  H16X 1153   1.178   3.099  14.626 -0.5835  0.0660  1.8303
    9DOPE  H16Y 1154   1.360   3.098  14.657  0.9482  0.4125 -0.5203
    9DOPE  C317 1155   1.303   3.211  14.491  0.1258 -0.6176  0.3861
    9DOPE  H17X 1156   1.399   3.268  14.485 -0.0818 -0.3777 -1.1651
    9DOPE  H17Y 1157   1.312   3.133  14.413 -1.6449 -1.1665  0.6973
    9DOPE  C318 1158   1.187   3.306  14.442 -0.3757 -0.7493  0.3215
    9DOPE  H18X 1159   1.102   3.243  14.408  1.0246 -2.7899  0.4215
    9DOPE  H18Y 1160   1.158   3.385  14.515 -1.7292  0.7102 -1.6659
    9DOPE  H18Z 1161   1.226   3.376  14.366 -1.2955  1.8947  2.1342
   10DOPE     N 1162   0.367   4.986  16.787  0.2654  0.3750  0.8469
   10DOPE   HN1 1163   0.341   4.888  16.811  1.5625 -0.0612  0.5481
   10DOPE   HN2 1164   0.337   5.047  16.866  0.3732  1.6553 -0.0631
   10DOPE   HN3 1165   0.329   5.016  16.694  0.5584 -1.3670  0.1262
   10DOPE   C12 1166   0.514   5.021  16.781  0.7658  0.0173 -0.4484
   10DOPE  H12A 1167   0.555   4.967  16.869 -1.7834  1.4184  1.7280
   10DOPE  H12B 1168   0.528   5.131  16.781  0.1451  0.1149  0.8057
   10DOPE   C11 1169   0.586   4.961  16.656 -0.0215  0.3084  0.0334
   10DOPE  H11A 1170   0.692   4.995  16.659  0.7366 -1.9412  1.7538
   10DOPE  H11B 1171   0.548   5.004  16.561 -0.9003  1.1661  0.7523
   10DOPE     P 1172   0.497   4.739  16.557 -0.2847 -0.2228 -0.2117
   10DOPE   O13 1173   0.348   4.763  16.572  0.0511  0.2656  0.0840
   10DOPE   O14 1174   0.533   4.596  16.559  0.7232  0.2201 -0.6325
   10DOPE   O11 1175   0.535   4.800  16.416 -0.0443  0.0444 -0.0910
   10DOPE   O12 1176   0.570   4.821  16.669 -0.3305  0.1113 -0.6967
   10DOPE    C1 1177   0.638   4.749  16.333 -0.2962  0.4054 -0.3531
   10DOPE    HA 1178   0.617   4.766  16.225  1.3276  0.5926 -0.6680
   10DOPE    HB 1179   0.650   4.640  16.348 -0.7630  0.2151 -1.2712
   10DOPE    C2 1180   0.773   4.824  16.352 -1.2159  0.2986  1.2044
   10DOPE    HS 1181   0.804   4.825  16.459  5.0005  0.0385 -0.2099
   10DOPE   O21 1182   0.760   4.959  16.299  0.0003  0.2802 -0.2162
   10DOPE   C21 1183   0.822   5.053  16.354 -0.0514 -0.6003 -0.7764
   10DOPE   O22 1184   0.904   5.045  16.447 -0.1915 -0.1449 -0.0354
   10DOPE   C22 1185   0.791   5.186  16.281 -0.7279  0.2283  0.6946
   10DOPE   H2R 1186   0.691   5.212  16.320 -0.9326 -2.3673  2.1743
   10DOPE   H2S 1187   0.772   5.158  16.175 -1.0931  1.3137  0.4589
   10DOPE    C3 1188   0.880   4.741  16.271 -0.5098 -0.4462  0.6213
   10DOPE    HX 1189   0.885   4.643  16.323  0.5730 -0.0860  1.2243
   10DOPE    HY 1190   0.980   4.788  16.279  0.5743 -2.1593 -1.7292
   10DOPE   O31 1191   0.844   4.714  16.139  0.3423  0.1554 -0.0883
   10DOPE   C31 1192   0.891   4.800  16.050  0.2428  0.1406 -0.3766
   10DOPE   O32 1193   0.974   4.886  16.075  0.5477  0.0741  0.3817
   10DOPE   C32 1194   0.831   4.781  15.906 -0.9370 -0.5627 -0.3046
   10DOPE   H2X 1195   0.856   4.679  15.868 -2.8659  0.0158 -3.4199
   10DOPE   H2Y 1196   0.721   4.776  15.917 -0.8399 -1.6001  0.3454
   10DOPE   C23 1197   0.904   5.287  16.311  0.0403 -0.0399 -0.1781
   10DOPE   H3R 1198   1.004   5.255  16.275  0.2245  1.2964 -0.9324
   10DOPE   H3S 1199   0.926   5.302  16.419  0.9646  0.3552 -0.4155
   10DOPE   C24 1200   0.875   5.419  16.251  0.1220 -0.1144  0.1287
   10DOPE   H4R 1201   0.952   5.488  16.292  1.3256 -0.9641 -0.6220
   10DOPE   H4S 1202   0.777   5.461  16.281 -0.1870 -1.3503  0.9394
   10DOPE   C25 1203   0.908   5.428  16.099 -0.2813  0.4221 -0.3226
   10DOPE   H5R 1204   0.881   5.531  16.067 -0.8701  0.2018 -0.5535
   10DOPE   H5S 1205   0.841   5.362  16.040  0.7597 -1.1070  0.1370
   10DOPE   C26 1206   1.056   5.406  16.060 -0.2918 -0.0023 -0.5370
   10DOPE   H6R 1207   1.083   5.299  16.047 -0.0327  0.0707 -0.6138
   10DOPE   H6S 1208   1.125   5.441  16.140  0.7716 -0.0073 -1.4282
   10DOPE   C27 1209   1.093   5.487  15.934  0.3741 -0.5358  0.1877
   10DOPE   H7R 1210   1.201   5.489  15.906  0.4939  1.0324  0.6354
   10DOPE   H7S 1211   1.089   5.596  15.958  0.2084 -0.3152 -0.8184
   10DOPE   C28 1212   1.007   5.454  15.819  0.1339  0.1915  1.4355
   10DOPE   H8R 1213   1.017   5.533  15.741  0.2516 -0.5249  0.7097
   10DOPE   H8S 1214   0.900   5.467  15.847 -0.6261 -0.4482 -0.9507
   10DOPE   C29 1215   1.012   5.309  15.765 -0.1475  0.0277 -0.4007
   10DOPE   H9R 1216   0.933   5.238  15.796 -1.5176  2.1746  1.3448
   10DOPE  C210 1217   1.107   5.267  15.683  0.0781  0.2939 -0.7071
   10DOPE  H10R 1218   1.093   5.167  15.639  2.7081 -0.4570 -0.0232
   10DOPE  C211 1219   1.226   5.340  15.626  0.5737 -0.6705 -0.6043
   10DOPE  H11R 1220   1.317   5.281  15.648  1.2087 -0.2091 -1.8748
   10DOPE  H11S 1221   1.236   5.443  15.666 -2.7259  0.2658 -1.9073
   10DOPE  C212 1222   1.195   5.353  15.475  0.8842  0.2316  0.1439
   10DOPE  H12R 1223   1.262   5.428  15.427  1.2992 -0.8949 -1.1089
   10DOPE  H12S 1224   1.089   5.383  15.464  1.0118  0.9303  0.7469
   10DOPE  C213 1225   1.210   5.218  15.395 -0.3821  0.0179 -0.3153
   10DOPE  H13R 1226   1.128   5.156  15.438 -1.1418  1.4001  0.2997
   10DOPE  H13S 1227   1.310   5.177  15.418 -0.8106 -0.1236  1.4049
   10DOPE  C214 1228   1.203   5.236  15.241 -0.3947 -0.2968  0.0682
   10DOPE  H14R 1229   1.284   5.297  15.195 -1.5933 -0.9322 -3.1135
   10DOPE  H14S 1230   1.106   5.280  15.211 -1.3378 -2.0117  0.4638
   10DOPE  C215 1231   1.211   5.111  15.156  0.3089  0.7216 -0.0190
   10DOPE  H15R 1232   1.135   5.039  15.191  1.9660 -0.4799  1.2432
   10DOPE  H15S 1233   1.302   5.048  15.167 -0.2215  0.3420  2.7933
   10DOPE  C216 1234   1.195   5.140  15.008  0.1075  0.6291 -0.3115
   10DOPE  H16R 1235   1.251   5.228  14.970 -0.0913 -0.0007 -2.1366
   10DOPE  H16S 1236   1.089   5.170  14.993  0.0272  0.3593 -0.2870
   10DOPE  C217 1237   1.232   5.023  14.911  0.2507 -0.2461 -0.3404
   10DOPE  H17R 1238   1.188   4.930  14.953 -1.9510  1.8234  2.2554
   10DOPE  H17S 1239   1.343   5.031  14.902  0.5043 -2.3316  0.3777
   10DOPE  C218 1240   1.176   5.040  14.771 -0.3065  0.8257 -0.7668
   10DOPE  H18R 1241   1.067   5.036  14.794  0.2769 -3.7441  2.7689
   10DOPE  H18S 1242   1.204   4.955  14.704  1.6498  0.9348 -0.1549
   10DOPE  H18T 1243   1.224   5.131  14.730  0.4028  0.0072 -1.8338
   10DOPE   C33 1244   0.884   4.898  15.815 -0.5533 -0.1808 -0.1580
   10DOPE   H3X 1245   0.994   4.913  15.814 -0.4120 -1.1590 -0.2796
   10DOPE   H3Y 1246   0.844   4.994  15.856 -0.5707  0.4627 -1.6067
   10DOPE   C34 1247   0.837   4.890  15.670  0.3971 -0.3946  0.3909
   10DOPE   H4X 1248   0.727   4.877  15.666  0.4826 -0.8606 -1.9733
   10DOPE   H4Y 1249   0.876   4.985  15.628 -0.7649  0.1017  0.3919
   10DOPE   C35 1250   0.894   4.771  15.591  0.1790 -0.3824 -0.1258
   10DOPE   H5X 1251   0.833   4.767  15.498 -0.3618 -0.1872  0.2159
   10DOPE   H5Y 1252   0.868   4.676  15.641 -0.2429 -0.8414 -1.1917
   10DOPE   C36 1253   1.039   4.799  15.564 -0.1639  0.3008  0.2364
   10DOPE   H6X 1254   1.082   4.792  15.666  1.6448 -0.6282 -0.5432
   10DOPE   H6Y 1255   1.050   4.906  15.536 -0.2081  0.7178  1.7297
   10DOPE   C37 1256   1.081   4.701  15.459 -0.2086  0.1717  0.6445
   10DOPE   H7X 1257   1.038   4.601  15.480 -0.7682  0.0975 -0.7179
   10DOPE   H7Y 1258   1.033   4.708  15.359 -0.0600 -1.0711  0.4753
   10DOPE   C38 1259   1.235   4.692  15.435  0.1486  1.0123 -0.0975
   10DOPE   H8X 1260   1.260   4.584  15.428 -1.9898  0.5646 -2.4724
   10DOPE   H8Y 1261   1.291   4.717  15.528  0.6593 -0.3153 -0.0261
   10DOPE   C39 1262   1.285   4.776  15.321 -0.1482 -0.3453 -0.1994
   10DOPE   H9X 1263   1.308   4.878  15.356  0.4389 -0.3440 -0.5679
   10DOPE  C310 1264   1.319   4.742  15.199  0.0045 -0.2100  0.0486
   10DOPE  H10X 1265   1.344   4.818  15.124 -1.6450 -1.7000 -2.1258
   10DOPE  C311 1266   1.325   4.605  15.139  0.6095  0.3653  0.4437
   10DOPE  H11X 1267   1.432   4.580  15.128  0.0628 -1.9602 -0.1903
   10DOPE  H11Y 1268   1.285   4.531  15.211 -2.4124  0.1433 -1.2819
   10DOPE  C312 1269   1.267   4.601  15.000 -0.4937 -0.8534  0.0815
   10DOPE  H12X 1270   1.166   4.647  14.996 -1.8087 -3.5649 -0.8385
   10DOPE  H12Y 1271   1.252   4.492  14.985 -0.3926 -0.9007  0.3248
   10DOPE  C313 1272   1.352   4.656  14.890 -0.0365 -0.0885  0.6738
   10DOPE  H13X 1273   1.379   4.761  14.914  1.2290 -0.4020  0.7347
   10DOPE  H13Y 1274   1.449   4.600  14.892  0.2406  0.3929  0.8736
   10DOPE  C314 1275   1.289   4.638  14.752 -0.6382 -0.3516  0.3340
   10DOPE  H14X 1276   1.208   4.713  14.743 -0.2633  0.0207  0.0030
   10DOPE  H14Y 1277   1.251   4.537  14.730 -3.1879 -0.3106  3.7419
   10DOPE  C315 1278   1.383   4.676  14.637 -0.5449  0.1998  0.0647
   10DOPE  H15X 1279   1.458   4.595  14.635 -1.3657 -0.6323  1.3658
   10DOPE  H15Y 1280   1.430   4.776  14.651  0.5311 -0.1375 -0.9943
   10DOPE  C316 1281   1.316   4.685  14.501  0.1780 -0.8350 -0.3358
   10DOPE  H16X 1282   1.243   4.769  14.499 -0.5851 -1.4895 -0.8637
   10DOPE  H16Y 1283   1.267   4.588  14.477 -1.5038  0.2726 -1.6450
   10DOPE  C317 1284   1.417   4.721  14.391  0.2624 -0.1021  0.1183
   10DOPE  H17X 1285   1.464   4.820  14.409 -0.5581  0.2190  0.5259
   10DOPE  H17Y 1286   1.494   4.642  14.403 -1.2924 -2.0663 -2.0104
   10DOPE  C318 1287   1.346   4.716  14.256  0.4430 -0.2134 -0.4132
   10DOPE  H18X 1288   1.324   4.609  14.235 -1.1566 -0.1348  0.6503
   10DOPE  H18Y 1289   1.255   4.780  14.255  1.3381  1.2473  1.9399
   10DOPE  H18Z 1290   1.404   4.765  14.176 -1.2750 -1.3418 -2.4739
   11DOPE     N 1291   0.934   2.605  16.495  0.2870 -0.3002  0.2869
   11DOPE   HN1 1292   0.990   2.547  16.561  0.7765  0.7742  0.8372
   11DOPE   HN2 1293   0.846   2.558  16.467  0.6694 -0.3752 -0.8273
   11DOPE   HN3 1294   0.984   2.631  16.408 -1.1408  2.2475  0.1347
   11DOPE   C12 1295   0.890   2.734  16.560  1.0665  0.3101 -0.2028
   11DOPE  H12A 1296   0.817   2.706  16.640 -0.6444 -1.3275 -2.2102
   11DOPE  H12B 1297   0.830   2.782  16.480 -0.6292 -0.6814  0.4207
   11DOPE   C11 1298   1.007   2.824  16.593 -0.1861  0.3441 -0.1912
   11DOPE  H11A 1299   0.969   2.926  16.618  1.4812  1.2744 -1.2973
   11DOPE  H11B 1300   1.071   2.841  16.504  0.8963 -2.8464 -0.1291
   11DOPE     P 1301   1.216   2.827  16.752  0.4336  0.0018  0.2992
   11DOPE   O13 1302   1.261   2.755  16.868  0.7066 -0.2863 -0.2285
   11DOPE   O14 1303   1.205   2.977  16.755  0.2001  0.7475  0.5859
   11DOPE   O11 1304   1.301   2.788  16.626 -0.5234  0.0674 -0.3100
   11DOPE   O12 1305   1.075   2.773  16.708  0.4705 -0.6665  0.1514
   11DOPE    C1 1306   1.312   2.654  16.571 -0.0903 -1.2035 -0.6454
   11DOPE    HA 1307   1.211   2.624  16.534 -2.5762  2.2034  2.7313
   11DOPE    HB 1308   1.338   2.581  16.650 -1.6628 -0.5779  0.5091
   11DOPE    C2 1309   1.414   2.647  16.454  0.1270 -0.8843  0.2597
   11DOPE    HS 1310   1.387   2.556  16.396  0.5061 -2.0525  1.8294
   11DOPE   O21 1311   1.554   2.649  16.503 -0.0277 -0.1355 -0.5393
   11DOPE   C21 1312   1.635   2.577  16.427  0.3314  0.1915  0.3907
   11DOPE   O22 1313   1.591   2.519  16.327  0.3440  0.0659  0.2845
   11DOPE   C22 1314   1.777   2.584  16.472 -0.6922  0.3050 -0.2170
   11DOPE   H2R 1315   1.786   2.548  16.577 -1.3733  0.5350 -0.0748
   11DOPE   H2S 1316   1.800   2.692  16.480 -1.1547  0.3801  0.1256
   11DOPE    C3 1317   1.396   2.776  16.357 -0.2207 -0.8747  0.0881
   11DOPE    HX 1318   1.428   2.872  16.403  0.2361 -2.2881  2.9372
   11DOPE    HY 1319   1.289   2.790  16.331  0.5220  3.2149 -1.6134
   11DOPE   O31 1320   1.469   2.755  16.233  0.0215  0.0680 -0.4181
   11DOPE   C31 1321   1.411   2.690  16.139  0.3598 -0.4298 -0.1909
   11DOPE   O32 1322   1.289   2.657  16.140  0.4704 -0.2554  0.6433
   11DOPE   C32 1323   1.510   2.652  16.027  0.3007  0.2949  0.1313
   11DOPE   H2X 1324   1.563   2.745  15.998  2.2489 -1.4722 -2.3544
   11DOPE   H2Y 1325   1.592   2.579  16.044  0.1380  0.1109  0.1339
   11DOPE   C23 1326   1.866   2.509  16.376  0.2534 -0.2633  0.8194
   11DOPE   H3R 1327   1.819   2.409  16.364 -0.0244  0.0271 -0.7525
   11DOPE   H3S 1328   1.961   2.477  16.423  0.0383  0.1949  1.5832
   11DOPE   C24 1329   1.884   2.570  16.233 -0.1401  0.1351  0.1106
   11DOPE   H4R 1330   1.947   2.661  16.248 -0.4270  0.0582  2.0458
   11DOPE   H4S 1331   1.783   2.594  16.193  0.3016  0.3932 -0.8791
   11DOPE   C25 1332   1.967   2.482  16.143  0.3190 -0.1720 -0.4621
   11DOPE   H5R 1333   1.917   2.383  16.142  0.8080 -0.4956  2.0488
   11DOPE   H5S 1334   2.064   2.468  16.195 -0.0115 -0.7122  0.0182
   11DOPE   C26 1335   1.994   2.536  15.999  0.2428  0.2625 -0.1056
   11DOPE   H6R 1336   2.071   2.469  15.954 -0.6203 -1.1136  0.3993
   11DOPE   H6S 1337   2.037   2.638  16.001  0.5674  0.1458 -0.6745
   11DOPE   C27 1338   1.868   2.555  15.920 -0.0555  0.5632 -0.0314
   11DOPE   H7R 1339   1.801   2.625  15.974 -0.3797 -1.2472  2.0495
   11DOPE   H7S 1340   1.805   2.464  15.931 -0.2195  0.7583  0.7303
   11DOPE   C28 1341   1.883   2.605  15.778  0.2973  0.6100  0.2654
   11DOPE   H8R 1342   1.914   2.712  15.781 -3.2071  1.8676 -2.2206
   11DOPE   H8S 1343   1.791   2.613  15.716  1.2781  0.3617 -1.2695
   11DOPE   C29 1344   1.983   2.522  15.699 -0.0339  0.1151 -0.2626
   11DOPE   H9R 1345   2.076   2.578  15.683  0.6382 -1.0557 -0.6032
   11DOPE  C210 1346   1.973   2.403  15.631  0.1714  0.1665 -0.6302
   11DOPE  H10R 1347   2.063   2.368  15.578 -0.6914 -0.3338 -1.7913
   11DOPE  C211 1348   1.850   2.315  15.624  0.5358 -0.5614 -0.0174
   11DOPE  H11R 1349   1.761   2.345  15.684 -0.0683  0.3976 -1.3290
   11DOPE  H11S 1350   1.871   2.213  15.660  0.6943  0.1080  1.9147
   11DOPE  C212 1351   1.804   2.294  15.477 -0.1915 -0.2893  0.1592
   11DOPE  H12R 1352   1.777   2.395  15.441 -1.8004 -0.1323  1.6713
   11DOPE  H12S 1353   1.709   2.237  15.473  0.5216 -1.4752 -3.1784
   11DOPE  C213 1354   1.894   2.223  15.372 -0.1458 -0.0664 -0.0703
   11DOPE  H13R 1355   1.897   2.120  15.414  0.5578  1.0442  2.8257
   11DOPE  H13S 1356   1.988   2.281  15.365 -0.4093  0.3322 -0.3501
   11DOPE  C214 1357   1.835   2.217  15.230  0.0255  0.5712  0.3186
   11DOPE  H14R 1358   1.811   2.317  15.188 -1.7137  0.7632  1.6769
   11DOPE  H14S 1359   1.733   2.172  15.226 -0.0878  0.8900 -1.4760
   11DOPE  C215 1360   1.930   2.149  15.136 -0.5127 -0.5663  0.4856
   11DOPE  H15R 1361   1.943   2.048  15.181  0.4372 -0.6807 -0.0282
   11DOPE  H15S 1362   2.022   2.210  15.134 -1.1254  0.3745  0.4347
   11DOPE  C216 1363   1.875   2.138  14.987  0.3463 -0.7689  0.1634
   11DOPE  H16R 1364   1.859   2.246  14.963 -1.7550 -0.7126  1.5243
   11DOPE  H16S 1365   1.777   2.087  14.992 -0.6967  1.1454  0.2222
   11DOPE  C217 1366   1.969   2.060  14.897  0.5057  0.7371 -0.0771
   11DOPE  H17R 1367   1.967   1.953  14.925  2.1632 -0.1051 -2.8025
   11DOPE  H17S 1368   2.076   2.090  14.899  1.2538 -1.5499 -1.6471
   11DOPE  C218 1369   1.916   2.058  14.752 -0.3163 -0.1011 -0.4310
   11DOPE  H18R 1370   1.914   2.164  14.716 -0.7937  0.7803  2.0088
   11DOPE  H18S 1371   1.811   2.026  14.742 -0.9580  2.0077 -0.9379
   11DOPE  H18T 1372   1.980   1.994  14.688  0.7242  0.2101  0.2646
   11DOPE   C33 1373   1.423   2.637  15.906 -0.0541 -0.3490  1.1770
   11DOPE   H3X 1374   1.341   2.711  15.897  0.4474  0.2382  1.3422
   11DOPE   H3Y 1375   1.365   2.543  15.913 -0.4633 -0.2757 -0.7494
   11DOPE   C34 1376   1.506   2.648  15.777  0.1357 -0.4173 -0.1359
   11DOPE   H4X 1377   1.543   2.752  15.770  1.8085 -1.0584 -1.6623
   11DOPE   H4Y 1378   1.599   2.589  15.792 -0.3590 -1.0546  0.4757
   11DOPE   C35 1379   1.424   2.591  15.659  0.2575 -0.1757 -0.4394
   11DOPE   H5X 1380   1.328   2.640  15.631  0.4800 -0.3677 -1.6109
   11DOPE   H5Y 1381   1.408   2.482  15.677 -2.1680 -0.1270 -1.8639
   11DOPE   C36 1382   1.494   2.613  15.527  0.1068  0.1227 -0.4087
   11DOPE   H6X 1383   1.602   2.606  15.549 -0.0303  0.5939  0.4600
   11DOPE   H6Y 1384   1.466   2.714  15.488 -2.0576 -0.6962 -1.1341
   11DOPE   C37 1385   1.446   2.510  15.421  0.1093  0.0181 -0.0814
   11DOPE   H7X 1386   1.476   2.408  15.451  0.2406  0.3690  1.0192
   11DOPE   H7Y 1387   1.335   2.509  15.424  0.0526  1.0660 -0.9887
   11DOPE   C38 1388   1.504   2.548  15.288 -0.1682 -0.0248  0.6545
   11DOPE   H8X 1389   1.604   2.502  15.276 -1.0138 -1.5503 -0.9689
   11DOPE   H8Y 1390   1.514   2.659  15.284  1.4578 -0.0806  2.1086
   11DOPE   C39 1391   1.425   2.492  15.172 -0.3304 -0.3382 -0.9689
   11DOPE   H9X 1392   1.321   2.475  15.203  0.4609 -1.9103  1.1161
   11DOPE  C310 1393   1.446   2.510  15.039  0.3742  0.4050 -0.5720
   11DOPE  H10X 1394   1.367   2.479  14.969 -1.6357 -0.6381  1.9990
   11DOPE  C311 1395   1.562   2.577  14.976 -0.1912 -0.0889 -0.3003
   11DOPE  H11X 1396   1.526   2.670  14.927 -1.5854 -0.0857  0.6780
   11DOPE  H11Y 1397   1.632   2.606  15.057  1.2743 -0.1896 -1.4759
   11DOPE  C312 1398   1.630   2.503  14.859 -0.5851 -0.5839 -0.9028
   11DOPE  H12X 1399   1.660   2.399  14.882  0.8990  0.6158  3.6825
   11DOPE  H12Y 1400   1.725   2.554  14.829  0.3264 -0.7029  1.5734
   11DOPE  C313 1401   1.544   2.520  14.730 -0.3260  0.6007 -0.7827
   11DOPE  H13X 1402   1.443   2.479  14.749 -0.4729  0.1650 -2.4053
   11DOPE  H13Y 1403   1.547   2.628  14.704 -0.3825  0.7350 -0.2370
   11DOPE  C314 1404   1.592   2.440  14.615  0.2920  0.8575 -0.6165
   11DOPE  H14X 1405   1.541   2.473  14.521  0.5247  3.0262 -0.0506
   11DOPE  H14Y 1406   1.564   2.335  14.634 -0.8056  0.9031 -1.7866
   11DOPE  C315 1407   1.742   2.451  14.589 -0.2569 -0.0140 -0.6613
   11DOPE  H15X 1408   1.803   2.430  14.679 -1.2092 -1.8799 -0.4120
   11DOPE  H15Y 1409   1.760   2.557  14.558 -1.0379  0.4885  0.5409
   11DOPE  C316 1410   1.791   2.356  14.475 -0.2817  0.1018  0.2849
   11DOPE  H16X 1411   1.779   2.251  14.510  0.9652  0.2722  1.3260
   11DOPE  H16Y 1412   1.899   2.382  14.473 -0.6208  1.6253  0.7917
   11DOPE  C317 1413   1.737   2.393  14.338  0.8788 -0.4859  0.1229
   11DOPE  H17X 1414   1.794   2.330  14.265 -0.5706  1.1550 -2.6029
   11DOPE  H17Y 1415   1.631   2.363  14.322  0.9098 -0.4212 -0.2046
   11DOPE  C318 1416   1.734   2.544  14.305 -0.2574  0.1142 -0.8221
   11DOPE  H18X 1417   1.644   2.599  14.338  0.2680  0.0675  0.7512
   11DOPE  H18Y 1418   1.831   2.588  14.336 -1.3741  1.3313  1.1074
   11DOPE  H18Z 1419   1.729   2.553  14.194 -0.7052  1.9567 -0.6725
   12DOPE     N 1420   2.453   0.255  17.078 -0.4024  0.1353  0.0245
   12DOPE   HN1 1421   2.403   0.338  17.114 -2.8143 -0.6123 -1.4044
   12DOPE   HN2 1422   2.516   0.218  17.152  0.1280 -0.8870 -0.9075
   12DOPE   HN3 1423   2.506   0.285  16.994 -0.2681 -0.0424  0.0427
   12DOPE   C12 1424   2.346   0.146  17.049  0.5039 -0.1123  0.0666
   12DOPE  H12A 1425   2.253   0.167  17.107 -0.1600 -0.2269 -0.9166
   12DOPE  H12B 1426   2.389   0.052  17.090  0.0953 -0.6839 -0.7850
   12DOPE   C11 1427   2.331   0.125  16.900 -0.1955 -0.8691 -0.3063
   12DOPE  H11A 1428   2.310   0.017  16.882 -0.0043 -1.0323  0.4294
   12DOPE  H11B 1429   2.422   0.142  16.839 -1.4180  3.1901 -1.2807
   12DOPE     P 1430   2.088   0.170  16.829  0.1028  0.3727  0.0762
   12DOPE   O13 1431   2.009   0.270  16.753  0.5580  0.7900 -0.0103
   12DOPE   O14 1432   2.041   0.133  16.964  0.8991  0.1219 -0.1509
   12DOPE   O11 1433   2.091   0.034  16.749  0.5769 -0.0186  0.1486
   12DOPE   O12 1434   2.236   0.217  16.840 -0.0405  0.5012  0.9668
   12DOPE    C1 1435   2.145   0.021  16.619  0.0305  0.1856 -0.1506
   12DOPE    HA 1436   2.251   0.056  16.616  0.6381 -1.3227  1.8433
   12DOPE    HB 1437   2.091   0.078  16.540 -0.3109  0.1347  0.0469
   12DOPE    C2 1438   2.154  -0.128  16.568  0.0425  0.7919 -0.1566
   12DOPE    HS 1439   2.260  -0.155  16.547  1.0365  2.6050  2.1353
   12DOPE   O21 1440   2.079  -0.133  16.441  0.0716  0.0557 -0.5667
   12DOPE   C21 1441   2.116  -0.059  16.343 -0.2582  0.0560  0.6976
   12DOPE   O22 1442   2.209   0.021  16.337  0.2852 -0.2244  0.1057
   12DOPE   C22 1443   2.027  -0.081  16.224 -0.0299 -0.0167  0.2807
   12DOPE   H2R 1444   1.946  -0.005  16.223  0.5085  0.5637 -0.5406
   12DOPE   H2S 1445   1.982  -0.183  16.229  0.4702 -0.1885  2.7120
   12DOPE    C3 1446   2.089  -0.230  16.663  0.0053 -0.5328  0.5483
   12DOPE    HX 1447   1.984  -0.204  16.688  0.3063 -0.3099  1.6365
   12DOPE    HY 1448   2.139  -0.214  16.761 -0.8730  2.4946  0.6003
   12DOPE   O31 1449   2.074  -0.361  16.606  0.7562 -0.3485 -0.3629
   12DOPE   C31 1450   2.170  -0.447  16.643  0.4006  0.6997  0.5402
   12DOPE   O32 1451   2.273  -0.422  16.700 -0.1656 -0.4406 -0.4145
   12DOPE   C32 1452   2.135  -0.591  16.595 -0.3937 -0.0570  0.7842
   12DOPE   H2X 1453   2.158  -0.667  16.672 -1.4946 -1.8431 -0.5587
   12DOPE   H2Y 1454   2.025  -0.596  16.577 -0.0559 -0.5983 -1.3249
   12DOPE   C23 1455   2.099  -0.060  16.091  0.3411  0.6693 -0.0018
   12DOPE   H3R 1456   2.186  -0.129  16.091 -0.0940 -0.0740  3.3532
   12DOPE   H3S 1457   2.144   0.042  16.092 -1.9604  1.8104  3.0068
   12DOPE   C24 1458   2.017  -0.083  15.961 -0.2896 -0.0970  0.4481
   12DOPE   H4R 1459   1.917  -0.034  15.967  0.4782  1.7140 -0.5676
   12DOPE   H4S 1460   1.995  -0.192  15.964 -2.6578  0.2526 -1.4679
   12DOPE   C25 1461   2.086  -0.049  15.825 -0.2133  0.6710  0.2212
   12DOPE   H5R 1462   2.174  -0.114  15.807 -0.3135  0.5102  0.3082
   12DOPE   H5S 1463   2.121   0.056  15.830 -0.5949  0.8822 -1.0586
   12DOPE   C26 1464   1.991  -0.067  15.707 -0.1539  0.0340 -0.1417
   12DOPE   H6R 1465   1.894  -0.022  15.735  0.6807  1.0566  1.2327
   12DOPE   H6S 1466   1.971  -0.173  15.677  0.7187 -0.8421  2.1348
   12DOPE   C27 1467   2.042   0.005  15.585  0.3097 -0.3886  0.3772
   12DOPE   H7R 1468   2.034   0.115  15.599 -2.8651 -0.1963 -1.8524
   12DOPE   H7S 1469   1.978  -0.023  15.498  0.6774  3.5927 -1.3904
   12DOPE   C28 1470   2.183  -0.041  15.543  0.1656  0.2592 -0.2066
   12DOPE   H8R 1471   2.179  -0.151  15.526  0.2736  0.5929 -2.9692
   12DOPE   H8S 1472   2.250  -0.019  15.629  0.8385  0.9299 -0.8798
   12DOPE   C29 1473   2.242   0.040  15.425  0.0971 -0.4516 -0.1546
   12DOPE   H9R 1474   2.256   0.147  15.446 -1.1751 -0.2161 -0.4578
   12DOPE  C210 1475   2.252   0.011  15.298  0.2430  0.2828  0.0360
   12DOPE  H10R 1476   2.317   0.077  15.239 -0.4185  0.7992 -0.1333
   12DOPE  C211 1477   2.192  -0.110  15.235 -0.1630  0.1252  0.6679
   12DOPE  H11R 1478   2.126  -0.159  15.310 -0.3299  0.6282  0.8534
   12DOPE  H11S 1479   2.274  -0.177  15.199 -0.1680  0.1081  0.6875
   12DOPE  C212 1480   2.097  -0.078  15.110  0.7615 -0.2450 -0.3378
   12DOPE  H12R 1481   1.994  -0.042  15.128  1.0826 -0.2082  1.5748
   12DOPE  H12S 1482   2.078  -0.174  15.057  0.4005 -0.0087 -0.6482
   12DOPE  C213 1483   2.170   0.008  15.016 -0.2976  0.3335  0.4448
   12DOPE  H13R 1484   2.281  -0.000  15.016 -0.4229 -1.9014 -0.0830
   12DOPE  H13S 1485   2.142   0.115  15.028  1.7576  0.9865 -0.1750
   12DOPE  C214 1486   2.126  -0.036  14.870 -0.8295  0.4680  0.3680
   12DOPE  H14R 1487   2.017  -0.059  14.874 -0.7915  0.3478  0.7040
   12DOPE  H14S 1488   2.174  -0.132  14.843 -2.3097 -0.1366 -0.2434
   12DOPE  C215 1489   2.169   0.068  14.768 -0.2044 -0.1651  0.2203
   12DOPE  H15R 1490   2.279   0.080  14.778 -0.4911  0.9177  2.7493
   12DOPE  H15S 1491   2.120   0.165  14.789  1.6373  0.9737 -0.5269
   12DOPE  C216 1492   2.143   0.029  14.621  0.0986 -0.0280 -0.5324
   12DOPE  H16R 1493   2.034   0.014  14.601 -0.0058 -0.6624  0.4367
   12DOPE  H16S 1494   2.199  -0.066  14.605  0.6509  0.0929  0.5611
   12DOPE  C217 1495   2.211   0.126  14.521  0.4085  0.1456 -0.2540
   12DOPE  H17R 1496   2.182   0.096  14.417  1.5545 -0.2404 -0.4840
   12DOPE  H17S 1497   2.321   0.108  14.526  0.3601  0.1762  1.5650
   12DOPE  C218 1498   2.178   0.272  14.545 -0.4387  0.1337  0.2050
   12DOPE  H18R 1499   2.078   0.280  14.591 -0.5476 -0.0062 -0.0079
   12DOPE  H18S 1500   2.188   0.329  14.450  1.6943  1.3818  1.1010
   12DOPE  H18T 1501   2.249   0.322  14.614  0.1887 -2.2597  1.4257
   12DOPE   C33 1502   2.207  -0.625  16.462  0.2749 -0.2708  0.3606
   12DOPE   H3X 1503   2.211  -0.735  16.448 -0.9078 -0.2580 -0.1678
   12DOPE   H3Y 1504   2.314  -0.593  16.467 -0.1725  1.2496  0.7847
   12DOPE   C34 1505   2.140  -0.555  16.344  0.5058 -0.7653 -0.1536
   12DOPE   H4X 1506   2.031  -0.579  16.345 -0.3153  2.4116  2.4861
   12DOPE   H4Y 1507   2.145  -0.447  16.367 -1.1861 -1.1801  2.5675
   12DOPE   C35 1508   2.204  -0.586  16.209  0.7391 -0.6527 -0.2396
   12DOPE   H5X 1509   2.202  -0.696  16.198  3.2160 -0.9712  1.6312
   12DOPE   H5Y 1510   2.311  -0.558  16.199  0.2809  0.9421 -1.0863
   12DOPE   C36 1511   2.128  -0.521  16.093  0.4981  0.6681 -0.4529
   12DOPE   H6X 1512   2.122  -0.410  16.102 -4.8575  0.4473  2.1120
   12DOPE   H6Y 1513   2.026  -0.563  16.089  0.0139  1.4101  2.1708
   12DOPE   C37 1514   2.190  -0.548  15.954 -0.5361 -0.2541 -0.4398
   12DOPE   H7X 1515   2.295  -0.513  15.965 -0.6480  0.0562 -0.3376
   12DOPE   H7Y 1516   2.205  -0.655  15.930 -0.6738 -0.5491  0.6992
   12DOPE   C38 1517   2.129  -0.473  15.840 -0.0540  0.0761  0.0464
   12DOPE   H8X 1518   2.108  -0.371  15.877  0.0340  0.2854 -0.4686
   12DOPE   H8Y 1519   2.036  -0.530  15.819  0.8130 -2.4065  2.2754
   12DOPE   C39 1520   2.227  -0.457  15.723  0.6022 -0.0273 -0.7635
   12DOPE   H9X 1521   2.331  -0.427  15.741  0.4037  0.1901  0.0683
   12DOPE  C310 1522   2.201  -0.500  15.603 -0.0149  0.6334 -0.0591
   12DOPE  H10X 1523   2.279  -0.490  15.526  0.6606 -1.4622  0.3006
   12DOPE  C311 1524   2.081  -0.570  15.546 -0.1511 -0.0307 -0.4891
   12DOPE  H11X 1525   2.091  -0.680  15.559 -1.9686 -0.1278  0.4817
   12DOPE  H11Y 1526   1.986  -0.543  15.596 -0.2366  0.0654 -0.7034
   12DOPE  C312 1527   2.055  -0.532  15.397  0.3230  0.2636 -0.4590
   12DOPE  H12X 1528   2.052  -0.421  15.398 -0.5021  0.2657  1.6990
   12DOPE  H12Y 1529   1.955  -0.572  15.371  1.2323 -1.0146 -2.2186
   12DOPE  C313 1530   2.158  -0.570  15.297 -0.4758  0.1932  0.7369
   12DOPE  H13X 1531   2.256  -0.519  15.306  1.4498 -3.4896  3.8124
   12DOPE  H13Y 1532   2.181  -0.679  15.306  0.4830  0.1983 -1.2427
   12DOPE  C314 1533   2.104  -0.552  15.155  0.1077  0.6730  1.0652
   12DOPE  H14X 1534   2.070  -0.446  15.158 -2.3393 -0.0044 -0.1771
   12DOPE  H14Y 1535   2.015  -0.610  15.123 -0.8500  3.3449 -1.5544
   12DOPE  C315 1536   2.211  -0.577  15.051  0.0731  0.0897  0.7113
   12DOPE  H15X 1537   2.218  -0.686  15.028 -1.5310 -0.0799  0.9006
   12DOPE  H15Y 1538   2.307  -0.543  15.095  1.0849 -2.4186  0.6278
   12DOPE  C316 1539   2.193  -0.510  14.912  0.9868 -0.2858 -0.2776
   12DOPE  H16X 1540   2.205  -0.401  14.928 -0.5997 -0.0083 -0.8076
   12DOPE  H16Y 1541   2.087  -0.518  14.880  0.3879  1.9048  0.9376
   12DOPE  C317 1542   2.291  -0.555  14.798 -0.3118 -0.2776  0.3719
   12DOPE  H17X 1543   2.251  -0.654  14.766  1.0782 -1.2123  1.4242
   12DOPE  H17Y 1544   2.258  -0.487  14.717 -2.5102 -1.4204  0.2278
   12DOPE  C318 1545   2.446  -0.552  14.830  0.2711  0.3954  0.6676
   12DOPE  H18X 1546   2.478  -0.612  14.918 -0.0758  0.5042  0.8719
   12DOPE  H18Y 1547   2.505  -0.584  14.741 -0.3163  1.0057  0.0464
   12DOPE  H18Z 1548   2.477  -0.449  14.859 -1.0201  0.4965  1.8139
   13DOPE     N 1549   1.526   1.152  16.544  0.2615 -0.6902 -0.1051
   13DOPE   HN1 1550   1.508   1.205  16.456 -0.7351 -1.4289 -0.3715
   13DOPE   HN2 1551   1.627   1.137  16.562  0.4469  1.0753  0.4414
   13DOPE   HN3 1552   1.488   1.055  16.532 -0.7857 -0.4174  0.8994
   13DOPE   C12 1553   1.451   1.231  16.651 -0.0043  0.0377 -0.3467
   13DOPE  H12A 1554   1.510   1.197  16.739 -0.7532  1.4652  0.7674
   13DOPE  H12B 1555   1.349   1.189  16.660 -0.0958  0.6675  2.8643
   13DOPE   C11 1556   1.457   1.387  16.631 -0.0820 -0.1838  0.3755
   13DOPE  H11A 1557   1.553   1.414  16.581  0.0888  1.6809  1.6269
   13DOPE  H11B 1558   1.465   1.428  16.734  1.2033  1.0396 -0.1787
   13DOPE     P 1559   1.328   1.573  16.520  0.2674 -0.0104  0.4522
   13DOPE   O13 1560   1.367   1.649  16.642 -0.2502 -0.2984  0.2660
   13DOPE   O14 1561   1.192   1.590  16.470 -0.0175  0.7723 -0.3421
   13DOPE   O11 1562   1.434   1.598  16.410  0.6021  0.3146 -0.0956
   13DOPE   O12 1563   1.345   1.424  16.547  0.4219 -0.0705  0.3953
   13DOPE    C1 1564   1.452   1.507  16.304 -0.3447 -0.1513  0.2100
   13DOPE    HA 1565   1.382   1.530  16.221 -1.0006 -1.0526  0.4923
   13DOPE    HB 1566   1.430   1.400  16.326 -2.6099  0.5954  2.0112
   13DOPE    C2 1567   1.592   1.507  16.233 -0.2391 -0.4148 -0.7445
   13DOPE    HS 1568   1.676   1.495  16.304  0.4166 -3.0227 -1.8330
   13DOPE   O21 1569   1.593   1.627  16.160  0.2276 -0.4186 -0.7713
   13DOPE   C21 1570   1.708   1.664  16.113  0.1469  0.6117  0.6722
   13DOPE   O22 1571   1.812   1.604  16.119  0.1372 -0.2279 -0.1393
   13DOPE   C22 1572   1.691   1.801  16.044 -0.8426 -0.0465 -0.3709
   13DOPE   H2R 1573   1.703   1.882  16.119  2.6388 -1.1655  0.4814
   13DOPE   H2S 1574   1.586   1.806  16.007 -0.8997 -1.4658 -0.4797
   13DOPE    C3 1575   1.615   1.382  16.149 -0.8113 -0.4869  0.3643
   13DOPE    HX 1576   1.604   1.288  16.206  0.3660 -1.2767 -0.6560
   13DOPE    HY 1577   1.718   1.383  16.108 -1.0019 -1.6631 -0.1663
   13DOPE   O31 1578   1.530   1.383  16.033  0.0583 -0.1703  0.1173
   13DOPE   C31 1579   1.475   1.264  16.000 -0.2264 -0.4019 -0.1508
   13DOPE   O32 1580   1.507   1.158  16.049 -0.4037 -0.1959 -1.0748
   13DOPE   C32 1581   1.383   1.279  15.883 -0.0145 -0.7463 -0.1074
   13DOPE   H2X 1582   1.284   1.233  15.902 -0.2577 -0.7700 -1.3406
   13DOPE   H2Y 1583   1.361   1.380  15.844 -0.4066 -2.1190 -3.8344
   13DOPE   C23 1584   1.789   1.831  15.922 -1.2552  0.1276 -0.0173
   13DOPE   H3R 1585   1.897   1.817  15.944 -1.4698 -0.3883  0.7596
   13DOPE   H3S 1586   1.757   1.931  15.887 -1.0011  0.3831  0.4596
   13DOPE   C24 1587   1.749   1.742  15.801 -0.0551 -0.6804  0.7032
   13DOPE   H4R 1588   1.646   1.772  15.773 -0.2298  0.1520  2.0769
   13DOPE   H4S 1589   1.747   1.633  15.820  0.1282 -1.0224 -1.1468
   13DOPE   C25 1590   1.833   1.769  15.680 -0.1667  0.1846  0.0494
   13DOPE   H5R 1591   1.936   1.737  15.706 -0.6321 -1.1591  0.2850
   13DOPE   H5S 1592   1.836   1.876  15.649 -1.7833  0.0474 -0.6646
   13DOPE   C26 1593   1.783   1.692  15.561  0.3012  0.6095  0.2007
   13DOPE   H6R 1594   1.680   1.722  15.533  0.8437  1.5896 -0.8611
   13DOPE   H6S 1595   1.779   1.585  15.590 -2.3914  0.8807  1.0228
   13DOPE   C27 1596   1.863   1.713  15.434  0.3349  1.1977  0.6234
   13DOPE   H7R 1597   1.965   1.674  15.455 -0.1509 -1.1924 -1.0110
   13DOPE   H7S 1598   1.866   1.820  15.404  4.0049  0.4625 -2.3180
   13DOPE   C28 1599   1.807   1.636  15.317  0.3214  0.1566 -0.7850
   13DOPE   H8R 1600   1.701   1.669  15.314  0.5701  1.0118 -3.5699
   13DOPE   H8S 1601   1.809   1.528  15.341  5.1655  0.1562 -0.2548
   13DOPE   C29 1602   1.880   1.658  15.188  0.1524  0.0501 -0.0155
   13DOPE   H9R 1603   1.988   1.641  15.191  0.0011 -0.8102  1.2512
   13DOPE  C210 1604   1.832   1.729  15.084  0.0234  0.0317 -0.2155
   13DOPE  H10R 1605   1.900   1.745  14.999  1.4268  1.7522  1.1352
   13DOPE  C211 1606   1.694   1.781  15.062  0.5910 -0.6967  0.1261
   13DOPE  H11R 1607   1.706   1.873  15.001 -0.1436 -0.7996 -0.1780
   13DOPE  H11S 1608   1.646   1.812  15.156  0.1194 -0.9725 -0.0202
   13DOPE  C212 1609   1.599   1.685  14.991 -0.5969  0.1384 -0.1890
   13DOPE  H12R 1610   1.505   1.743  14.982 -1.4219 -0.6288  2.4814
   13DOPE  H12S 1611   1.578   1.594  15.052  0.7715 -0.8079 -1.0882
   13DOPE  C213 1612   1.640   1.631  14.851 -0.2743 -0.0120 -0.0323
   13DOPE  H13R 1613   1.563   1.559  14.815 -1.0352  1.0514 -0.5983
   13DOPE  H13S 1614   1.738   1.581  14.869  1.1539  2.1681 -1.2132
   13DOPE  C214 1615   1.679   1.736  14.748  0.2956 -0.5406 -0.3905
   13DOPE  H14R 1616   1.755   1.694  14.679  1.7214 -0.2265  0.9374
   13DOPE  H14S 1617   1.735   1.822  14.792 -2.0421  0.2599  1.2386
   13DOPE  C215 1618   1.552   1.793  14.679 -0.1896 -0.5783  0.9738
   13DOPE  H15R 1619   1.487   1.849  14.750  1.2467  0.6881  1.3405
   13DOPE  H15S 1620   1.482   1.720  14.632 -1.0270  0.7861  0.0341
   13DOPE  C216 1621   1.590   1.898  14.572 -0.5705 -0.3860  0.2887
   13DOPE  H16R 1622   1.648   1.985  14.610 -1.7580 -0.6085  2.8466
   13DOPE  H16S 1623   1.493   1.943  14.541 -0.6246 -0.2852  0.6025
   13DOPE  C217 1624   1.643   1.838  14.438 -0.0702 -0.2493  0.0931
   13DOPE  H17R 1625   1.564   1.779  14.387  0.5824 -1.0763  0.0089
   13DOPE  H17S 1626   1.719   1.758  14.451 -0.1840 -0.1241  1.6710
   13DOPE  C218 1627   1.697   1.942  14.342 -0.6363 -0.2833 -0.1856
   13DOPE  H18R 1628   1.614   2.004  14.304 -0.6149  3.0066  4.4033
   13DOPE  H18S 1629   1.752   1.896  14.257  1.8778  0.4855  0.9330
   13DOPE  H18T 1630   1.771   2.008  14.392 -0.1071  0.1323 -1.4564
   13DOPE   C33 1631   1.433   1.193  15.761  0.2650  0.2290 -0.3912
   13DOPE   H3X 1632   1.353   1.200  15.683 -1.2787  0.4094  1.1454
   13DOPE   H3Y 1633   1.461   1.089  15.788  0.5357 -0.0372 -1.6444
   13DOPE   C34 1634   1.568   1.245  15.701  0.4459  0.5237  0.1038
   13DOPE   H4X 1635   1.561   1.355  15.685  2.6130  0.6309 -0.4423
   13DOPE   H4Y 1636   1.648   1.217  15.773  0.8826  4.3452  1.2999
   13DOPE   C35 1637   1.604   1.181  15.568 -0.0476  0.1565 -0.0245
   13DOPE   H5X 1638   1.512   1.184  15.506 -3.0017 -1.0298  3.9187
   13DOPE   H5Y 1639   1.619   1.074  15.595  1.0692  0.6955  1.6506
   13DOPE   C36 1640   1.718   1.245  15.480 -0.2877  0.3695  0.0548
   13DOPE   H6X 1641   1.811   1.259  15.539  0.1707  1.0178 -0.7964
   13DOPE   H6Y 1642   1.688   1.349  15.453 -0.7225 -0.5571 -3.6005
   13DOPE   C37 1643   1.749   1.160  15.352 -0.1740 -1.0894  0.1406
   13DOPE   H7X 1644   1.842   1.201  15.308  0.1309 -1.8932  0.0362
   13DOPE   H7Y 1645   1.757   1.052  15.377  0.6972 -2.2565 -4.2861
   13DOPE   C38 1646   1.640   1.158  15.254 -0.0529 -0.0575  0.0227
   13DOPE   H8X 1647   1.539   1.139  15.297  0.0013  1.2057  0.7427
   13DOPE   H8Y 1648   1.663   1.076  15.183  0.6472  0.1722 -0.0214
   13DOPE   C39 1649   1.635   1.289  15.175 -0.6384  0.0766 -0.7505
   13DOPE   H9X 1650   1.591   1.370  15.237 -2.0561 -3.1417  2.8704
   13DOPE  C310 1651   1.703   1.317  15.062  0.3805 -0.1252 -0.0404
   13DOPE  H10X 1652   1.689   1.417  15.018 -2.0831 -0.4883 -0.2412
   13DOPE  C311 1653   1.789   1.229  14.976 -0.2548  0.1522  0.8789
   13DOPE  H11X 1654   1.895   1.263  14.979  0.2739 -1.3624  0.1923
   13DOPE  H11Y 1655   1.797   1.125  15.015  3.0963 -0.8123 -1.8449
   13DOPE  C312 1656   1.757   1.202  14.828  0.5765  0.7084  0.8577
   13DOPE  H12X 1657   1.650   1.180  14.809  0.7682  1.2914 -1.0275
   13DOPE  H12Y 1658   1.804   1.103  14.812 -1.4315  0.1574 -2.5965
   13DOPE  C313 1659   1.819   1.303  14.735  0.1133 -0.1168 -0.3573
   13DOPE  H13X 1660   1.788   1.404  14.771  2.3717  1.4079 -2.3520
   13DOPE  H13Y 1661   1.929   1.293  14.742  0.1719  0.2302 -0.7425
   13DOPE  C314 1662   1.781   1.281  14.587 -0.0074  0.4946  0.5190
   13DOPE  H14X 1663   1.696   1.212  14.572 -0.3838  0.4889  2.4556
   13DOPE  H14Y 1664   1.867   1.233  14.534 -2.7667 -1.3880 -2.6404
   13DOPE  C315 1665   1.747   1.415  14.517  0.2020  0.1344 -0.2430
   13DOPE  H15X 1666   1.833   1.485  14.522  1.2350 -0.8216 -2.8839
   13DOPE  H15Y 1667   1.656   1.453  14.568 -0.6308  0.2168 -1.7015
   13DOPE  C316 1668   1.721   1.393  14.367  0.4108  0.4161 -0.2603
   13DOPE  H16X 1669   1.636   1.325  14.346  0.1278  1.0018 -1.0380
   13DOPE  H16Y 1670   1.816   1.350  14.330 -0.2455 -2.0600  0.7298
   13DOPE  C317 1671   1.704   1.528  14.303 -0.8367  0.1842 -0.4206
   13DOPE  H17X 1672   1.600   1.558  14.330 -1.6493 -0.1728 -2.8981
   13DOPE  H17Y 1673   1.773   1.601  14.350 -2.3207  2.7868 -1.9763
   13DOPE  C318 1674   1.720   1.526  14.152  0.5984  0.3953  0.6487
   13DOPE  H18X 1675   1.827   1.515  14.124  0.5175  3.1794 -1.1478
   13DOPE  H18Y 1676   1.659   1.449  14.099 -0.1277  0.2328  1.6950
   13DOPE  H18Z 1677   1.693   1.626  14.113  3.7479  0.9849 -0.2903
   14DOPE     N 1678   5.260   3.790  16.213 -0.1357 -0.4731  0.6228
   14DOPE   HN1 1679   5.339   3.725  16.232  1.9337  1.4570 -0.9152
   14DOPE   HN2 1680   5.213   3.794  16.306 -2.2338 -0.6888 -0.3716
   14DOPE   HN3 1681   5.188   3.746  16.151  0.9675  2.6887 -3.3105
   14DOPE   C12 1682   5.319   3.906  16.143 -0.5536  0.1510  0.2046
   14DOPE  H12A 1683   5.230   3.952  16.095 -0.8207  1.3759  1.7990
   14DOPE  H12B 1684   5.388   3.872  16.062 -1.7104 -0.6569 -0.4663
   14DOPE   C11 1685   5.390   4.007  16.235  0.1825 -0.3039  0.5445
   14DOPE  H11A 1686   5.422   4.095  16.175 -2.3255  0.1345 -0.2867
   14DOPE  H11B 1687   5.485   3.965  16.274  0.7699 -0.3918 -0.9070
   14DOPE     P 1688   5.309   4.178  16.428 -0.2751  0.4176 -0.0564
   14DOPE   O13 1689   5.352   4.150  16.568  0.4708 -0.0364  0.4917
   14DOPE   O14 1690   5.184   4.267  16.410  0.1433  0.1460  0.3417
   14DOPE   O11 1691   5.427   4.246  16.348  0.3914  0.7552 -0.0061
   14DOPE   O12 1692   5.296   4.048  16.339 -0.3480  0.0733  0.0332
   14DOPE    C1 1693   5.424   4.390  16.318  0.0937 -0.3071  0.1848
   14DOPE    HA 1694   5.529   4.426  16.305  0.2209  0.2082  2.3213
   14DOPE    HB 1695   5.383   4.451  16.401  0.3194 -0.2076  0.2242
   14DOPE    C2 1696   5.342   4.440  16.194 -0.0267 -0.0697  0.2727
   14DOPE    HS 1697   5.237   4.405  16.202  0.3126 -1.2815 -0.3802
   14DOPE   O21 1698   5.408   4.387  16.081 -0.0512 -0.0996  0.2652
   14DOPE   C21 1699   5.333   4.334  15.996 -0.4176 -0.2617  0.4192
   14DOPE   O22 1700   5.217   4.293  16.008  0.2097 -0.3104 -0.0219
   14DOPE   C22 1701   5.419   4.328  15.865 -0.2880  0.0620  0.3232
   14DOPE   H2R 1702   5.468   4.229  15.856  1.6613  1.1436 -2.2941
   14DOPE   H2S 1703   5.497   4.407  15.858 -0.7379  0.4019 -2.1190
   14DOPE    C3 1704   5.345   4.604  16.190  0.6141 -0.4083  0.4046
   14DOPE    HX 1705   5.452   4.632  16.185  1.0030 -1.3518  2.4145
   14DOPE    HY 1706   5.311   4.640  16.290  1.9804  0.7233  0.4854
   14DOPE   O31 1707   5.258   4.660  16.086 -0.0673 -0.0351 -0.2218
   14DOPE   C31 1708   5.124   4.646  16.101 -0.2503 -0.7275  0.2093
   14DOPE   O32 1709   5.064   4.599  16.191 -0.6116  1.0024 -0.6186
   14DOPE   C32 1710   5.061   4.725  15.985 -0.0296  0.4032  0.2326
   14DOPE   H2X 1711   4.963   4.767  16.015  0.5021  0.5167  1.8978
   14DOPE   H2Y 1712   5.126   4.809  15.952  1.3697  0.5915  3.1818
   14DOPE   C23 1713   5.328   4.345  15.735  0.3623  0.4507 -0.0710
   14DOPE   H3R 1714   5.274   4.442  15.730 -0.1105  0.1579 -0.8610
   14DOPE   H3S 1715   5.257   4.260  15.726  1.3467 -0.3364 -0.6479
   14DOPE   C24 1716   5.413   4.363  15.607  0.7873 -0.5420  0.0771
   14DOPE   H4R 1717   5.492   4.286  15.614  2.7699  1.3251 -0.8306
   14DOPE   H4S 1718   5.453   4.467  15.615 -0.2594 -0.2271  2.2141
   14DOPE   C25 1719   5.330   4.329  15.477  0.1549 -0.0453  0.2366
   14DOPE   H5R 1720   5.233   4.383  15.488 -1.3797 -1.8134 -3.1262
   14DOPE   H5S 1721   5.307   4.221  15.484  3.0181 -0.8482 -1.3853
   14DOPE   C26 1722   5.397   4.367  15.347 -0.3291  0.7895  0.1409
   14DOPE   H6R 1723   5.419   4.476  15.349  1.7138  0.4107  0.7642
   14DOPE   H6S 1724   5.330   4.344  15.261  0.7728  1.0249 -0.8121
   14DOPE   C27 1725   5.525   4.287  15.314  0.6567  0.3316  0.5983
   14DOPE   H7R 1726   5.494   4.216  15.235 -1.2183 -0.9045  2.3592
   14DOPE   H7S 1727   5.557   4.234  15.406 -0.3928 -2.5731 -0.5939
   14DOPE   C28 1728   5.635   4.385  15.255 -0.7202 -0.1110  0.0514
   14DOPE   H8R 1729   5.726   4.325  15.234 -2.9879 -3.3297 -1.4410
   14DOPE   H8S 1730   5.663   4.453  15.338 -0.7358 -4.2607  3.8446
   14DOPE   C29 1731   5.602   4.448  15.126 -0.1283 -0.5199 -0.2428
   14DOPE   H9R 1732   5.550   4.543  15.145  0.4569 -0.4839  1.2965
   14DOPE  C210 1733   5.618   4.408  14.996 -0.0605  0.4142 -0.0274
   14DOPE  H10R 1734   5.586   4.482  14.920 -1.2186  1.1198  1.1045
   14DOPE  C211 1735   5.675   4.269  14.962 -0.4086 -0.0575  0.2196
   14DOPE  H11R 1736   5.673   4.201  15.050 -1.7258  1.3836  1.3559
   14DOPE  H11S 1737   5.778   4.274  14.921  0.6374 -2.8121  2.1467
   14DOPE  C212 1738   5.601   4.188  14.856  0.0682  0.1378 -1.0516
   14DOPE  H12R 1739   5.494   4.164  14.876  0.8329 -1.5756  1.4689
   14DOPE  H12S 1740   5.645   4.088  14.873 -2.0219 -0.3339  2.7120
   14DOPE  C213 1741   5.616   4.228  14.707 -0.4380 -0.1192 -0.3168
   14DOPE  H13R 1742   5.620   4.339  14.706  4.2257 -0.0525  0.8394
   14DOPE  H13S 1743   5.534   4.192  14.642 -0.3694  0.1662 -0.5614
   14DOPE  C214 1744   5.751   4.165  14.654  0.3888 -0.0327 -0.1312
   14DOPE  H14R 1745   5.737   4.054  14.656  0.5507 -0.0480  0.9881
   14DOPE  H14S 1746   5.837   4.195  14.717  1.6736 -0.7470 -1.5004
   14DOPE  C215 1747   5.765   4.221  14.512 -0.0845 -0.1748  0.4365
   14DOPE  H15R 1748   5.736   4.326  14.492  0.9791 -0.0560 -0.5566
   14DOPE  H15S 1749   5.687   4.170  14.452  0.7812 -0.4631 -0.4538
   14DOPE  C216 1750   5.899   4.195  14.456  0.0971 -0.2796  0.3043
   14DOPE  H16R 1751   5.931   4.091  14.435 -1.6201 -0.5911 -0.9852
   14DOPE  H16S 1752   5.977   4.238  14.522 -0.0822 -0.6168  0.7418
   14DOPE  C217 1753   5.909   4.279  14.324 -1.1128  0.1911  0.4481
   14DOPE  H17R 1754   5.917   4.387  14.346 -1.0845  0.4748 -0.8567
   14DOPE  H17S 1755   5.819   4.268  14.259  0.5301 -0.9381 -1.7994
   14DOPE  C218 1756   6.037   4.250  14.239 -0.1785  0.6436  0.3448
   14DOPE  H18R 1757   6.129   4.272  14.298 -0.0502 -2.1429  1.3584
   14DOPE  H18S 1758   6.048   4.321  14.155  0.6617 -0.4061 -0.4622
   14DOPE  H18T 1759   6.060   4.146  14.207 -1.6132  0.9468 -1.8041
   14DOPE   C33 1760   5.032   4.632  15.862  0.2479 -0.0789 -0.1369
   14DOPE   H3X 1761   4.930   4.592  15.884 -0.0037 -0.4194 -1.7661
   14DOPE   H3Y 1762   5.100   4.545  15.865 -2.6068 -2.4749  2.8728
   14DOPE   C34 1763   5.017   4.714  15.729  0.2739  0.4777  0.1074
   14DOPE   H4X 1764   4.947   4.799  15.747 -0.8929 -0.5735  0.6866
   14DOPE   H4Y 1765   5.115   4.759  15.701  0.5011  0.7812  1.3230
   14DOPE   C35 1766   4.957   4.627  15.617  0.6065  0.0582 -0.5745
   14DOPE   H5X 1767   4.852   4.605  15.646  0.5554  0.7329 -0.2329
   14DOPE   H5Y 1768   5.015   4.533  15.602 -1.0624 -0.9290 -1.1296
   14DOPE   C36 1769   4.972   4.696  15.480 -0.0281  0.2003 -0.0488
   14DOPE   H6X 1770   5.078   4.731  15.474  0.3453 -0.9601 -0.5016
   14DOPE   H6Y 1771   4.893   4.774  15.474  0.1994  0.4944  0.6473
   14DOPE   C37 1772   4.951   4.589  15.375  0.4210  0.0829  0.7067
   14DOPE   H7X 1773   5.051   4.540  15.380  0.8430  1.0127  2.4208
   14DOPE   H7Y 1774   4.877   4.508  15.387  1.8892 -1.4514 -0.2283
   14DOPE   C38 1775   4.933   4.647  15.232 -0.3138  0.5915  0.2971
   14DOPE   H8X 1776   4.841   4.710  15.228  0.2526  1.3811 -1.0307
   14DOPE   H8Y 1777   4.908   4.574  15.153  0.9790 -2.4918  2.5411
   14DOPE   C39 1778   5.053   4.729  15.196  0.3156  0.1046 -0.8367
   14DOPE   H9X 1779   5.058   4.830  15.240  1.1868  0.0895 -0.8968
   14DOPE  C310 1780   5.159   4.687  15.125  0.0071 -0.4064  0.7555
   14DOPE  H10X 1781   5.236   4.759  15.093  0.8554 -1.0701  1.2363
   14DOPE  C311 1782   5.169   4.550  15.069  0.7722  0.1020  0.2866
   14DOPE  H11X 1783   5.255   4.488  15.103  0.2036 -0.4702  0.7101
   14DOPE  H11Y 1784   5.084   4.490  15.109  0.9867 -0.5503 -0.2163
   14DOPE  C312 1785   5.141   4.545  14.915 -0.0727 -0.0957 -0.5817
   14DOPE  H12X 1786   5.223   4.603  14.869 -0.6545  2.0602  0.9335
   14DOPE  H12Y 1787   5.040   4.588  14.894 -0.3403  0.0554  0.8522
   14DOPE  C313 1788   5.146   4.408  14.857  0.4651 -0.0498  0.1581
   14DOPE  H13X 1789   5.235   4.353  14.893  0.4896  0.0038  0.1790
   14DOPE  H13Y 1790   5.059   4.347  14.889  0.2918  1.1423  2.0699
   14DOPE  C314 1791   5.145   4.400  14.700 -0.4930  0.3382 -0.0477
   14DOPE  H14X 1792   5.076   4.479  14.663 -0.3424  0.9846  1.0280
   14DOPE  H14Y 1793   5.089   4.310  14.668  0.9696 -0.5015 -0.3404
   14DOPE  C315 1794   5.291   4.388  14.630  0.1252  0.9829 -0.0104
   14DOPE  H15X 1795   5.340   4.294  14.664 -2.1697 -0.2093  0.2192
   14DOPE  H15Y 1796   5.359   4.472  14.656  0.8448  0.7138 -0.9444
   14DOPE  C316 1797   5.281   4.395  14.479 -0.1300 -0.0798  0.8338
   14DOPE  H16X 1798   5.241   4.497  14.457 -1.3207 -1.1274 -2.3114
   14DOPE  H16Y 1799   5.209   4.320  14.442  1.2761 -0.8345 -0.4772
   14DOPE  C317 1800   5.424   4.393  14.416  0.6542 -0.4122 -0.4333
   14DOPE  H17X 1801   5.472   4.486  14.452 -1.8378  0.3982  1.0358
   14DOPE  H17Y 1802   5.482   4.311  14.464 -2.1564 -0.5608  3.1293
   14DOPE  C318 1803   5.410   4.371  14.263  0.3764 -0.1503  0.6863
   14DOPE  H18X 1804   5.510   4.351  14.218  0.0365  1.4891 -0.9044
   14DOPE  H18Y 1805   5.333   4.296  14.238  1.0030 -0.5734 -0.0097
   14DOPE  H18Z 1806   5.375   4.469  14.223  1.8123 -0.4845 -1.5805
   15DOPE     N 1807   6.454   1.851  16.249 -0.9863  0.3620  0.1742
   15DOPE   HN1 1808   6.417   1.754  16.263  1.0052 -0.4716 -0.0251
   15DOPE   HN2 1809   6.460   1.909  16.335 -0.9569  0.7307 -0.0799
   15DOPE   HN3 1810   6.387   1.893  16.182 -1.1637 -2.3468 -1.5257
   15DOPE   C12 1811   6.594   1.848  16.187 -0.4175 -0.4102  0.8699
   15DOPE  H12A 1812   6.589   1.762  16.117  0.6817  0.2987 -0.1225
   15DOPE  H12B 1813   6.670   1.840  16.268  1.3487  0.5168 -0.6299
   15DOPE   C11 1814   6.611   1.983  16.114  0.1394  0.7124  0.1350
   15DOPE  H11A 1815   6.527   1.997  16.042  1.5611  0.7880 -1.5735
   15DOPE  H11B 1816   6.702   1.976  16.051 -0.7017  0.2059 -1.0685
   15DOPE     P 1817   6.737   2.136  16.298  0.4536 -0.3486 -0.3164
   15DOPE   O13 1818   6.818   2.017  16.332  0.3333 -0.1786  0.0486
   15DOPE   O14 1819   6.706   2.218  16.417  0.5561  0.2205 -0.3346
   15DOPE   O11 1820   6.820   2.228  16.197  0.3277 -0.2401  0.1239
   15DOPE   O12 1821   6.613   2.092  16.212  0.0620 -0.3252  0.3789
   15DOPE    C1 1822   6.772   2.348  16.138  0.2791  0.4222 -0.2630
   15DOPE    HA 1823   6.821   2.431  16.192  1.2234 -0.3596  0.1094
   15DOPE    HB 1824   6.661   2.354  16.151  0.4664 -0.3085  1.9982
   15DOPE    C2 1825   6.820   2.367  15.997  0.8382  0.4695  0.5504
   15DOPE    HS 1826   6.763   2.294  15.935 -0.8543  2.0262  0.1877
   15DOPE   O21 1827   6.962   2.355  15.985 -0.8501 -0.5644  0.2182
   15DOPE   C21 1828   7.005   2.229  15.956  0.3347 -0.5134 -0.1366
   15DOPE   O22 1829   6.938   2.133  15.936  0.4743 -0.0763  0.2578
   15DOPE   C22 1830   7.161   2.235  15.973  0.1293  0.2002  0.2787
   15DOPE   H2R 1831   7.163   2.237  16.084 -1.7796 -1.3582  0.3923
   15DOPE   H2S 1832   7.198   2.332  15.933  0.3860  0.3184  0.7917
   15DOPE    C3 1833   6.781   2.507  15.955 -0.8292 -0.5596  0.6211
   15DOPE    HX 1834   6.840   2.586  16.007  2.0461 -2.3591  0.3042
   15DOPE    HY 1835   6.676   2.518  15.987 -0.3527  1.0794  1.7434
   15DOPE   O31 1836   6.797   2.507  15.813 -0.2037  0.3358  0.4920
   15DOPE   C31 1837   6.843   2.619  15.760  0.9897  0.4575 -0.2146
   15DOPE   O32 1838   6.862   2.728  15.815  0.0750  0.9447  0.0943
   15DOPE   C32 1839   6.862   2.608  15.605 -0.1625  0.7175 -0.7398
   15DOPE   H2X 1840   6.812   2.512  15.581 -3.3100  1.5841  1.6169
   15DOPE   H2Y 1841   6.793   2.682  15.559 -3.2964 -0.9860  0.9010
   15DOPE   C23 1842   7.236   2.114  15.921 -0.6133  0.3998  0.3963
   15DOPE   H3R 1843   7.203   2.018  15.967  1.3610  0.3779  1.9281
   15DOPE   H3S 1844   7.345   2.122  15.943 -0.4641  0.9851 -0.5158
   15DOPE   C24 1845   7.234   2.097  15.765  0.2600  0.8036  0.4661
   15DOPE   H4R 1846   7.129   2.087  15.731  0.4136  1.5998 -0.2851
   15DOPE   H4S 1847   7.287   2.001  15.746 -0.6916  0.0348  1.5706
   15DOPE   C25 1848   7.304   2.209  15.692 -0.5320 -0.2832 -0.4857
   15DOPE   H5R 1849   7.403   2.217  15.743 -1.6688 -0.7984  1.9319
   15DOPE   H5S 1850   7.250   2.304  15.711 -0.8668  0.1003 -3.0715
   15DOPE   C26 1851   7.316   2.181  15.539 -0.4729  0.4355  0.4699
   15DOPE   H6R 1852   7.213   2.170  15.499 -0.8013  0.3153  1.3326
   15DOPE   H6S 1853   7.378   2.091  15.521 -0.7694  0.5166 -1.1196
   15DOPE   C27 1854   7.384   2.301  15.462 -0.2575  0.3514  0.2172
   15DOPE   H7R 1855   7.488   2.307  15.501 -0.3749  1.0752  0.4434
   15DOPE   H7S 1856   7.326   2.396  15.471 -1.1837 -0.1417 -0.3616
   15DOPE   C28 1857   7.387   2.269  15.312 -0.5621 -0.2022  0.0729
   15DOPE   H8R 1858   7.419   2.163  15.305 -0.3928 -0.2529  1.3843
   15DOPE   H8S 1859   7.473   2.327  15.271 -0.0349  0.3002  1.8122
   15DOPE   C29 1860   7.262   2.287  15.226 -0.6159 -0.3046  0.5070
   15DOPE   H9R 1861   7.190   2.208  15.251  0.6296 -1.0466  1.9484
   15DOPE  C210 1862   7.239   2.390  15.144  0.6418 -0.7739 -0.1855
   15DOPE  H10R 1863   7.143   2.401  15.093  0.9585  0.2204 -0.5948
   15DOPE  C211 1864   7.334   2.496  15.107 -0.3395 -0.3845  0.1108
   15DOPE  H11R 1865   7.430   2.495  15.163 -1.2604  3.0273  2.0721
   15DOPE  H11S 1866   7.290   2.592  15.144  0.1849 -0.0468 -0.1284
   15DOPE  C212 1867   7.357   2.512  14.952 -0.3115  0.2121 -0.4598
   15DOPE  H12R 1868   7.430   2.594  14.935 -2.1607  1.8488 -0.7718
   15DOPE  H12S 1869   7.257   2.532  14.908 -0.7729 -1.1128 -0.0578
   15DOPE  C213 1870   7.418   2.388  14.885 -0.0717 -0.0457 -0.3275
   15DOPE  H13R 1871   7.337   2.312  14.885 -0.1700 -0.0663 -3.4091
   15DOPE  H13S 1872   7.506   2.354  14.945 -1.6353  0.3450  2.3659
   15DOPE  C214 1873   7.460   2.435  14.742 -0.6793 -0.3326 -0.6079
   15DOPE  H14R 1874   7.543   2.508  14.749 -0.2389 -0.9639  1.4779
   15DOPE  H14S 1875   7.376   2.492  14.697 -1.4710  0.6391  1.9042
   15DOPE  C215 1876   7.497   2.328  14.640  0.2463 -0.1403 -0.1961
   15DOPE  H15R 1877   7.429   2.240  14.637 -0.2242  0.0953  1.8469
   15DOPE  H15S 1878   7.597   2.290  14.669  0.1227 -0.2193  0.1388
   15DOPE  C216 1879   7.512   2.375  14.492  0.2408  0.4451  0.7039
   15DOPE  H16R 1880   7.576   2.306  14.433 -0.5915 -0.1101  0.4506
   15DOPE  H16S 1881   7.566   2.473  14.490  0.0810  0.5511  1.2733
   15DOPE  C217 1882   7.377   2.396  14.423 -0.0448  0.1945  0.0272
   15DOPE  H17R 1883   7.322   2.475  14.479  0.9145  1.2780 -0.5089
   15DOPE  H17S 1884   7.339   2.293  14.410  3.1290 -1.1159  0.1892
   15DOPE  C218 1885   7.381   2.452  14.281  0.3914  0.2756  0.0093
   15DOPE  H18R 1886   7.280   2.454  14.234  0.6065  0.0848 -0.4681
   15DOPE  H18S 1887   7.427   2.385  14.206 -3.0764 -0.6433 -1.4817
   15DOPE  H18T 1888   7.427   2.553  14.277 -1.1491  0.9999 -0.1380
   15DOPE   C33 1889   7.006   2.630  15.570 -0.6633  0.2794  0.9648
   15DOPE   H3X 1890   7.088   2.578  15.624  1.0021  1.9806  0.1961
   15DOPE   H3Y 1891   7.015   2.740  15.584  2.0997  0.6178 -2.1333
   15DOPE   C34 1892   7.040   2.619  15.420 -0.1909 -0.5172  0.8031
   15DOPE   H4X 1893   7.146   2.644  15.398 -0.3756 -1.5589 -1.6570
   15DOPE   H4Y 1894   7.021   2.514  15.390  0.7572 -0.6036  0.4727
   15DOPE   C35 1895   6.965   2.712  15.317 -0.1851 -0.0347 -0.1243
   15DOPE   H5X 1896   7.007   2.814  15.314 -0.1090 -0.0879 -1.7238
   15DOPE   H5Y 1897   6.860   2.725  15.350  0.2684  2.5302  0.5276
   15DOPE   C36 1898   6.976   2.660  15.175  0.1873 -0.2907 -0.8541
   15DOPE   H6X 1899   6.958   2.550  15.176 -3.2096  0.1408  0.1155
   15DOPE   H6Y 1900   7.082   2.672  15.146  0.6376  0.5161  0.9567
   15DOPE   C37 1901   6.884   2.736  15.080 -0.4479  0.4995 -0.3794
   15DOPE   H7X 1902   6.779   2.712  15.110 -0.3736  1.0414  0.3391
   15DOPE   H7Y 1903   6.895   2.844  15.099 -1.3161  0.9181 -2.0913
   15DOPE   C38 1904   6.897   2.700  14.933 -0.5652  0.0396 -0.2807
   15DOPE   H8X 1905   6.980   2.760  14.890 -2.4357  3.7357  0.8230
   15DOPE   H8Y 1906   6.808   2.743  14.881 -0.1902  0.7801 -0.3325
   15DOPE   C39 1907   6.903   2.554  14.905  0.5945 -0.4520 -0.5321
   15DOPE   H9X 1908   7.002   2.505  14.905  1.0281  0.2738 -2.8822
   15DOPE  C310 1909   6.791   2.481  14.879 -0.7162  0.8307  0.3326
   15DOPE  H10X 1910   6.800   2.371  14.877  0.3307  0.8976 -2.2053
   15DOPE  C311 1911   6.653   2.538  14.877 -0.1219  0.1123 -0.2826
   15DOPE  H11X 1912   6.584   2.474  14.936 -0.0655  0.9843  0.7624
   15DOPE  H11Y 1913   6.647   2.635  14.931 -1.0297 -0.7504  1.2361
   15DOPE  C312 1914   6.579   2.575  14.745  0.1389  0.3405 -0.7474
   15DOPE  H12X 1915   6.608   2.673  14.702 -0.0284 -0.2565 -2.3040
   15DOPE  H12Y 1916   6.470   2.588  14.765  0.1958  0.5777 -0.5898
   15DOPE  C313 1917   6.592   2.464  14.632  0.1853  0.0513 -0.1949
   15DOPE  H13X 1918   6.699   2.460  14.604  0.8098 -0.8502  2.0941
   15DOPE  H13Y 1919   6.562   2.368  14.680  1.6152 -0.2684  0.0930
   15DOPE  C314 1920   6.504   2.494  14.513 -0.4282 -0.2525  0.5070
   15DOPE  H14X 1921   6.543   2.583  14.459  0.5264 -0.3744  0.9726
   15DOPE  H14Y 1922   6.407   2.530  14.555 -0.4492  0.9927 -0.5327
   15DOPE  C315 1923   6.499   2.384  14.402  0.1132  0.4887 -0.2051
   15DOPE  H15X 1924   6.463   2.291  14.450 -2.0646  1.5461  0.2997
   15DOPE  H15Y 1925   6.602   2.361  14.364 -0.2562 -2.1984  0.2324
   15DOPE  C316 1926   6.407   2.411  14.281 -0.5231  0.0457 -0.1208
   15DOPE  H16X 1927   6.299   2.406  14.309 -0.4677 -1.2086 -0.0773
   15DOPE  H16Y 1928   6.413   2.329  14.205  1.0136  1.0363 -1.1200
   15DOPE  C317 1929   6.448   2.536  14.200 -0.1865 -0.3610 -0.1305
   15DOPE  H17X 1930   6.362   2.567  14.136  0.6310 -1.4075 -1.7827
   15DOPE  H17Y 1931   6.476   2.622  14.265 -1.7984  0.2410 -0.1790
   15DOPE  C318 1932   6.566   2.513  14.102  0.4990  0.1115 -0.2405
   15DOPE  H18X 1933   6.643   2.449  14.150  2.9703  1.8524 -1.5970
   15DOPE  H18Y 1934   6.528   2.449  14.019 -0.4214 -0.7082  0.7932
   15DOPE  H18Z 1935   6.618   2.604  14.065  0.7078 -0.2249 -0.7923
   16DOPE     N 1936   2.223   2.557  17.366  0.7203  0.4105 -0.4438
   16DOPE   HN1 1937   2.252   2.470  17.318  1.2581  0.6901 -0.6288
   16DOPE   HN2 1938   2.297   2.582  17.435  0.1552 -0.1339  0.3860
   16DOPE   HN3 1939   2.132   2.548  17.416  0.7596 -2.0757 -0.6822
   16DOPE   C12 1940   2.218   2.657  17.249 -0.0381  0.3010 -0.7903
   16DOPE  H12A 1941   2.162   2.745  17.287  2.0395  1.2949  0.1455
   16DOPE  H12B 1942   2.168   2.605  17.165 -2.5314 -0.6485  1.1157
   16DOPE   C11 1943   2.360   2.690  17.206 -0.2776 -0.9547  1.1013
   16DOPE  H11A 1944   2.411   2.752  17.283 -0.0451  1.1793 -0.6692
   16DOPE  H11B 1945   2.342   2.749  17.114  1.0158 -1.0437  0.7648
   16DOPE     P 1946   2.508   2.537  17.045 -0.1991  0.1665 -0.0425
   16DOPE   O13 1947   2.509   2.392  17.047 -0.0033  0.1143 -0.2508
   16DOPE   O14 1948   2.636   2.609  17.040  0.1375  0.0070  0.5794
   16DOPE   O11 1949   2.404   2.596  16.941 -0.0058 -0.0349  0.8727
   16DOPE   O12 1950   2.436   2.574  17.180 -0.1802  0.4707  0.1087
   16DOPE    C1 1951   2.276   2.523  16.930  0.3769 -0.2225  0.5358
   16DOPE    HA 1952   2.200   2.598  16.899  1.2019  1.1282  1.6605
   16DOPE    HB 1953   2.245   2.466  17.019  1.7177 -2.0921 -0.1116
   16DOPE    C2 1954   2.272   2.420  16.807  0.5730 -0.4055 -0.2067
   16DOPE    HS 1955   2.359   2.354  16.829  1.0482 -0.0999 -1.1051
   16DOPE   O21 1956   2.296   2.496  16.685  0.1267 -1.0104 -0.9402
   16DOPE   C21 1957   2.411   2.475  16.627  0.2668  0.6300  0.6313
   16DOPE   O22 1958   2.505   2.412  16.671 -0.1360 -0.1833 -0.6402
   16DOPE   C22 1959   2.404   2.508  16.480  0.1741 -0.4548  0.1494
   16DOPE   H2R 1960   2.405   2.617  16.463  1.8851 -0.2776  1.1825
   16DOPE   H2S 1961   2.319   2.444  16.448  1.2175 -2.0886  0.4808
   16DOPE    C3 1962   2.140   2.337  16.791  0.0565 -0.5158  0.9536
   16DOPE    HX 1963   2.063   2.415  16.776 -1.8386 -1.9117  2.7238
   16DOPE    HY 1964   2.107   2.277  16.879  0.3351 -2.6031 -0.2961
   16DOPE   O31 1965   2.159   2.242  16.678 -0.3175 -0.4038  0.5867
   16DOPE   C31 1966   2.048   2.182  16.636  0.0862 -0.5520  0.4958
   16DOPE   O32 1967   1.939   2.191  16.686  0.1621  0.6317  0.1107
   16DOPE   C32 1968   2.076   2.115  16.501 -0.8245  0.2939  0.4554
   16DOPE   H2X 1969   2.119   2.197  16.440 -0.8163  0.7400  1.0474
   16DOPE   H2Y 1970   2.145   2.031  16.525 -2.0274 -1.4501 -1.7692
   16DOPE   C23 1971   2.520   2.453  16.392  0.2767  0.1234  0.3860
   16DOPE   H3R 1972   2.521   2.342  16.396 -1.9209 -0.0966 -2.2816
   16DOPE   H3S 1973   2.620   2.489  16.424 -0.2366  0.4692  1.6606
   16DOPE   C24 1974   2.509   2.497  16.244 -0.1238  0.4712  0.3765
   16DOPE   H4R 1975   2.603   2.459  16.199  2.2698  1.2631  4.2989
   16DOPE   H4S 1976   2.519   2.606  16.226 -2.0978  0.7267  0.5809
   16DOPE   C25 1977   2.377   2.445  16.178  0.2253 -0.5790 -0.5684
   16DOPE   H5R 1978   2.300   2.504  16.231  0.6175 -1.0700  0.5952
   16DOPE   H5S 1979   2.361   2.341  16.213 -2.9055  0.2578  0.8493
   16DOPE   C26 1980   2.367   2.444  16.028  0.6663 -0.0263  0.0961
   16DOPE   H6R 1981   2.267   2.406  15.998 -0.2093  0.8539  1.7726
   16DOPE   H6S 1982   2.446   2.377  15.989  1.0811  0.6139 -0.1817
   16DOPE   C27 1983   2.390   2.581  15.959  0.0385  0.2105  0.0957
   16DOPE   H7R 1984   2.487   2.620  15.994 -0.3179 -0.0926  1.5029
   16DOPE   H7S 1985   2.311   2.654  15.987  0.9799  1.8891 -1.5126
   16DOPE   C28 1986   2.379   2.570  15.808  0.0725  1.1171 -0.4132
   16DOPE   H8R 1987   2.343   2.667  15.768 -1.1726 -0.3529 -3.1098
   16DOPE   H8S 1988   2.298   2.496  15.791  1.4833 -0.1491 -2.0318
   16DOPE   C29 1989   2.505   2.513  15.737 -0.4377 -0.5455  0.7108
   16DOPE   H9R 1990   2.578   2.465  15.804  1.1025  0.8142  0.0750
   16DOPE  C210 1991   2.550   2.538  15.607 -0.2519 -0.2571 -0.8982
   16DOPE  H10R 1992   2.636   2.475  15.580  3.3744  3.5646  0.5347
   16DOPE  C211 1993   2.491   2.636  15.508 -0.1272  0.1308  0.0065
   16DOPE  H11R 1994   2.396   2.675  15.551 -0.5938  0.5737 -1.3891
   16DOPE  H11S 1995   2.462   2.601  15.407 -0.8066 -0.5924  0.4420
   16DOPE  C212 1996   2.584   2.758  15.479  0.0550 -0.1745  0.1016
   16DOPE  H12R 1997   2.610   2.788  15.583 -1.9381 -1.3024  0.9819
   16DOPE  H12S 1998   2.512   2.829  15.434 -0.2751  0.3588  1.4155
   16DOPE  C213 1999   2.695   2.734  15.383  0.1059 -0.6870 -1.0991
   16DOPE  H13R 2000   2.661   2.667  15.301 -1.0178 -0.6270 -0.7082
   16DOPE  H13S 2001   2.770   2.680  15.446 -1.9385 -1.6735  0.6504
   16DOPE  C214 2002   2.753   2.862  15.329 -0.1632  0.3987 -0.3037
   16DOPE  H14R 2003   2.816   2.908  15.408 -1.4702 -0.0052  1.0108
   16DOPE  H14S 2004   2.668   2.933  15.319 -1.1110 -0.4102  1.5641
   16DOPE  C215 2005   2.830   2.855  15.196 -0.0296 -0.3272 -0.0721
   16DOPE  H15R 2006   2.766   2.798  15.126 -0.3049 -0.4009  0.2386
   16DOPE  H15S 2007   2.930   2.805  15.199  0.1494 -0.0824 -1.3932
   16DOPE  C216 2008   2.857   2.994  15.125 -0.7567 -0.6794  0.0170
   16DOPE  H16R 2009   2.937   3.047  15.181 -0.3399 -0.6034 -0.6448
   16DOPE  H16S 2010   2.771   3.065  15.126  1.0814  1.6595  1.0356
   16DOPE  C217 2011   2.918   2.979  14.984  0.2595  0.5248 -0.1373
   16DOPE  H17R 2012   2.861   2.906  14.921 -1.6995  1.5274  0.4076
   16DOPE  H17S 2013   3.015   2.928  15.004 -0.1603 -1.2751 -2.2613
   16DOPE  C218 2014   2.942   3.115  14.924  0.6329  0.3047  0.2213
   16DOPE  H18R 2015   2.971   3.199  14.990 -1.3969  0.3645  1.1297
   16DOPE  H18S 2016   2.852   3.160  14.876  0.2861 -1.2566 -0.6708
   16DOPE  H18T 2017   3.017   3.113  14.843 -1.7657  0.3134 -2.1392
   16DOPE   C33 2018   1.951   2.067  16.428 -0.1434 -0.1705 -0.5245
   16DOPE   H3X 2019   1.887   2.157  16.415  0.9675  0.4839 -1.6077
   16DOPE   H3Y 2020   1.889   2.000  16.491  0.5435  1.5854  2.2196
   16DOPE   C34 2021   1.987   1.996  16.297 -0.1484 -0.7562 -0.3315
   16DOPE   H4X 2022   2.055   1.908  16.299  0.5792 -0.2118 -0.7142
   16DOPE   H4Y 2023   1.891   1.969  16.248  0.9095  0.5315 -3.3614
   16DOPE   C35 2024   2.048   2.097  16.202  0.5932 -0.1216 -0.2288
   16DOPE   H5X 2025   2.156   2.102  16.229 -0.1484  1.4855  3.0427
   16DOPE   H5Y 2026   2.004   2.197  16.222 -0.7076 -0.6878 -0.1695
   16DOPE   C36 2027   2.046   2.050  16.051 -0.1276  0.1713 -0.5881
   16DOPE   H6X 2028   1.944   2.048  16.007 -0.4660  0.1642  0.1749
   16DOPE   H6Y 2029   2.088   1.947  16.053 -1.0305 -0.1976  0.5616
   16DOPE   C37 2030   2.132   2.133  15.963  0.5037 -0.1428 -0.0739
   16DOPE   H7X 2031   2.088   2.233  15.944 -0.5090 -0.2136  1.6162
   16DOPE   H7Y 2032   2.231   2.149  16.010 -0.1926  2.4196  0.6833
   16DOPE   C38 2033   2.154   2.063  15.828  0.0773  0.5679  0.2032
   16DOPE   H8X 2034   2.050   2.033  15.802  0.3956 -0.6880  0.3454
   16DOPE   H8Y 2035   2.208   1.973  15.863 -1.9304 -1.8959 -2.5760
   16DOPE   C39 2036   2.221   2.136  15.716 -0.0080  0.3795  0.0551
   16DOPE   H9X 2037   2.236   2.244  15.726 -1.9498  0.5697  1.5173
   16DOPE  C310 2038   2.249   2.074  15.602 -0.5992 -0.2708 -0.1609
   16DOPE  H10X 2039   2.307   2.130  15.526 -0.2744  0.6950  0.7795
   16DOPE  C311 2040   2.246   1.923  15.574 -0.0810  0.7201  0.4458
   16DOPE  H11X 2041   2.320   1.859  15.627 -1.0335 -1.2585 -0.5148
   16DOPE  H11Y 2042   2.150   1.877  15.605 -0.9337  1.9153 -0.3325
   16DOPE  C312 2043   2.293   1.899  15.433 -0.0855 -0.3931  0.5172
   16DOPE  H12X 2044   2.310   1.793  15.406  1.8968 -0.1237  0.5778
   16DOPE  H12Y 2045   2.389   1.940  15.396 -1.9262  2.9780 -1.0474
   16DOPE  C313 2046   2.174   1.923  15.335 -0.6994  0.1556  0.5132
   16DOPE  H13X 2047   2.101   1.839  15.327  0.5112 -0.9096  0.3418
   16DOPE  H13Y 2048   2.127   2.019  15.367 -1.1827  0.7732 -1.8351
   16DOPE  C314 2049   2.224   1.943  15.190 -0.1457  0.0678 -0.1784
   16DOPE  H14X 2050   2.140   1.961  15.120 -0.0433  0.2065 -0.2669
   16DOPE  H14Y 2051   2.270   1.852  15.145 -0.9839 -0.0247 -0.8929
   16DOPE  C315 2052   2.310   2.066  15.170 -0.2904 -0.0783  0.1563
   16DOPE  H15X 2053   2.415   2.047  15.201  0.8647  0.8517 -2.8190
   16DOPE  H15Y 2054   2.266   2.151  15.227  2.5058  1.6919 -0.1270
   16DOPE  C316 2055   2.310   2.110  15.019  0.3272 -0.2148 -0.6040
   16DOPE  H16X 2056   2.225   2.178  14.998  0.4488 -0.0963 -0.7173
   16DOPE  H16Y 2057   2.287   2.019  14.959  0.2526 -1.6240  1.4656
   16DOPE  C317 2058   2.437   2.175  14.947  0.4531  0.4904 -0.3724
   16DOPE  H17X 2059   2.451   2.276  14.993  0.8499 -0.4892  1.7495
   16DOPE  H17Y 2060   2.532   2.119  14.960  0.0624 -0.0119  0.3447
   16DOPE  C318 2061   2.402   2.196  14.798  0.1041 -0.1101 -0.7839
   16DOPE  H18X 2062   2.395   2.095  14.754 -0.0980 -1.1932  1.5969
   16DOPE  H18Y 2063   2.302   2.244  14.797  0.6113  1.0979  0.9427
   16DOPE  H18Z 2064   2.472   2.260  14.740  0.0921  0.1108 -0.5591
   17DOPE     N 2065   1.734   0.512  16.590 -0.0100 -0.3993 -0.1220
   17DOPE   HN1 2066   1.789   0.529  16.676  0.1340  2.4041 -0.6844
   17DOPE   HN2 2067   1.701   0.413  16.591  1.6717 -1.0084 -0.7666
   17DOPE   HN3 2068   1.790   0.521  16.503  0.7177  0.7857  0.4500
   17DOPE   C12 2069   1.612   0.606  16.585  0.4451 -0.5837 -0.4042
   17DOPE  H12A 2070   1.655   0.705  16.560  0.4693 -0.8486 -1.4858
   17DOPE  H12B 2071   1.570   0.601  16.687  0.2049 -0.8503 -0.5132
   17DOPE   C11 2072   1.513   0.571  16.468 -0.4994  0.4729  0.2270
   17DOPE  H11A 2073   1.484   0.464  16.469  4.1838 -1.0409  2.1142
   17DOPE  H11B 2074   1.570   0.576  16.374 -0.5252 -0.0972  0.1762
   17DOPE     P 2075   1.411   0.814  16.418 -0.2198  0.2111 -0.0637
   17DOPE   O13 2076   1.492   0.891  16.519 -0.3761 -0.3001  0.5731
   17DOPE   O14 2077   1.278   0.878  16.395  0.1496 -0.0981 -0.7849
   17DOPE   O11 2078   1.480   0.823  16.282 -0.1359 -0.2248 -0.2470
   17DOPE   O12 2079   1.401   0.658  16.460  0.1520 -0.2698  0.2722
   17DOPE    C1 2080   1.462   0.726  16.175  0.5416 -0.4644 -0.1785
   17DOPE    HA 2081   1.451   0.620  16.206  0.6111  0.1036  1.9374
   17DOPE    HB 2082   1.552   0.736  16.111  0.6118 -0.6243 -0.1061
   17DOPE    C2 2083   1.335   0.758  16.097  0.8078 -0.6982  0.1769
   17DOPE    HS 2084   1.261   0.788  16.175  3.3279  4.0790  1.1861
   17DOPE   O21 2085   1.285   0.638  16.026  0.3765 -0.1363 -0.7322
   17DOPE   C21 2086   1.155   0.646  15.985  0.0329 -0.3168  0.0760
   17DOPE   O22 2087   1.077   0.730  16.026  0.2787 -0.1013  0.0249
   17DOPE   C22 2088   1.122   0.524  15.895 -0.6408 -0.5826  0.5257
   17DOPE   H2R 2089   1.110   0.430  15.952  0.9037 -1.2336 -0.1797
   17DOPE   H2S 2090   1.209   0.517  15.826  0.4289  1.3128  1.6118
   17DOPE    C3 2091   1.353   0.878  16.001 -0.2683  0.0766  0.7549
   17DOPE    HX 2092   1.391   0.969  16.050 -0.4917  1.6149 -1.7260
   17DOPE    HY 2093   1.253   0.909  15.964 -0.6972 -1.4044  0.5740
   17DOPE   O31 2094   1.455   0.831  15.900  0.0033 -0.9130  0.0667
   17DOPE   C31 2095   1.406   0.808  15.782  0.5819 -0.1620 -0.1351
   17DOPE   O32 2096   1.287   0.832  15.750  0.0489  0.1794  0.4937
   17DOPE   C32 2097   1.496   0.717  15.712  0.1905 -0.7475  0.4741
   17DOPE   H2X 2098   1.601   0.738  15.741  1.1413  0.0750 -3.0618
   17DOPE   H2Y 2099   1.467   0.615  15.743  1.0924 -1.5728 -1.2103
   17DOPE   C23 2100   1.000   0.547  15.801  0.0697 -0.5535  0.2896
   17DOPE   H3R 2101   1.001   0.647  15.753  1.5808 -1.0091 -0.7006
   17DOPE   H3S 2102   0.902   0.543  15.854 -0.0832 -2.9964 -0.0426
   17DOPE   C24 2103   0.986   0.437  15.694 -0.1493  0.0970  0.4481
   17DOPE   H4R 2104   0.883   0.438  15.652 -0.2726 -1.4551  0.6518
   17DOPE   H4S 2105   0.994   0.340  15.748  0.1804 -0.0109  0.2101
   17DOPE   C25 2106   1.097   0.447  15.585 -0.3542 -0.5570 -0.4116
   17DOPE   H5R 2107   1.187   0.391  15.620  0.0833 -0.9401 -2.0699
   17DOPE   H5S 2108   1.125   0.552  15.562 -1.9396  0.2793  1.2294
   17DOPE   C26 2109   1.057   0.379  15.455 -0.3896 -0.1041  0.5496
   17DOPE   H6R 2110   0.977   0.438  15.407 -0.4697 -0.3055  0.4295
   17DOPE   H6S 2111   1.020   0.276  15.474  0.7119 -0.4029  1.1517
   17DOPE   C27 2112   1.168   0.365  15.353  0.1379 -0.2116 -0.1640
   17DOPE   H7R 2113   1.142   0.298  15.268  1.0344  0.2759 -0.8437
   17DOPE   H7S 2114   1.249   0.316  15.411  0.6503 -1.6406 -1.9649
   17DOPE   C28 2115   1.209   0.499  15.284 -0.4291  0.8562  0.3399
   17DOPE   H8R 2116   1.232   0.579  15.359 -1.4452  0.3279  1.2450
   17DOPE   H8S 2117   1.119   0.520  15.223  0.1151 -2.0402 -1.6206
   17DOPE   C29 2118   1.328   0.470  15.192 -0.3521 -0.3054  0.4576
   17DOPE   H9R 2119   1.406   0.414  15.248  0.7754  0.3643 -0.4044
   17DOPE  C210 2120   1.340   0.491  15.064 -0.4242  0.4804  0.2814
   17DOPE  H10R 2121   1.433   0.452  15.020 -1.4483  0.4451 -1.9630
   17DOPE  C211 2122   1.240   0.572  14.985 -0.5055 -0.2746  0.2566
   17DOPE  H11R 2123   1.286   0.669  14.957 -2.0122  0.2965 -0.3238
   17DOPE  H11S 2124   1.153   0.599  15.049  1.1957  1.8519  1.8107
   17DOPE  C212 2125   1.206   0.499  14.850  0.0411  0.3075  0.9064
   17DOPE  H12R 2126   1.131   0.571  14.812  1.2314  0.0629 -2.1621
   17DOPE  H12S 2127   1.163   0.397  14.864  2.5414 -1.2131 -1.5948
   17DOPE  C213 2128   1.322   0.490  14.743  0.0418  0.1617  0.8224
   17DOPE  H13R 2129   1.405   0.431  14.787 -0.7467 -0.1590  1.9103
   17DOPE  H13S 2130   1.367   0.591  14.729  0.6446 -0.1450  0.4793
   17DOPE  C214 2131   1.283   0.434  14.607 -0.3310 -0.4570 -0.2343
   17DOPE  H14R 2132   1.196   0.484  14.560  0.3627  0.7989 -0.2364
   17DOPE  H14S 2133   1.266   0.325  14.621  0.0718 -0.3646  1.1483
   17DOPE  C215 2134   1.388   0.469  14.509  0.0244 -0.0923  0.6144
   17DOPE  H15R 2135   1.485   0.454  14.561  0.0619 -1.5027  0.2006
   17DOPE  H15S 2136   1.384   0.576  14.480 -2.1250  0.0227  1.1554
   17DOPE  C216 2137   1.388   0.383  14.381 -0.0847 -0.3625 -0.0454
   17DOPE  H16R 2138   1.453   0.439  14.311 -0.6475 -0.8350 -0.9540
   17DOPE  H16S 2139   1.281   0.375  14.352 -0.1627 -3.3045  0.6640
   17DOPE  C217 2140   1.439   0.245  14.410  0.1125  0.3719 -0.6113
   17DOPE  H17R 2141   1.372   0.209  14.492 -0.3385  2.6747  0.1026
   17DOPE  H17S 2142   1.545   0.252  14.441  0.0258  0.8109 -0.3987
   17DOPE  C218 2143   1.427   0.147  14.294  0.8107 -0.9053 -0.5098
   17DOPE  H18R 2144   1.323   0.148  14.255  0.4855 -1.3609  0.3199
   17DOPE  H18S 2145   1.465   0.049  14.328  0.5786  0.1214  3.1338
   17DOPE  H18T 2146   1.484   0.178  14.204 -2.3840  0.4091 -2.2221
   17DOPE   C33 2147   1.487   0.720  15.556  0.2177 -0.1722 -0.1224
   17DOPE   H3X 2148   1.483   0.828  15.529  0.8122 -0.4037 -1.2060
   17DOPE   H3Y 2149   1.400   0.664  15.516  1.8593 -1.3055 -2.3081
   17DOPE   C34 2150   1.601   0.664  15.471  0.2789  0.6738 -0.4182
   17DOPE   H4X 2151   1.697   0.694  15.517 -0.5210  1.4738  0.7689
   17DOPE   H4Y 2152   1.594   0.553  15.482 -1.1101  0.7638 -0.2446
   17DOPE   C35 2153   1.602   0.700  15.319 -0.0493 -0.0363  0.2274
   17DOPE   H5X 2154   1.588   0.810  15.317 -1.7502 -0.1752  1.7307
   17DOPE   H5Y 2155   1.518   0.649  15.266  0.3502 -2.4674  1.7773
   17DOPE   C36 2156   1.737   0.686  15.254  0.0367 -0.3379 -0.0081
   17DOPE   H6X 2157   1.758   0.577  15.241 -0.0098 -0.3070 -0.3552
   17DOPE   H6Y 2158   1.819   0.724  15.320  0.2556  0.1129 -0.5349
   17DOPE   C37 2159   1.733   0.751  15.118  0.9963  0.3451  0.6983
   17DOPE   H7X 2160   1.667   0.841  15.116  0.1012 -0.2883  0.8629
   17DOPE   H7Y 2161   1.831   0.795  15.089  0.7967  1.5953  1.7809
   17DOPE   C38 2162   1.676   0.657  15.010 -0.0689 -0.0530  0.1825
   17DOPE   H8X 2163   1.581   0.620  15.054 -0.4241 -0.8172 -1.1868
   17DOPE   H8Y 2164   1.753   0.577  15.002  2.2263  1.9425  1.0093
   17DOPE   C39 2165   1.641   0.707  14.875 -0.5285  0.5093 -0.3127
   17DOPE   H9X 2166   1.535   0.725  14.852 -1.5679 -2.6971  1.4026
   17DOPE  C310 2167   1.720   0.720  14.765 -0.2605 -0.2829 -0.3957
   17DOPE  H10X 2168   1.680   0.761  14.670 -0.1326  0.9498  0.0586
   17DOPE  C311 2169   1.867   0.684  14.749  0.6381 -0.8657  0.0924
   17DOPE  H11X 2170   1.925   0.776  14.730  0.6992 -0.3820  2.3362
   17DOPE  H11Y 2171   1.918   0.649  14.842 -2.8039 -1.7474  1.7867
   17DOPE  C312 2172   1.893   0.568  14.655  0.0434 -0.2642  0.4722
   17DOPE  H12X 2173   1.881   0.470  14.705 -0.1919 -0.8077 -0.6045
   17DOPE  H12Y 2174   2.000   0.578  14.628 -0.4414 -0.4521 -1.7065
   17DOPE  C313 2175   1.803   0.554  14.532  0.4403 -0.0655  0.5759
   17DOPE  H13X 2176   1.696   0.538  14.554  0.3059  0.1916  0.1213
   17DOPE  H13Y 2177   1.806   0.652  14.480  0.0220  0.2952  1.2212
   17DOPE  C314 2178   1.855   0.451  14.426  0.0711 -0.4146 -0.3609
   17DOPE  H14X 2179   1.857   0.354  14.481  0.9293 -0.1239  0.1509
   17DOPE  H14Y 2180   1.962   0.481  14.418  0.6171 -2.4179 -1.2885
   17DOPE  C315 2181   1.788   0.442  14.287  0.7811 -0.7347 -0.8447
   17DOPE  H15X 2182   1.776   0.538  14.232 -5.9820 -1.0755 -0.8088
   17DOPE  H15Y 2183   1.681   0.415  14.303  0.9497 -0.1050  1.9129
   17DOPE  C316 2184   1.864   0.344  14.192 -0.7281 -0.4168  0.3239
   17DOPE  H16X 2185   1.969   0.378  14.180 -0.1513 -2.2171 -0.1291
   17DOPE  H16Y 2186   1.822   0.358  14.090  2.1549 -0.5807 -0.9731
   17DOPE  C317 2187   1.852   0.197  14.238  0.2350  0.0507  0.4749
   17DOPE  H17X 2188   1.907   0.178  14.332  1.1698  1.5303  0.2686
   17DOPE  H17Y 2189   1.747   0.169  14.261 -0.1069  1.9630  1.4591
   17DOPE  C318 2190   1.912   0.105  14.130 -0.0969 -0.3786 -0.1080
   17DOPE  H18X 2191   1.883  -0.001  14.146  0.1708 -0.2820  1.0388
   17DOPE  H18Y 2192   1.890   0.126  14.023  0.9750 -0.7626 -0.4144
   17DOPE  H18Z 2193   2.023   0.106  14.132  0.0014 -0.4253 -2.4186
   18DOPE     N 2194   5.461   3.711  16.796  0.2476 -0.1355 -0.1740
   18DOPE   HN1 2195   5.498   3.778  16.726 -1.7356 -0.1155 -1.2759
   18DOPE   HN2 2196   5.359   3.696  16.780 -0.2767  0.8563  1.9789
   18DOPE   HN3 2197   5.471   3.740  16.895  0.6747  0.0812 -0.2794
   18DOPE   C12 2198   5.533   3.585  16.772  0.4134  0.0294 -0.3219
   18DOPE  H12A 2199   5.456   3.508  16.751 -0.0149  0.7781 -1.6434
   18DOPE  H12B 2200   5.589   3.554  16.863 -2.7058 -2.1422  1.0164
   18DOPE   C11 2201   5.628   3.610  16.659  0.2163 -0.0288  0.0568
   18DOPE  H11A 2202   5.695   3.522  16.645  0.2987  0.2852 -1.8379
   18DOPE  H11B 2203   5.710   3.684  16.672  1.9805 -1.7418 -0.7187
   18DOPE     P 2204   5.507   3.550  16.435  0.2833 -0.2916  0.1604
   18DOPE   O13 2205   5.420   3.620  16.339 -0.2806  0.0585  0.1012
   18DOPE   O14 2206   5.438   3.440  16.510 -0.0877 -0.2056 -0.1047
   18DOPE   O11 2207   5.638   3.491  16.367  0.2677 -0.2885 -0.1881
   18DOPE   O12 2208   5.560   3.650  16.541  0.2608 -0.3070  0.2477
   18DOPE    C1 2209   5.740   3.576  16.317 -0.4222 -0.0751  0.2481
   18DOPE    HA 2210   5.832   3.513  16.316 -0.0460  0.3263  2.8457
   18DOPE    HB 2211   5.767   3.661  16.382 -0.4343 -0.3286  0.5874
   18DOPE    C2 2212   5.714   3.630  16.178  0.8375 -0.0859 -0.2423
   18DOPE    HS 2213   5.626   3.696  16.193 -0.9813 -2.3655 -0.4266
   18DOPE   O21 2214   5.668   3.523  16.096  0.4806  0.2363  0.3371
   18DOPE   C21 2215   5.581   3.559  16.000 -0.5279  0.6862 -0.4668
   18DOPE   O22 2216   5.525   3.668  15.992  0.7788 -0.6105 -0.1838
   18DOPE   C22 2217   5.556   3.450  15.898  0.1381 -0.2862  0.2193
   18DOPE   H2R 2218   5.572   3.347  15.936 -0.4876 -0.5355 -0.1754
   18DOPE   H2S 2219   5.638   3.475  15.827  2.2472  0.2748  2.7140
   18DOPE    C3 2220   5.829   3.702  16.110 -0.2773  0.0007 -0.6410
   18DOPE    HX 2221   5.912   3.632  16.132 -1.0773 -0.5343  0.8172
   18DOPE    HY 2222   5.850   3.796  16.165  1.0398 -0.8765  0.4367
   18DOPE   O31 2223   5.819   3.725  15.969 -0.2094  0.2778 -0.2620
   18DOPE   C31 2224   5.750   3.830  15.927  0.0628 -0.1799  0.0156
   18DOPE   O32 2225   5.695   3.914  15.996  0.0819 -0.2303  0.5538
   18DOPE   C32 2226   5.753   3.848  15.775 -0.0752 -0.0139 -0.3428
   18DOPE   H2X 2227   5.861   3.866  15.758  0.1811 -1.4342 -0.3500
   18DOPE   H2Y 2228   5.713   3.759  15.721  0.7249 -0.5812 -0.0254
   18DOPE   C23 2229   5.412   3.469  15.851 -0.6575 -0.0637 -0.4968
   18DOPE   H3R 2230   5.398   3.565  15.798  0.6684 -0.5962 -1.9023
   18DOPE   H3S 2231   5.350   3.468  15.943 -0.7647  1.4669 -0.5356
   18DOPE   C24 2232   5.368   3.365  15.756 -0.0174  0.3485 -0.0695
   18DOPE   H4R 2233   5.263   3.379  15.724  0.4339 -0.2856 -1.9180
   18DOPE   H4S 2234   5.362   3.263  15.800  2.0655 -1.1768 -2.9801
   18DOPE   C25 2235   5.452   3.359  15.631  0.2401  0.4711 -0.2621
   18DOPE   H5R 2236   5.411   3.283  15.561  1.2743  0.3741 -0.7816
   18DOPE   H5S 2237   5.547   3.312  15.664 -0.3260  0.3643  1.2792
   18DOPE   C26 2238   5.450   3.486  15.542  0.1991  0.3497 -0.7250
   18DOPE   H6R 2239   5.527   3.553  15.586  2.3132 -3.1320  1.4129
   18DOPE   H6S 2240   5.358   3.542  15.566 -0.0169  0.5334 -1.9330
   18DOPE   C27 2241   5.474   3.470  15.394  0.3027  0.5361  0.5038
   18DOPE   H7R 2242   5.575   3.432  15.367  0.0785  0.9256 -0.9650
   18DOPE   H7S 2243   5.461   3.571  15.350  0.1850  0.1727 -0.3064
   18DOPE   C28 2244   5.374   3.380  15.318 -0.0652 -0.0151 -0.0901
   18DOPE   H8R 2245   5.399   3.273  15.339 -1.2803 -0.1641  0.6511
   18DOPE   H8S 2246   5.401   3.385  15.210  1.0634 -1.3235  0.0929
   18DOPE   C29 2247   5.234   3.403  15.372  0.1516  0.4376 -0.1352
   18DOPE   H9R 2248   5.202   3.371  15.472  1.6622 -0.6972  0.0072
   18DOPE  C210 2249   5.144   3.469  15.308 -0.5043  0.4118  0.0648
   18DOPE  H10R 2250   5.040   3.483  15.343 -0.4211 -0.3202  0.6299
   18DOPE  C211 2251   5.164   3.522  15.168 -0.3058  0.3620 -0.1167
   18DOPE  H11R 2252   5.271   3.524  15.137 -0.9405 -1.2838 -2.7431
   18DOPE  H11S 2253   5.134   3.628  15.158  0.3146  0.5027 -0.5738
   18DOPE  C212 2254   5.106   3.428  15.055 -0.1183 -0.3920 -0.3301
   18DOPE  H12R 2255   5.148   3.327  15.075  2.3377  1.1359  3.2402
   18DOPE  H12S 2256   5.157   3.460  14.961  2.4356 -0.4130  0.9447
   18DOPE  C213 2257   4.953   3.446  15.039 -0.1804 -0.3562 -0.5182
   18DOPE  H13R 2258   4.920   3.549  15.012 -0.6577 -0.6636 -1.1263
   18DOPE  H13S 2259   4.904   3.432  15.138 -0.2639  0.4276 -0.4422
   18DOPE  C214 2260   4.901   3.335  14.935  0.2409 -0.0061 -0.1478
   18DOPE  H14R 2261   4.950   3.241  14.968 -2.4479 -1.2035  0.6729
   18DOPE  H14S 2262   4.940   3.368  14.837 -2.0452  3.7883  0.0036
   18DOPE  C215 2263   4.746   3.316  14.946  0.6905  0.3688 -0.1435
   18DOPE  H15R 2264   4.702   3.413  14.915  4.1340  2.1874  0.1665
   18DOPE  H15S 2265   4.705   3.299  15.048  1.4981 -1.9660 -0.1637
   18DOPE  C216 2266   4.699   3.189  14.869  0.3528  0.1941  0.1687
   18DOPE  H16R 2267   4.742   3.101  14.921  0.4042  0.1326  0.0226
   18DOPE  H16S 2268   4.750   3.196  14.770 -1.3589 -1.6623 -0.9170
   18DOPE  C217 2269   4.547   3.182  14.855  0.2050 -0.2969  0.2130
   18DOPE  H17R 2270   4.499   3.215  14.950  1.0067  1.6397 -0.0012
   18DOPE  H17S 2271   4.517   3.082  14.817 -3.4086  0.7841 -0.1094
   18DOPE  C218 2272   4.506   3.287  14.751  0.5565  0.0120 -0.4601
   18DOPE  H18R 2273   4.401   3.264  14.725  0.1673 -0.0976  1.1178
   18DOPE  H18S 2274   4.574   3.283  14.664  1.6741  1.0232  0.3272
   18DOPE  H18T 2275   4.509   3.392  14.787  2.8695 -0.0426 -0.3608
   18DOPE   C33 2276   5.660   3.967  15.734  0.3090  0.0196 -0.3309
   18DOPE   H3X 2277   5.688   4.062  15.783  0.4026  0.5190 -1.3262
   18DOPE   H3Y 2278   5.559   3.941  15.771  0.6365 -0.8624 -0.0267
   18DOPE   C34 2279   5.663   4.005  15.581 -0.0271 -0.1159 -0.5882
   18DOPE   H4X 2280   5.583   4.080  15.563  2.0734  1.8461 -2.2139
   18DOPE   H4Y 2281   5.760   4.052  15.554  0.1277 -0.5343 -0.7707
   18DOPE   C35 2282   5.638   3.890  15.478 -0.2078  0.3331 -0.1915
   18DOPE   H5X 2283   5.549   3.835  15.515 -0.1785  0.8461  0.6663
   18DOPE   H5Y 2284   5.733   3.832  15.480  0.0289  0.7082  2.0256
   18DOPE   C36 2285   5.612   3.936  15.336  0.1804 -0.1300  0.7627
   18DOPE   H6X 2286   5.669   4.030  15.320 -0.8846  0.5411  0.7428
   18DOPE   H6Y 2287   5.502   3.954  15.333  0.0610 -0.8872  0.2894
   18DOPE   C37 2288   5.657   3.843  15.217  0.2764  0.2746 -0.6521
   18DOPE   H7X 2289   5.604   3.748  15.238  0.2701  0.2227 -0.8994
   18DOPE   H7Y 2290   5.617   3.887  15.123 -0.3747  0.8134 -0.1356
   18DOPE   C38 2291   5.807   3.826  15.195  0.4499 -0.2621  0.8139
   18DOPE   H8X 2292   5.827   3.722  15.163  1.4333  0.0536  0.3755
   18DOPE   H8Y 2293   5.852   3.826  15.297  0.5482 -0.1011  0.7712
   18DOPE   C39 2294   5.883   3.925  15.115  0.1958 -0.6522  0.5546
   18DOPE   H9X 2295   5.917   4.015  15.170  0.8400 -0.9364  0.6208
   18DOPE  C310 2296   5.888   3.922  14.981  0.3514  0.1443  0.0657
   18DOPE  H10X 2297   5.946   4.000  14.930  0.6123  0.7579  1.2700
   18DOPE  C311 2298   5.826   3.822  14.889 -0.2542  0.0343  0.6159
   18DOPE  H11X 2299   5.788   3.735  14.948 -0.0510 -0.9986 -0.7374
   18DOPE  H11Y 2300   5.741   3.855  14.826  0.5906  1.2884  0.1026
   18DOPE  C312 2301   5.929   3.766  14.789  0.1131 -0.5013 -0.5288
   18DOPE  H12X 2302   6.010   3.709  14.839  0.2118 -0.3730 -0.5423
   18DOPE  H12Y 2303   5.973   3.854  14.739  1.0564 -0.6063  0.0988
   18DOPE  C313 2304   5.874   3.663  14.692 -0.5279 -0.1228 -0.0215
   18DOPE  H13X 2305   5.820   3.579  14.740 -1.4470 -0.8197 -2.1556
   18DOPE  H13Y 2306   5.804   3.723  14.630 -1.1822  0.6765  1.4595
   18DOPE  C314 2307   5.984   3.599  14.597 -0.6810  0.5584 -0.3195
   18DOPE  H14X 2308   5.931   3.522  14.538 -0.5287 -0.6486  1.0635
   18DOPE  H14Y 2309   6.047   3.542  14.669 -2.1883  0.4862  0.9990
   18DOPE  C315 2310   6.057   3.705  14.507 -0.6599  0.5833  0.8869
   18DOPE  H15X 2311   6.133   3.767  14.560  0.8192 -2.3677  2.4309
   18DOPE  H15Y 2312   5.970   3.763  14.470 -0.0040  0.2812 -1.2779
   18DOPE  C316 2313   6.118   3.628  14.385 -0.2859  0.6362 -0.2388
   18DOPE  H16X 2314   6.042   3.571  14.328  1.5564 -2.1964 -0.0754
   18DOPE  H16Y 2315   6.197   3.565  14.431 -1.5861  0.2657  1.5660
   18DOPE  C317 2316   6.186   3.730  14.292  0.1819  0.0482 -0.0652
   18DOPE  H17X 2317   6.114   3.808  14.259  0.6881  0.6195  0.1732
   18DOPE  H17Y 2318   6.260   3.789  14.350  1.8223 -0.7268 -1.2700
   18DOPE  C318 2319   6.253   3.660  14.175  0.1103  0.5664  0.1441
   18DOPE  H18X 2320   6.169   3.611  14.120  0.1967 -0.1817  0.6695
   18DOPE  H18Y 2321   6.304   3.725  14.100 -0.6312 -1.4569 -2.2581
   18DOPE  H18Z 2322   6.318   3.580  14.216 -1.9810 -0.1820  2.2178
   19DOPE     N 2323   5.314   4.277  16.785 -0.5128 -1.1721 -0.3112
   19DOPE   HN1 2324   5.280   4.371  16.755  1.2433 -0.0619  1.0298
   19DOPE   HN2 2325   5.368   4.233  16.708 -1.3414  0.8262 -2.1416
   19DOPE   HN3 2326   5.232   4.213  16.787 -0.1730 -1.6260 -0.6468
   19DOPE   C12 2327   5.388   4.284  16.913 -0.2256 -0.1805 -0.2682
   19DOPE  H12A 2328   5.396   4.185  16.962  1.8715  0.3572  0.6151
   19DOPE  H12B 2329   5.332   4.344  16.989 -1.5794  0.4590 -1.7192
   19DOPE   C11 2330   5.533   4.329  16.893 -0.1335  0.3800  0.0021
   19DOPE  H11A 2331   5.591   4.331  16.987  1.7014 -1.3660 -1.0005
   19DOPE  H11B 2332   5.521   4.426  16.841 -1.1050 -0.5854 -1.6941
   19DOPE     P 2333   5.703   4.129  16.846 -0.3107  0.1498 -0.4842
   19DOPE   O13 2334   5.683   4.075  16.984 -0.1424  0.2109 -0.0440
   19DOPE   O14 2335   5.837   4.177  16.810  0.5563 -0.6681 -0.3442
   19DOPE   O11 2336   5.674   4.008  16.752  0.4725  0.2269  0.2740
   19DOPE   O12 2337   5.599   4.237  16.806 -0.8250  0.4258  0.6077
   19DOPE    C1 2338   5.651   4.022  16.607  0.1585  0.1508 -0.4434
   19DOPE    HA 2339   5.603   4.119  16.582  0.8774  1.0256  1.4327
   19DOPE    HB 2340   5.576   3.949  16.570 -1.2537  1.2818  0.1183
   19DOPE    C2 2341   5.781   4.026  16.518 -0.2145 -0.1285 -0.0573
   19DOPE    HS 2342   5.845   4.103  16.568 -0.7410  0.7103 -0.6441
   19DOPE   O21 2343   5.750   4.051  16.384 -0.3923  0.0874  0.4355
   19DOPE   C21 2344   5.775   4.177  16.335 -0.3029  0.2241 -0.6890
   19DOPE   O22 2345   5.796   4.274  16.401 -0.0479  0.1331 -0.9358
   19DOPE   C22 2346   5.773   4.177  16.183  0.0722  0.2977  0.0375
   19DOPE   H2R 2347   5.670   4.148  16.152  1.5815 -2.2608 -3.0673
   19DOPE   H2S 2348   5.823   4.081  16.157  0.9610  0.7666  0.0123
   19DOPE    C3 2349   5.864   3.896  16.526  0.0467 -0.0395  0.3659
   19DOPE    HX 2350   5.780   3.824  16.521  0.2608 -0.3846  1.4694
   19DOPE    HY 2351   5.918   3.896  16.623  2.4566 -0.2654 -0.9029
   19DOPE   O31 2352   5.952   3.882  16.414  0.4563  0.3720  0.3969
   19DOPE   C31 2353   6.058   3.959  16.404 -0.0652  0.0923 -0.3957
   19DOPE   O32 2354   6.080   4.062  16.468 -0.4110  0.7795 -0.2662
   19DOPE   C32 2355   6.148   3.911  16.288 -0.1366 -0.3276  0.5144
   19DOPE   H2X 2356   6.254   3.918  16.320 -0.3812 -0.2422  1.3393
   19DOPE   H2Y 2357   6.124   3.808  16.255 -0.4989  0.0836 -0.5581
   19DOPE   C23 2358   5.812   4.301  16.107  0.0268 -0.3224 -0.2348
   19DOPE   H3R 2359   5.923   4.310  16.113 -0.0621  0.1021  1.3573
   19DOPE   H3S 2360   5.760   4.386  16.156  2.8349  1.7467 -0.5863
   19DOPE   C24 2361   5.775   4.293  15.963 -0.0337 -0.2879 -0.5021
   19DOPE   H4R 2362   5.669   4.262  15.961 -0.2522  0.3382  0.6520
   19DOPE   H4S 2363   5.833   4.208  15.922 -0.4002 -0.3942 -0.7991
   19DOPE   C25 2364   5.788   4.424  15.880 -0.2189  0.0558  0.7586
   19DOPE   H5R 2365   5.890   4.470  15.888 -0.7268  0.8922  3.3790
   19DOPE   H5S 2366   5.717   4.496  15.925 -0.2381 -0.4836  1.6228
   19DOPE   C26 2367   5.781   4.400  15.730 -0.4250  0.0350 -0.2590
   19DOPE   H6R 2368   5.707   4.328  15.689  0.2478 -0.8585  0.0667
   19DOPE   H6S 2369   5.879   4.360  15.698 -0.8781  0.0646 -1.7574
   19DOPE   C27 2370   5.768   4.537  15.661 -0.4503  0.0349  0.2140
   19DOPE   H7R 2371   5.706   4.605  15.723  0.9722  1.4977  0.0844
   19DOPE   H7S 2372   5.714   4.517  15.566 -1.0796  3.1904 -0.1952
   19DOPE   C28 2373   5.901   4.606  15.631 -0.0961  0.1928 -0.2837
   19DOPE   H8R 2374   5.970   4.529  15.590 -2.7663 -0.8037 -3.3689
   19DOPE   H8S 2375   5.953   4.646  15.721  2.4471  0.1236 -1.6204
   19DOPE   C29 2376   5.894   4.725  15.540  0.2682 -0.2143 -0.3954
   19DOPE   H9R 2377   5.829   4.806  15.575  0.3055 -0.7011  0.8451
   19DOPE  C210 2378   5.934   4.729  15.410  0.2693  0.4360 -0.3140
   19DOPE  H10R 2379   5.917   4.819  15.349  0.7320  0.1933 -0.7987
   19DOPE  C211 2380   5.995   4.611  15.339 -0.1355  0.1368 -0.0510
   19DOPE  H11R 2381   5.971   4.514  15.387 -0.2780 -2.5732 -4.9211
   19DOPE  H11S 2382   6.104   4.628  15.334 -0.1978  0.4564 -0.3966
   19DOPE  C212 2383   5.962   4.615  15.186 -0.4054  0.8419  0.4827
   19DOPE  H12R 2384   5.978   4.720  15.152  0.8216  0.4139 -0.3366
   19DOPE  H12S 2385   5.855   4.587  15.182  0.1003 -1.1047 -0.9560
   19DOPE  C213 2386   6.038   4.510  15.105 -0.1735  0.5243  0.0027
   19DOPE  H13R 2387   6.009   4.407  15.136  0.0965  0.0443 -1.2577
   19DOPE  H13S 2388   6.149   4.520  15.111  0.3369 -2.7704 -1.5657
   19DOPE  C214 2389   6.001   4.517  14.958 -0.5359  0.0269 -0.1048
   19DOPE  H14R 2390   6.028   4.612  14.907  0.3455  0.0834  0.4464
   19DOPE  H14S 2391   5.891   4.506  14.954 -0.9906  3.4982 -0.7753
   19DOPE  C215 2392   6.079   4.405  14.890  0.5921  0.4551  0.3108
   19DOPE  H15R 2393   6.041   4.308  14.928  0.8933  1.1083  2.3908
   19DOPE  H15S 2394   6.186   4.416  14.916  0.6197  1.6481 -0.2379
   19DOPE  C216 2395   6.060   4.402  14.738  0.0476 -0.0865 -0.0432
   19DOPE  H16R 2396   5.953   4.411  14.709  0.2082  0.9976 -0.3452
   19DOPE  H16S 2397   6.095   4.304  14.699 -0.2732 -0.1187 -0.2614
   19DOPE  C217 2398   6.144   4.515  14.668  0.3131  0.1473  0.0704
   19DOPE  H17R 2399   6.250   4.491  14.690  0.2725 -0.7787 -0.6876
   19DOPE  H17S 2400   6.131   4.616  14.713  0.9740  0.1239  0.3303
   19DOPE  C218 2401   6.130   4.529  14.515  0.3168  0.5790  0.3973
   19DOPE  H18R 2402   6.026   4.560  14.490 -0.2527  0.3164  2.2410
   19DOPE  H18S 2403   6.148   4.430  14.469 -2.0539  0.3460 -0.1568
   19DOPE  H18T 2404   6.198   4.606  14.473 -1.0960  2.4776  1.4158
   19DOPE   C33 2405   6.130   4.002  16.160 -0.6999 -0.4520  0.2043
   19DOPE   H3X 2406   6.170   4.104  16.174 -1.9438 -0.1708  2.0650
   19DOPE   H3Y 2407   6.021   4.007  16.142 -0.5349 -0.5529 -0.9355
   19DOPE   C34 2408   6.176   3.930  16.030  0.4829 -0.5542  0.2909
   19DOPE   H4X 2409   6.286   3.933  16.011  0.4366  0.6820  0.1022
   19DOPE   H4Y 2410   6.137   3.826  16.027  0.1790 -0.4905  1.6826
   19DOPE   C35 2411   6.113   3.996  15.906 -0.1620 -0.2367  0.4122
   19DOPE   H5X 2412   6.138   4.104  15.898 -0.6408 -0.1434  0.1629
   19DOPE   H5Y 2413   6.004   3.993  15.928 -0.0577 -2.1501  0.8593
   19DOPE   C36 2414   6.144   3.939  15.766  0.3659  0.3889  0.4639
   19DOPE   H6X 2415   6.101   3.836  15.769 -1.0795  0.6709 -3.7695
   19DOPE   H6Y 2416   6.254   3.928  15.751  0.2602  0.6845 -0.6671
   19DOPE   C37 2417   6.070   4.018  15.650  0.3522 -0.4438  0.6209
   19DOPE   H7X 2418   6.104   3.953  15.567  1.2669  0.7903  0.0043
   19DOPE   H7Y 2419   5.960   4.022  15.665  0.4072 -1.3005  1.3334
   19DOPE   C38 2420   6.120   4.164  15.611  0.0500  0.4814 -0.1616
   19DOPE   H8X 2421   6.230   4.177  15.626 -0.4390  0.9308  4.0400
   19DOPE   H8Y 2422   6.073   4.229  15.687  1.3541  0.8501  0.3537
   19DOPE   C39 2423   6.069   4.212  15.477  0.1840  0.2481  0.3003
   19DOPE   H9X 2424   5.984   4.282  15.481 -0.1408 -0.1967  1.8452
   19DOPE  C310 2425   6.108   4.166  15.357 -0.3702  0.0188  0.0614
   19DOPE  H10X 2426   6.076   4.206  15.259  3.3367  1.7644 -0.6104
   19DOPE  C311 2427   6.218   4.065  15.333  0.3796  0.3228  0.0285
   19DOPE  H11X 2428   6.288   4.057  15.419  0.2258  1.6394  0.2969
   19DOPE  H11Y 2429   6.169   3.966  15.323 -0.0939  0.7066 -1.8794
   19DOPE  C312 2430   6.305   4.089  15.204 -0.3943  0.1271  0.0748
   19DOPE  H12X 2431   6.398   4.030  15.218  1.2068  2.0061 -2.0327
   19DOPE  H12Y 2432   6.350   4.190  15.201  3.7354 -1.4041  2.1806
   19DOPE  C313 2433   6.249   4.056  15.070 -0.6134  0.1686  0.7666
   19DOPE  H13X 2434   6.228   3.947  15.061  1.7020 -0.1263 -2.8164
   19DOPE  H13Y 2435   6.150   4.105  15.055 -0.0425  1.2884  0.5451
   19DOPE  C314 2436   6.346   4.090  14.956  0.5718  0.2979 -0.3569
   19DOPE  H14X 2437   6.436   4.025  14.967  0.5568  0.3790  0.3205
   19DOPE  H14Y 2438   6.384   4.194  14.950  1.0005  0.1803  0.1990
   19DOPE  C315 2439   6.279   4.069  14.816 -0.4257  0.0506 -0.4890
   19DOPE  H15X 2440   6.178   4.117  14.816 -1.7330 -2.5361 -0.9767
   19DOPE  H15Y 2441   6.265   3.960  14.799  1.3780 -0.2396 -0.2943
   19DOPE  C316 2442   6.349   4.141  14.701 -0.0154 -0.0480  0.2172
   19DOPE  H16X 2443   6.459   4.130  14.717 -0.3102  1.1385  4.1583
   19DOPE  H16Y 2444   6.334   4.249  14.726 -0.3411  0.3975 -1.7451
   19DOPE  C317 2445   6.300   4.100  14.561  0.1665 -0.3412  0.0166
   19DOPE  H17X 2446   6.318   3.992  14.545 -0.0078 -0.6142  1.4759
   19DOPE  H17Y 2447   6.194   4.132  14.548  0.9625  2.3601 -0.5234
   19DOPE  C318 2448   6.375   4.185  14.464 -0.0673  0.0713  0.1405
   19DOPE  H18X 2449   6.484   4.172  14.478 -0.2281 -0.6423  0.8148
   19DOPE  H18Y 2450   6.347   4.163  14.358  2.1393 -0.7528 -0.3088
   19DOPE  H18Z 2451   6.357   4.293  14.483 -3.0794 -0.5586  1.4129
   20DOPE     N 2452   4.971   4.447  16.398 -0.2395  1.7047 -0.0326
   20DOPE   HN1 2453   4.982   4.515  16.320 -0.2074 -0.6829 -2.2143
   20DOPE   HN2 2454   5.058   4.391  16.404 -0.2051  1.6806 -0.6822
   20DOPE   HN3 2455   4.905   4.377  16.359  0.2645  2.3032 -2.1085
   20DOPE   C12 2456   4.916   4.501  16.528 -0.8699  0.2434  0.7801
   20DOPE  H12A 2457   4.827   4.566  16.511 -0.4200  1.3338  2.3563
   20DOPE  H12B 2458   4.989   4.563  16.584  0.2227 -2.0341  2.0118
   20DOPE   C11 2459   4.862   4.388  16.604  1.1123  0.6631 -0.2233
   20DOPE  H11A 2460   4.786   4.331  16.547 -0.9062  1.6008  1.4095
   20DOPE  H11B 2461   4.809   4.431  16.691  0.2797  0.4009 -0.5908
   20DOPE     P 2462   4.940   4.183  16.754  0.0107  0.3288  0.0665
   20DOPE   O13 2463   4.868   4.221  16.877 -0.2378  0.0758  0.9133
   20DOPE   O14 2464   5.063   4.095  16.775 -0.8595 -0.3747 -0.0377
   20DOPE   O11 2465   4.844   4.104  16.663 -0.0848  0.1435  0.2561
   20DOPE   O12 2466   4.968   4.310  16.664  0.1739 -0.0434  0.0831
   20DOPE    C1 2467   4.875   4.019  16.559 -0.7691 -0.4330  0.0623
   20DOPE    HA 2468   4.858   3.912  16.582 -1.3088 -0.7020 -1.5256
   20DOPE    HB 2469   4.983   4.016  16.534 -0.5752 -0.8429  0.8941
   20DOPE    C2 2470   4.805   4.051  16.429  0.4086 -0.3926  0.0949
   20DOPE    HS 2471   4.819   4.158  16.402  0.2531 -0.5325 -0.5738
   20DOPE   O21 2472   4.666   4.010  16.440 -0.8429 -0.9750  0.0543
   20DOPE   C21 2473   4.582   4.095  16.377 -0.6431 -0.9055 -0.2977
   20DOPE   O22 2474   4.610   4.206  16.325  0.0958  0.0871 -0.5460
   20DOPE   C22 2475   4.445   4.038  16.381  0.0352  0.5348  0.1154
   20DOPE   H2R 2476   4.409   4.059  16.484  3.0252 -2.7483  2.0680
   20DOPE   H2S 2477   4.445   3.930  16.353  2.2536  0.8099 -1.2246
   20DOPE    C3 2478   4.869   3.984  16.297  0.0573 -0.4366 -0.3355
   20DOPE    HX 2479   4.858   3.875  16.314 -1.3770 -0.2177  0.3000
   20DOPE    HY 2480   4.977   4.011  16.285  0.5443 -1.1604  1.8495
   20DOPE   O31 2481   4.795   4.013  16.185  0.3672  0.5026  0.6268
   20DOPE   C31 2482   4.848   3.994  16.064 -0.1016 -0.2983 -0.5283
   20DOPE   O32 2483   4.954   3.939  16.042  0.3627  0.1403  0.2675
   20DOPE   C32 2484   4.779   4.077  15.967 -0.4683  0.2496  0.3660
   20DOPE   H2X 2485   4.670   4.056  15.980 -0.3839 -1.4488 -1.2921
   20DOPE   H2Y 2486   4.800   4.183  15.994  1.1115  0.2196 -0.6236
   20DOPE   C23 2487   4.357   4.120  16.282 -0.2378  0.0567  0.5028
   20DOPE   H3R 2488   4.385   4.227  16.290  0.6621  0.0234 -1.5632
   20DOPE   H3S 2489   4.250   4.118  16.314  0.4050  1.7396  3.0400
   20DOPE   C24 2490   4.376   4.067  16.134  0.0878  0.3202  0.2072
   20DOPE   H4R 2491   4.371   3.956  16.143 -3.0439  0.3064 -0.5660
   20DOPE   H4S 2492   4.481   4.095  16.108  1.1818 -4.2068 -1.1008
   20DOPE   C25 2493   4.266   4.119  16.037 -0.1084 -0.3054 -0.3367
   20DOPE   H5R 2494   4.256   4.229  16.045  0.6794 -0.3747  3.1363
   20DOPE   H5S 2495   4.170   4.069  16.064  1.2432 -2.0473  1.5257
   20DOPE   C26 2496   4.309   4.083  15.893 -0.3336  0.1799 -1.0908
   20DOPE   H6R 2497   4.330   3.974  15.885  2.5718  0.5922 -0.0714
   20DOPE   H6S 2498   4.408   4.129  15.874  1.3063 -1.2425  2.9034
   20DOPE   C27 2499   4.194   4.122  15.798 -0.8371 -0.5480  0.4042
   20DOPE   H7R 2500   4.219   4.229  15.786  2.0492 -1.0389  1.1915
   20DOPE   H7S 2501   4.095   4.105  15.845 -0.3583 -0.3839  1.4869
   20DOPE   C28 2502   4.197   4.053  15.655  0.2404  0.5124  0.1094
   20DOPE   H8R 2503   4.107   4.090  15.602 -0.0440 -0.1011  0.1536
   20DOPE   H8S 2504   4.183   3.945  15.679  0.9752 -0.1059 -2.0034
   20DOPE   C29 2505   4.318   4.074  15.571 -0.0924  0.1330  0.1311
   20DOPE   H9R 2506   4.414   4.081  15.625 -0.8293  2.8688  1.3147
   20DOPE  C210 2507   4.321   4.078  15.435  0.6200 -0.3588 -0.0793
   20DOPE  H10R 2508   4.417   4.110  15.392  0.1045  0.0259 -0.9917
   20DOPE  C211 2509   4.199   4.058  15.349  0.5049  0.6080  0.2184
   20DOPE  H11R 2510   4.113   4.018  15.407  1.2824  0.5864  1.4009
   20DOPE  H11S 2511   4.225   3.975  15.279 -1.0264 -0.8395  1.2849
   20DOPE  C212 2512   4.153   4.179  15.267 -0.6289  0.2476 -0.1327
   20DOPE  H12R 2513   4.062   4.141  15.216  0.0185  0.7086 -1.7012
   20DOPE  H12S 2514   4.229   4.206  15.190  0.7724  2.7476  1.9824
   20DOPE  C213 2515   4.113   4.308  15.344  0.2347 -0.3143  0.4467
   20DOPE  H13R 2516   4.213   4.332  15.385  1.2955  0.2597 -2.2945
   20DOPE  H13S 2517   4.042   4.277  15.424  1.0701 -0.4456  1.1537
   20DOPE  C214 2518   4.054   4.417  15.253 -0.3249  0.0828  0.2406
   20DOPE  H14R 2519   4.120   4.424  15.163  0.6462  0.1301  0.9406
   20DOPE  H14S 2520   4.073   4.517  15.298 -0.5701  0.6798 -0.9455
   20DOPE  C215 2521   3.908   4.390  15.206  1.0057 -0.1002 -0.4335
   20DOPE  H15R 2522   3.854   4.412  15.301 -0.0655  0.4054 -1.1423
   20DOPE  H15S 2523   3.883   4.282  15.195 -1.2554  0.3345 -0.0427
   20DOPE  C216 2524   3.854   4.471  15.091  0.3927  0.2306 -0.0842
   20DOPE  H16R 2525   3.882   4.576  15.116 -1.9700  1.5843 -2.5864
   20DOPE  H16S 2526   3.743   4.464  15.091  0.4445 -0.9545 -1.0025
   20DOPE  C217 2527   3.907   4.436  14.953  0.6341 -0.0660  0.1648
   20DOPE  H17R 2528   3.874   4.331  14.936 -0.0374 -0.0823  1.4635
   20DOPE  H17S 2529   4.018   4.441  14.959  0.7085 -1.3008  0.0725
   20DOPE  C218 2530   3.857   4.534  14.848 -0.2076 -0.4244  0.0989
   20DOPE  H18R 2531   3.892   4.494  14.750 -0.4366 -2.7266  0.8753
   20DOPE  H18S 2532   3.905   4.631  14.870 -0.7426 -0.0235 -0.5016
   20DOPE  H18T 2533   3.746   4.544  14.849 -0.1122  1.3458 -1.6477
   20DOPE   C33 2534   4.818   4.045  15.821  0.0499 -0.5705  0.9337
   20DOPE   H3X 2535   4.829   3.937  15.800  0.7862 -0.5756  1.3053
   20DOPE   H3Y 2536   4.915   4.094  15.797 -0.3331 -0.1127  0.2760
   20DOPE   C34 2537   4.718   4.122  15.734 -0.2633  0.2480 -0.4560
   20DOPE   H4X 2538   4.628   4.057  15.737 -0.0711 -0.1304  3.8088
   20DOPE   H4Y 2539   4.697   4.223  15.776 -0.3969 -0.5191  1.4633
   20DOPE   C35 2540   4.752   4.131  15.586 -0.0515 -0.2251 -0.3526
   20DOPE   H5X 2541   4.754   4.030  15.542  0.9767 -0.1763 -0.4390
   20DOPE   H5Y 2542   4.857   4.167  15.578 -0.1791  0.6913  1.4453
   20DOPE   C36 2543   4.672   4.229  15.496 -0.0414 -0.1018 -0.1716
   20DOPE   H6X 2544   4.692   4.337  15.514  0.1582 -0.4657  2.1495
   20DOPE   H6Y 2545   4.562   4.216  15.508  0.2928 -2.4339  1.0408
   20DOPE   C37 2546   4.694   4.196  15.349 -0.6516 -0.3770  0.2064
   20DOPE   H7X 2547   4.796   4.235  15.327 -1.5252  1.9179 -0.0402
   20DOPE   H7Y 2548   4.683   4.087  15.335 -1.0060 -0.4943  1.2915
   20DOPE   C38 2549   4.589   4.259  15.258  0.1896  0.6575  0.0517
   20DOPE   H8X 2550   4.493   4.270  15.312  0.5674  0.2977  0.8039
   20DOPE   H8Y 2551   4.561   4.188  15.177 -1.1348 -0.8973  1.7891
   20DOPE   C39 2552   4.627   4.397  15.208 -0.0687 -1.0111 -0.3380
   20DOPE   H9X 2553   4.673   4.461  15.284  0.3814 -0.4252 -1.0976
   20DOPE  C310 2554   4.572   4.463  15.099 -0.5380 -0.5211 -0.1572
   20DOPE  H10X 2555   4.619   4.558  15.071 -1.5689 -0.7425 -2.9598
   20DOPE  C311 2556   4.479   4.407  14.995 -0.1267  0.3628  0.0975
   20DOPE  H11X 2557   4.536   4.376  14.905  1.0052  2.0489  0.1942
   20DOPE  H11Y 2558   4.433   4.314  15.033  1.2729 -0.9281 -1.2347
   20DOPE  C312 2559   4.373   4.507  14.945 -0.2315  0.4006  0.2773
   20DOPE  H12X 2560   4.420   4.607  14.932  0.5575  0.1591  1.2073
   20DOPE  H12Y 2561   4.291   4.521  15.019 -0.7691  1.6196 -0.5204
   20DOPE  C313 2562   4.321   4.468  14.806 -0.5248 -0.0052 -0.2584
   20DOPE  H13X 2563   4.406   4.459  14.736  1.1634  1.0203  1.5634
   20DOPE  H13Y 2564   4.259   4.376  14.812 -1.4785  0.6567  0.4570
   20DOPE  C314 2565   4.231   4.576  14.739 -0.1406  0.4681  0.4980
   20DOPE  H14X 2566   4.301   4.659  14.711 -0.1521 -0.0053 -1.0654
   20DOPE  H14Y 2567   4.165   4.619  14.816  2.4157  0.8936  2.6079
   20DOPE  C315 2568   4.155   4.527  14.616  0.7869 -0.3206  0.2457
   20DOPE  H15X 2569   4.088   4.445  14.650 -0.4898  0.6726  0.2196
   20DOPE  H15Y 2570   4.228   4.499  14.537 -0.0655 -0.2234 -0.5981
   20DOPE  C316 2571   4.065   4.638  14.552  0.4140 -0.2516  0.4120
   20DOPE  H16X 2572   4.132   4.716  14.510  0.2441  0.1295  0.8448
   20DOPE  H16Y 2573   4.004   4.687  14.630 -0.3209  0.8235 -0.8013
   20DOPE  C317 2574   3.971   4.594  14.439  0.0689 -0.8649  0.8312
   20DOPE  H17X 2575   4.033   4.536  14.368 -0.3874  2.7530 -2.9167
   20DOPE  H17Y 2576   3.895   4.528  14.486  0.4514 -2.2237 -0.3651
   20DOPE  C318 2577   3.908   4.713  14.362  0.5532  0.3225  0.8960
   20DOPE  H18X 2578   3.988   4.774  14.314  0.3249 -0.6797 -0.8274
   20DOPE  H18Y 2579   3.832   4.675  14.292  0.6091  0.0724  0.9714
   20DOPE  H18Z 2580   3.855   4.779  14.434 -0.2875 -0.6209  1.1575
   21DOPE     N 2581   1.646   0.036  16.932 -0.5108  0.5626 -0.2385
   21DOPE   HN1 2582   1.657   0.120  16.992  0.0827 -0.0559  0.5371
   21DOPE   HN2 2583   1.551   0.022  16.891  0.3081 -2.4292 -1.3763
   21DOPE   HN3 2584   1.664  -0.045  16.995  0.4518 -0.4533 -1.7346
   21DOPE   C12 2585   1.742   0.023  16.820  0.1237  0.1120 -0.2999
   21DOPE  H12A 2586   1.826  -0.037  16.862  0.2699  1.4345  1.4197
   21DOPE  H12B 2587   1.776   0.125  16.793  0.3148 -0.2947 -1.6799
   21DOPE   C11 2588   1.667  -0.044  16.704 -0.3050 -0.0002 -0.6202
   21DOPE  H11A 2589   1.656  -0.153  16.722  1.1561 -0.0966 -0.2107
   21DOPE  H11B 2590   1.733  -0.040  16.615  0.3034 -0.6399 -0.1964
   21DOPE     P 2591   1.516   0.136  16.585 -0.0894  0.1090  0.3416
   21DOPE   O13 2592   1.623   0.241  16.596 -0.1468  0.8205  0.0988
   21DOPE   O14 2593   1.378   0.173  16.597  0.2976 -0.0325 -0.0720
   21DOPE   O11 2594   1.539   0.069  16.447  0.3038 -0.2512  0.2526
   21DOPE   O12 2595   1.541   0.013  16.676 -0.1236  0.3310 -0.1482
   21DOPE    C1 2596   1.605   0.122  16.330  0.1263  0.3253  0.8646
   21DOPE    HA 2597   1.638   0.044  16.258  1.1384  2.7585 -1.5064
   21DOPE    HB 2598   1.701   0.171  16.355  0.9747  0.8695 -2.8289
   21DOPE    C2 2599   1.508   0.218  16.256 -0.0080 -0.2261 -0.0787
   21DOPE    HS 2600   1.468   0.292  16.329 -0.3806  0.9862 -1.4613
   21DOPE   O21 2601   1.391   0.143  16.208  0.5208 -0.2809 -0.1964
   21DOPE   C21 2602   1.284   0.205  16.174 -0.6550  0.0024  0.0843
   21DOPE   O22 2603   1.264   0.328  16.193  0.2533 -0.5380  0.4937
   21DOPE   C22 2604   1.189   0.097  16.112 -0.3942 -0.0974 -0.6106
   21DOPE   H2R 2605   1.097   0.153  16.083 -0.6004 -0.1459 -0.0550
   21DOPE   H2S 2606   1.154   0.032  16.195 -1.6730 -0.7354 -1.6095
   21DOPE    C3 2607   1.579   0.306  16.144  0.0481  0.4668 -0.2200
   21DOPE    HX 2608   1.681   0.336  16.177 -0.2896  2.1213 -0.6092
   21DOPE    HY 2609   1.524   0.402  16.137 -1.6426 -0.4413  0.0599
   21DOPE   O31 2610   1.590   0.234  16.021  0.0261 -0.3337  0.4306
   21DOPE   C31 2611   1.604   0.313  15.919  0.1821  0.5211 -0.0949
   21DOPE   O32 2612   1.604   0.438  15.916 -0.2723  0.9821 -0.3520
   21DOPE   C32 2613   1.618   0.216  15.796 -0.2798  0.4341 -0.1641
   21DOPE   H2X 2614   1.720   0.171  15.802 -0.9408 -1.0971  0.0825
   21DOPE   H2Y 2615   1.546   0.133  15.782 -0.3952  0.6395 -0.8157
   21DOPE   C23 2616   1.239   0.017  15.982  0.7960 -0.5145 -0.7465
   21DOPE   H3R 2617   1.153  -0.053  15.969  0.5767 -0.4855  0.4413
   21DOPE   H3S 2618   1.332  -0.038  16.009  1.1055 -0.7697 -2.2519
   21DOPE   C24 2619   1.250   0.119  15.869 -0.5121 -0.0195  0.1894
   21DOPE   H4R 2620   1.328   0.190  15.905  1.0731 -2.0925  1.0548
   21DOPE   H4S 2621   1.152   0.172  15.866 -0.0193  0.9259  0.6559
   21DOPE   C25 2622   1.269   0.055  15.737 -0.2953  0.1456 -0.5216
   21DOPE   H5R 2623   1.363  -0.004  15.734 -0.6989 -0.5813  0.4344
   21DOPE   H5S 2624   1.271   0.134  15.659  0.6566  0.0452 -0.6076
   21DOPE   C26 2625   1.154  -0.041  15.702  0.4843  0.4244  0.5963
   21DOPE   H6R 2626   1.058   0.015  15.692 -0.5909 -1.6357 -1.5254
   21DOPE   H6S 2627   1.144  -0.125  15.773  3.2876  0.0220  0.6300
   21DOPE   C27 2628   1.175  -0.115  15.574  0.0001 -0.3161  0.9946
   21DOPE   H7R 2629   1.100  -0.196  15.560 -0.2771  0.1588 -0.5303
   21DOPE   H7S 2630   1.275  -0.163  15.579  0.8008  1.3522  1.8141
   21DOPE   C28 2631   1.173  -0.023  15.448  0.7860  0.5044 -0.4147
   21DOPE   H8R 2632   1.136   0.078  15.479  0.7467  1.0232 -2.0464
   21DOPE   H8S 2633   1.098  -0.056  15.373  1.6830  0.0093 -1.1021
   21DOPE   C29 2634   1.313   0.009  15.405  0.1700  0.1620 -0.3827
   21DOPE   H9R 2635   1.383   0.021  15.490 -1.1471 -3.7759  1.5467
   21DOPE  C210 2636   1.355   0.013  15.277  0.1128 -0.1322 -0.1183
   21DOPE  H10R 2637   1.458   0.022  15.240 -1.2990  3.1878 -4.0624
   21DOPE  C211 2638   1.278  -0.023  15.158  1.2048  0.0270  1.0536
   21DOPE  H11R 2639   1.169  -0.027  15.176  0.3956  1.0291 -2.7725
   21DOPE  H11S 2640   1.319  -0.116  15.114  1.6871 -0.7721  3.0906
   21DOPE  C212 2641   1.287   0.085  15.051  0.3352 -0.3210  0.2784
   21DOPE  H12R 2642   1.386   0.102  15.005 -1.5808  0.0285 -4.2136
   21DOPE  H12S 2643   1.265   0.180  15.104  0.2781  0.4489 -1.0977
   21DOPE  C213 2644   1.181   0.076  14.942  0.3686 -0.6173 -0.1670
   21DOPE  H13R 2645   1.157   0.178  14.907 -0.0215 -0.8047 -0.4515
   21DOPE  H13S 2646   1.085   0.032  14.978 -0.4242  1.5799  0.5854
   21DOPE  C214 2647   1.220  -0.008  14.826 -0.6104 -0.1569  0.9030
   21DOPE  H14R 2648   1.192  -0.115  14.842 -0.3566 -0.2549  0.6926
   21DOPE  H14S 2649   1.328  -0.017  14.801 -0.9717  0.3283 -1.0031
   21DOPE  C215 2650   1.148   0.042  14.698 -0.1344 -0.2030  0.5252
   21DOPE  H15R 2651   1.160   0.153  14.694 -0.4982 -0.1098  1.7740
   21DOPE  H15S 2652   1.038   0.040  14.710 -0.3596  1.4195 -0.7789
   21DOPE  C216 2653   1.195  -0.039  14.578  0.9332 -0.5339 -0.3727
   21DOPE  H16R 2654   1.306  -0.035  14.571  0.8523  0.1306 -1.7704
   21DOPE  H16S 2655   1.161   0.007  14.482  1.6438  0.3703 -0.1937
   21DOPE  C217 2656   1.167  -0.182  14.579  0.0620  0.1793  0.1260
   21DOPE  H17R 2657   1.057  -0.189  14.569  0.2177 -0.7595 -1.1823
   21DOPE  H17S 2658   1.168  -0.234  14.677 -2.3296 -1.5170 -0.6480
   21DOPE  C218 2659   1.234  -0.263  14.459  0.2869 -1.0817 -0.2427
   21DOPE  H18R 2660   1.341  -0.233  14.467  1.0171 -3.8202  1.4582
   21DOPE  H18S 2661   1.205  -0.217  14.362  0.8978 -1.4677 -0.6150
   21DOPE  H18T 2662   1.222  -0.373  14.457 -0.0509 -1.0360 -1.4234
   21DOPE   C33 2663   1.618   0.299  15.663  0.1835 -0.1167  0.3674
   21DOPE   H3X 2664   1.694   0.379  15.678  0.3410 -0.4026  1.1247
   21DOPE   H3Y 2665   1.521   0.351  15.649  0.1409 -0.0813  0.7949
   21DOPE   C34 2666   1.646   0.208  15.536 -0.4557 -0.0147 -0.1359
   21DOPE   H4X 2667   1.734   0.142  15.556 -2.6416 -2.4633  2.2240
   21DOPE   H4Y 2668   1.558   0.142  15.525 -1.3286  0.9832  0.6683
   21DOPE   C35 2669   1.672   0.278  15.406 -0.2767 -0.0281 -0.5112
   21DOPE   H5X 2670   1.720   0.373  15.437  0.0378 -0.6556  1.0577
   21DOPE   H5Y 2671   1.572   0.303  15.364 -1.0749 -1.0715  0.6776
   21DOPE   C36 2672   1.746   0.209  15.295  0.0160 -0.2565  0.1081
   21DOPE   H6X 2673   1.686   0.117  15.283 -0.8734  0.1310  1.3189
   21DOPE   H6Y 2674   1.849   0.183  15.327 -0.1096  0.2957  0.9997
   21DOPE   C37 2675   1.736   0.298  15.165 -0.0821  0.4273  0.3135
   21DOPE   H7X 2676   1.628   0.313  15.140 -0.8082 -0.2259  2.7952
   21DOPE   H7Y 2677   1.791   0.392  15.188 -0.5086  0.3282  1.8160
   21DOPE   C38 2678   1.796   0.232  15.041  0.1838  0.1241 -0.3634
   21DOPE   H8X 2679   1.755   0.132  15.014 -1.9175  1.1603 -1.2091
   21DOPE   H8Y 2680   1.904   0.221  15.067 -0.0962 -1.9763  0.0757
   21DOPE   C39 2681   1.765   0.316  14.922 -0.0544 -0.3498  0.2947
   21DOPE   H9X 2682   1.823   0.409  14.912  1.0954 -1.2325 -2.4055
   21DOPE  C310 2683   1.687   0.292  14.815 -0.0857 -0.6155  1.0249
   21DOPE  H10X 2684   1.683   0.369  14.737  2.3213 -2.9434 -1.6000
   21DOPE  C311 2685   1.602   0.171  14.784 -0.5481  0.8696 -0.0435
   21DOPE  H11X 2686   1.574   0.120  14.879 -3.5108  0.2477 -1.1477
   21DOPE  H11Y 2687   1.499   0.186  14.746 -1.4895  0.8509  2.3277
   21DOPE  C312 2688   1.688   0.076  14.697 -0.2459 -0.5316  0.0374
   21DOPE  H12X 2689   1.775   0.032  14.751 -0.1725 -0.2687  0.1382
   21DOPE  H12Y 2690   1.744   0.132  14.620 -2.0591 -3.8382 -4.0418
   21DOPE  C313 2691   1.606  -0.038  14.635  0.0475 -0.0561  0.3503
   21DOPE  H13X 2692   1.554  -0.096  14.715  2.5577 -2.9078  0.0587
   21DOPE  H13Y 2693   1.533   0.013  14.568  0.7809  0.9956  0.3342
   21DOPE  C314 2694   1.678  -0.134  14.539  0.1612 -0.0666 -0.4748
   21DOPE  H14X 2695   1.714  -0.096  14.441  0.2687 -0.9994 -0.8082
   21DOPE  H14Y 2696   1.600  -0.205  14.506 -1.3787  1.3289 -0.0021
   21DOPE  C315 2697   1.800  -0.209  14.597 -0.3167 -0.1444 -1.1597
   21DOPE  H15X 2698   1.782  -0.253  14.698 -0.2831  1.3018 -0.4925
   21DOPE  H15Y 2699   1.871  -0.126  14.618 -0.5108 -0.3618  0.5396
   21DOPE  C316 2700   1.866  -0.314  14.513  0.0400 -0.2829 -0.0844
   21DOPE  H16X 2701   1.812  -0.411  14.517  1.5902 -1.3743 -2.9560
   21DOPE  H16Y 2702   1.971  -0.330  14.548 -0.8691 -0.6627  2.7625
   21DOPE  C317 2703   1.860  -0.287  14.360 -0.3894  0.6037  0.4577
   21DOPE  H17X 2704   1.753  -0.270  14.337 -0.2732  0.6245 -0.1030
   21DOPE  H17Y 2705   1.907  -0.186  14.354  2.0744 -0.4005  1.3762
   21DOPE  C318 2706   1.924  -0.391  14.262 -0.1382  0.3752 -0.0579
   21DOPE  H18X 2707   1.893  -0.367  14.158  0.0380  0.0713 -0.1819
   21DOPE  H18Y 2708   2.035  -0.396  14.272  0.0268  3.0904  0.2392
   21DOPE  H18Z 2709   1.894  -0.490  14.304 -2.0008  0.8818 -0.1208
   22DOPE     N 2710   0.395   3.342  16.765  0.3443 -0.8180 -0.2492
   22DOPE   HN1 2711   0.369   3.340  16.866  0.2834  1.7734 -0.1351
   22DOPE   HN2 2712   0.400   3.441  16.734 -0.2353 -1.9075 -4.3973
   22DOPE   HN3 2713   0.323   3.288  16.715  1.1580 -1.8907 -0.2898
   22DOPE   C12 2714   0.528   3.283  16.741 -0.3558 -0.0906 -0.3112
   22DOPE  H12A 2715   0.523   3.183  16.789  2.5132 -0.7987 -1.2564
   22DOPE  H12B 2716   0.610   3.334  16.796 -1.0034 -0.8432  1.4195
   22DOPE   C11 2717   0.563   3.260  16.598  0.3728  0.0891 -0.2799
   22DOPE  H11A 2718   0.665   3.215  16.599 -0.8406 -2.8559 -0.5540
   22DOPE  H11B 2719   0.580   3.352  16.538  0.0433 -0.0729 -0.6210
   22DOPE     P 2720   0.460   3.033  16.539  0.3690  0.0820 -0.4809
   22DOPE   O13 2721   0.367   3.002  16.650  0.0382 -0.0678  0.4141
   22DOPE   O14 2722   0.599   2.989  16.555  0.0796 -0.2960  0.1941
   22DOPE   O11 2723   0.401   2.986  16.403  0.1079 -0.1658  0.0353
   22DOPE   O12 2724   0.464   3.188  16.525 -0.3038 -0.3187 -0.1116
   22DOPE    C1 2725   0.311   3.071  16.329  0.5613  0.6720  1.2009
   22DOPE    HA 2726   0.268   3.150  16.394  1.2187  1.1198  1.0993
   22DOPE    HB 2727   0.234   3.001  16.291  1.5817 -1.1790  2.3375
   22DOPE    C2 2728   0.375   3.137  16.206  0.6464  0.8055 -0.2973
   22DOPE    HS 2729   0.300   3.207  16.162  0.5716  1.3206  0.6257
   22DOPE   O21 2730   0.429   3.036  16.114 -0.1048  0.3856 -0.0455
   22DOPE   C21 2731   0.345   3.013  16.020  0.6044  0.6799  0.0464
   22DOPE   O22 2732   0.226   3.051  16.016  0.2189  0.4304  1.1300
   22DOPE   C22 2733   0.411   2.927  15.918  0.5381  0.5208 -0.2842
   22DOPE   H2R 2734   0.412   2.824  15.959 -0.5859  0.8580  0.6723
   22DOPE   H2S 2735   0.518   2.953  15.907  0.8672 -0.4791  0.4037
   22DOPE    C3 2736   0.489   3.232  16.237  0.4019  0.2266 -0.2672
   22DOPE    HX 2737   0.575   3.173  16.275  0.0666 -0.0359  0.0960
   22DOPE    HY 2738   0.447   3.292  16.321 -1.1586  0.0409 -0.8796
   22DOPE   O31 2739   0.523   3.312  16.113  0.0865 -0.3663 -0.6801
   22DOPE   C31 2740   0.622   3.263  16.038 -0.3617  0.1653 -0.5387
   22DOPE   O32 2741   0.692   3.164  16.064 -0.2287 -0.4519  0.0069
   22DOPE   C32 2742   0.623   3.336  15.905 -0.1365  0.1562  0.9882
   22DOPE   H2X 2743   0.537   3.295  15.848  0.6592 -1.7957  1.1142
   22DOPE   H2Y 2744   0.596   3.441  15.933 -3.4576 -0.4947  0.6383
   22DOPE   C23 2745   0.342   2.935  15.777  0.3626  0.2515 -0.8950
   22DOPE   H3R 2746   0.231   2.928  15.784  0.4564 -0.0687  0.9357
   22DOPE   H3S 2747   0.386   2.842  15.736  2.2016  0.5170  0.3540
   22DOPE   C24 2748   0.383   3.064  15.705 -0.0137  0.0661 -0.0645
   22DOPE   H4R 2749   0.481   3.113  15.724  1.2068 -1.9999 -0.7394
   22DOPE   H4S 2750   0.318   3.143  15.748  0.4026  0.4087 -0.0512
   22DOPE   C25 2751   0.370   3.057  15.547  0.5186 -0.9248 -0.1930
   22DOPE   H5R 2752   0.297   2.982  15.510 -0.7497  0.4217 -0.5165
   22DOPE   H5S 2753   0.465   3.019  15.505  2.0064  2.8867 -0.7079
   22DOPE   C26 2754   0.343   3.194  15.483  0.0348 -0.1586  0.1536
   22DOPE   H6R 2755   0.394   3.266  15.552  1.4243 -0.1351 -0.8465
   22DOPE   H6S 2756   0.236   3.215  15.464 -0.2850 -0.3582  1.6449
   22DOPE   C27 2757   0.429   3.197  15.351  0.1140  0.1913 -0.1947
   22DOPE   H7R 2758   0.410   3.102  15.298 -1.7464 -0.1578  1.0141
   22DOPE   H7S 2759   0.535   3.195  15.384 -0.0071 -1.9679  0.2178
   22DOPE   C28 2760   0.402   3.318  15.256  0.3360  0.3091 -0.2450
   22DOPE   H8R 2761   0.493   3.330  15.193  0.4726  0.2893 -0.0513
   22DOPE   H8S 2762   0.399   3.405  15.325 -1.9049 -0.1462  0.3233
   22DOPE   C29 2763   0.279   3.296  15.167 -0.2768 -0.0883 -0.3927
   22DOPE   H9R 2764   0.184   3.327  15.214 -0.7572 -2.2407  0.1731
   22DOPE  C210 2765   0.275   3.251  15.039  0.1151 -0.5643 -0.4926
   22DOPE  H10R 2766   0.177   3.249  14.988 -0.3206  0.3999  0.2677
   22DOPE  C211 2767   0.391   3.209  14.953 -0.2850  0.7265 -0.3958
   22DOPE  H11R 2768   0.485   3.201  15.013 -0.7180 -0.6522  0.1254
   22DOPE  H11S 2769   0.414   3.282  14.873  1.4886 -0.4363 -1.0130
   22DOPE  C212 2770   0.361   3.076  14.879 -0.5270  0.0696 -0.9334
   22DOPE  H12R 2771   0.314   3.004  14.949 -4.2310  1.5198 -1.6883
   22DOPE  H12S 2772   0.459   3.036  14.846 -0.4291  0.6754 -1.3915
   22DOPE  C213 2773   0.283   3.084  14.746  0.2183  0.2324  0.9399
   22DOPE  H13R 2774   0.324   3.171  14.690  0.8282 -0.2868  0.5645
   22DOPE  H13S 2775   0.176   3.110  14.765  1.0364  3.1912  2.0481
   22DOPE  C214 2776   0.294   2.952  14.656  0.0534  0.8407 -0.3706
   22DOPE  H14R 2777   0.257   2.875  14.727 -1.6531  1.7168 -0.2486
   22DOPE  H14S 2778   0.400   2.938  14.626  0.0860  0.1663  0.0355
   22DOPE  C215 2779   0.199   2.948  14.532  0.0768 -0.7607 -0.7427
   22DOPE  H15R 2780   0.223   3.033  14.464  0.7751 -0.7659 -0.5130
   22DOPE  H15S 2781   0.098   2.982  14.561  1.0182  1.2930  0.2876
   22DOPE  C216 2782   0.190   2.819  14.457 -0.3449  0.3242 -0.0798
   22DOPE  H16R 2783   0.287   2.800  14.406  0.2395 -1.4207  1.5811
   22DOPE  H16S 2784   0.106   2.830  14.385 -0.7957 -1.8004  0.0815
   22DOPE  C217 2785   0.163   2.698  14.541 -0.0939  0.3578  0.1485
   22DOPE  H17R 2786   0.077   2.715  14.608 -0.2432  1.1390 -0.2181
   22DOPE  H17S 2787   0.256   2.676  14.598  1.4556  2.0941 -1.5277
   22DOPE  C218 2788   0.125   2.581  14.445 -0.3501  0.6414 -0.3166
   22DOPE  H18R 2789   0.210   2.549  14.382 -0.4024  1.2159 -0.6869
   22DOPE  H18S 2790   0.043   2.623  14.382 -1.5661 -1.1409 -0.0011
   22DOPE  H18T 2791   0.100   2.500  14.517 -2.6961  1.9386  0.4561
   22DOPE   C33 2792   0.753   3.318  15.824  0.3502  0.3218 -0.8301
   22DOPE   H3X 2793   0.785   3.212  15.826 -2.5775 -0.7133  2.7079
   22DOPE   H3Y 2794   0.830   3.384  15.869 -1.1465  0.4658  1.7031
   22DOPE   C34 2795   0.746   3.356  15.675 -0.3860 -0.1425  0.1171
   22DOPE   H4X 2796   0.697   3.268  15.630  1.4163 -0.6602 -0.9398
   22DOPE   H4Y 2797   0.686   3.450  15.675  1.2024  0.9781  1.9526
   22DOPE   C35 2798   0.885   3.382  15.620 -0.3681  0.0801  0.7141
   22DOPE   H5X 2799   0.956   3.299  15.638 -0.4577 -0.3936 -0.9211
   22DOPE   H5Y 2800   0.924   3.468  15.677 -0.5166  0.2581  0.5481
   22DOPE   C36 2801   0.887   3.419  15.474  0.3888  0.3372  0.0388
   22DOPE   H6X 2802   0.986   3.448  15.434  0.6566 -0.5802  0.0290
   22DOPE   H6Y 2803   0.834   3.515  15.456 -2.3946 -1.1625 -0.3201
   22DOPE   C37 2804   0.828   3.315  15.386 -0.4984 -0.5494 -0.1067
   22DOPE   H7X 2805   0.878   3.216  15.397  0.9012  0.2642  1.4620
   22DOPE   H7Y 2806   0.718   3.304  15.397 -0.6737 -0.0695 -1.2374
   22DOPE   C38 2807   0.862   3.361  15.242 -0.3170 -0.3479  0.8773
   22DOPE   H8X 2808   0.972   3.370  15.229 -0.0322 -2.2076  1.7577
   22DOPE   H8Y 2809   0.807   3.457  15.230 -1.9022 -1.1725  1.3262
   22DOPE   C39 2810   0.807   3.268  15.134 -0.1155  0.3276  0.2218
   22DOPE   H9X 2811   0.841   3.165  15.147  0.0710  0.2539 -0.7816
   22DOPE  C310 2812   0.741   3.303  15.021  0.4820  0.2768 -0.0117
   22DOPE  H10X 2813   0.727   3.227  14.943  1.5862 -0.9065  0.8827
   22DOPE  C311 2814   0.697   3.442  14.973 -0.0032  0.9804 -0.4903
   22DOPE  H11X 2815   0.615   3.440  14.898 -1.8985  1.7375  1.4729
   22DOPE  H11Y 2816   0.660   3.505  15.056  0.3331 -1.8355  1.9530
   22DOPE  C312 2817   0.808   3.510  14.886 -0.3864 -0.3202 -0.5618
   22DOPE  H12X 2818   0.886   3.532  14.962 -1.6316 -0.9844  0.9902
   22DOPE  H12Y 2819   0.770   3.608  14.849 -0.1230 -0.7983 -2.1782
   22DOPE  C313 2820   0.866   3.438  14.765  0.0689 -0.0476 -0.1499
   22DOPE  H13X 2821   0.951   3.496  14.723 -0.2606 -0.4002 -1.3700
   22DOPE  H13Y 2822   0.906   3.339  14.796 -1.3528 -0.4032  0.6147
   22DOPE  C314 2823   0.760   3.428  14.648 -0.4680 -0.2906  0.3582
   22DOPE  H14X 2824   0.718   3.526  14.616 -0.5164 -0.9014 -1.5774
   22DOPE  H14Y 2825   0.685   3.350  14.670  1.2816 -1.9448  0.7139
   22DOPE  C315 2826   0.834   3.386  14.516  0.3682 -0.5471 -0.4670
   22DOPE  H15X 2827   0.905   3.305  14.543  1.5862  0.4773 -0.5216
   22DOPE  H15Y 2828   0.910   3.459  14.482  0.2046 -1.1306 -2.1915
   22DOPE  C316 2829   0.737   3.346  14.409 -0.6211  0.4238  0.3348
   22DOPE  H16X 2830   0.661   3.428  14.406 -1.5377 -0.4076 -2.4451
   22DOPE  H16Y 2831   0.695   3.245  14.427  0.8471 -0.1347  0.7708
   22DOPE  C317 2832   0.794   3.345  14.267  0.1537  0.0626  0.4238
   22DOPE  H17X 2833   0.829   3.448  14.242 -1.2485  0.1120 -1.6372
   22DOPE  H17Y 2834   0.876   3.271  14.259  0.5094  0.5744 -0.9642
   22DOPE  C318 2835   0.695   3.315  14.150 -0.0413 -0.2746 -0.7452
   22DOPE  H18X 2836   0.754   3.282  14.062  1.8326  0.7636  0.0459
   22DOPE  H18Y 2837   0.636   3.223  14.171 -1.2729  0.6375 -0.1282
   22DOPE  H18Z 2838   0.625   3.399  14.133  1.0392  0.8772  0.2598
   23DOPE     N 2839   4.258   6.581  16.658 -0.2914  0.0198  0.0993
   23DOPE   HN1 2840   4.162   6.621  16.659 -0.3797 -0.1820  1.2734
   23DOPE   HN2 2841   4.262   6.478  16.647  0.4296 -0.0178  0.6526
   23DOPE   HN3 2842   4.300   6.607  16.750  0.9498  0.1901 -0.4963
   23DOPE   C12 2843   4.352   6.630  16.550 -0.5355 -0.2923  0.2931
   23DOPE  H12A 2844   4.404   6.723  16.580  2.2899 -1.8108  0.4206
   23DOPE  H12B 2845   4.280   6.652  16.468 -0.7620 -0.6103  0.4020
   23DOPE   C11 2846   4.471   6.521  16.517 -0.3949  0.0106  0.1672
   23DOPE  H11A 2847   4.538   6.564  16.439 -0.5511  0.5114  0.3035
   23DOPE  H11B 2848   4.421   6.428  16.482 -1.6391  0.8550 -0.4032
   23DOPE     P 2849   4.688   6.467  16.652 -0.1700  0.2102 -0.3089
   23DOPE   O13 2850   4.726   6.469  16.796 -0.3804  0.1287  0.1744
   23DOPE   O14 2851   4.738   6.579  16.574 -0.6907  0.0047 -0.4129
   23DOPE   O11 2852   4.718   6.326  16.589  0.7643  0.5423  0.2540
   23DOPE   O12 2853   4.529   6.479  16.642 -0.0591  0.6692  0.1183
   23DOPE    C1 2854   4.837   6.312  16.511  0.5337 -0.1178 -0.0444
   23DOPE    HA 2855   4.889   6.222  16.550 -1.0012 -0.3929  1.4975
   23DOPE    HB 2856   4.910   6.394  16.524 -0.0957  0.8655 -2.2186
   23DOPE    C2 2857   4.799   6.301  16.363  0.0039 -0.2454  0.3057
   23DOPE    HS 2858   4.895   6.291  16.307 -0.2295 -0.4089 -0.0689
   23DOPE   O21 2859   4.724   6.420  16.317 -0.2234 -0.6143  0.3655
   23DOPE   C21 2860   4.803   6.522  16.285  0.1410  0.0009  0.8449
   23DOPE   O22 2861   4.925   6.523  16.290  0.0495  0.4938  0.1960
   23DOPE   C22 2862   4.715   6.639  16.243  0.1409  0.1323  0.3212
   23DOPE   H2R 2863   4.664   6.670  16.337  0.2039 -1.6434  0.9782
   23DOPE   H2S 2864   4.635   6.614  16.170  0.3814  0.2234  0.0240
   23DOPE    C3 2865   4.716   6.170  16.333 -0.5691 -0.4568 -0.2967
   23DOPE    HX 2866   4.621   6.170  16.390 -0.6507  2.6437 -0.2673
   23DOPE    HY 2867   4.771   6.079  16.368 -1.3903 -0.5024  0.9292
   23DOPE   O31 2868   4.688   6.162  16.191 -0.1813 -0.3936  0.4854
   23DOPE   C31 2869   4.561   6.187  16.154 -0.2926 -0.1618  0.3226
   23DOPE   O32 2870   4.481   6.249  16.210  0.1219  0.0345 -0.6590
   23DOPE   C32 2871   4.529   6.111  16.022  0.0682  0.3725  0.3136
   23DOPE   H2X 2872   4.570   6.007  16.028  0.5875  0.6447  1.9184
   23DOPE   H2Y 2873   4.418   6.110  16.016  0.0350 -1.8872  0.4474
   23DOPE   C23 2874   4.801   6.757  16.196  0.5779  0.0150  0.3351
   23DOPE   H3R 2875   4.883   6.789  16.263  1.0828 -0.6862  0.0644
   23DOPE   H3S 2876   4.733   6.845  16.190  1.5524  0.7096 -2.1451
   23DOPE   C24 2877   4.871   6.736  16.056  0.4501  1.1408  0.9277
   23DOPE   H4R 2878   4.919   6.636  16.067  0.0331  0.9561  1.0563
   23DOPE   H4S 2879   4.947   6.814  16.030  1.3260 -0.1630 -0.5853
   23DOPE   C25 2880   4.770   6.740  15.933 -0.7802  0.7179 -0.1467
   23DOPE   H5R 2881   4.695   6.815  15.964 -1.2478  0.1926  0.0114
   23DOPE   H5S 2882   4.709   6.647  15.927  1.8695 -1.3642  1.8420
   23DOPE   C26 2883   4.835   6.767  15.799 -0.0774 -0.0520 -0.2247
   23DOPE   H6R 2884   4.889   6.672  15.775 -0.3143 -0.5388  1.0396
   23DOPE   H6S 2885   4.915   6.843  15.788 -0.0482 -0.0529 -0.0223
   23DOPE   C27 2886   4.729   6.803  15.694 -0.5844  0.0952 -0.1021
   23DOPE   H7R 2887   4.692   6.905  15.716  0.9650  0.7660 -0.4855
   23DOPE   H7S 2888   4.648   6.727  15.693 -0.1186 -0.4274 -1.4669
   23DOPE   C28 2889   4.769   6.804  15.544  0.3762  0.3240  0.0008
   23DOPE   H8R 2890   4.677   6.802  15.483  0.6222  0.2749 -0.3691
   23DOPE   H8S 2891   4.825   6.713  15.513  2.0172  0.5912  1.9173
   23DOPE   C29 2892   4.859   6.923  15.514 -0.8137  0.0699 -0.5064
   23DOPE   H9R 2893   4.945   6.937  15.580  1.1853 -0.3081 -2.8723
   23DOPE  C210 2894   4.856   7.007  15.405 -0.0111 -0.2881 -0.8910
   23DOPE  H10R 2895   4.940   7.074  15.385  0.3045 -0.2693  0.4364
   23DOPE  C211 2896   4.759   6.999  15.290  0.6666  0.5960 -0.7799
   23DOPE  H11R 2897   4.672   7.058  15.326  0.9974  0.1099  0.9115
   23DOPE  H11S 2898   4.720   6.895  15.282  0.7867  0.5084 -0.2708
   23DOPE  C212 2899   4.806   7.024  15.146  0.0996  0.6407  0.2893
   23DOPE  H12R 2900   4.888   6.955  15.117 -0.6884  0.6428 -2.2482
   23DOPE  H12S 2901   4.840   7.130  15.142  0.7733  0.3953 -1.7161
   23DOPE  C213 2902   4.683   7.005  15.049  0.8059 -0.7464 -0.6431
   23DOPE  H13R 2903   4.592   7.038  15.104 -0.2661 -2.3547 -1.3978
   23DOPE  H13S 2904   4.673   6.898  15.023 -2.1172 -0.5392 -0.6564
   23DOPE  C214 2905   4.695   7.094  14.921  0.4357  0.0865  0.1671
   23DOPE  H14R 2906   4.796   7.070  14.881  0.1467  1.2870 -1.3902
   23DOPE  H14S 2907   4.699   7.201  14.951  0.5360  0.5074 -1.2632
   23DOPE  C215 2908   4.581   7.076  14.822 -0.0432  0.1041 -0.1467
   23DOPE  H15R 2909   4.480   7.097  14.862 -0.3513  1.0353 -1.3474
   23DOPE  H15S 2910   4.579   6.967  14.800  0.1107  0.1327 -0.3057
   23DOPE  C216 2911   4.575   7.161  14.696  0.0247  0.5457 -0.6438
   23DOPE  H16R 2912   4.478   7.148  14.644  0.0277 -0.9597 -0.3100
   23DOPE  H16S 2913   4.652   7.115  14.631 -0.5281 -0.7646 -0.4065
   23DOPE  C217 2914   4.613   7.307  14.719  0.5981  0.5769 -0.2054
   23DOPE  H17R 2915   4.700   7.310  14.787  1.3984 -0.6200 -1.1419
   23DOPE  H17S 2916   4.526   7.349  14.775 -1.5462 -2.5285 -0.8858
   23DOPE  C218 2917   4.633   7.393  14.588 -0.2672  0.5452  0.2539
   23DOPE  H18R 2918   4.608   7.500  14.595 -1.1462  0.4128 -0.6230
   23DOPE  H18S 2919   4.548   7.363  14.523 -0.0065 -0.6040  0.4080
   23DOPE  H18T 2920   4.732   7.371  14.541 -1.3780 -2.6543 -0.8434
   23DOPE   C33 2921   4.597   6.179  15.900 -0.2830  0.3739 -0.4476
   23DOPE   H3X 2922   4.679   6.114  15.864 -1.0292 -1.9555  1.7629
   23DOPE   H3Y 2923   4.641   6.276  15.931 -0.1591 -0.3089  1.6398
   23DOPE   C34 2924   4.503   6.182  15.778 -0.1231 -0.2439 -0.3968
   23DOPE   H4X 2925   4.463   6.081  15.756 -0.7320  0.3567 -2.1975
   23DOPE   H4Y 2926   4.407   6.233  15.801 -0.4590 -0.7771 -0.6067
   23DOPE   C35 2927   4.574   6.239  15.651  0.4673 -0.2803  0.2806
   23DOPE   H5X 2928   4.660   6.170  15.643  1.3046  0.8091 -0.4319
   23DOPE   H5Y 2929   4.608   6.341  15.677  0.3141 -0.0957 -0.2258
   23DOPE   C36 2930   4.482   6.233  15.529  0.5542 -0.2989 -0.4310
   23DOPE   H6X 2931   4.382   6.278  15.551 -0.8057 -3.4130  0.2491
   23DOPE   H6Y 2932   4.464   6.126  15.506 -1.9749  0.0576 -0.4470
   23DOPE   C37 2933   4.542   6.288  15.400  0.1900  0.1820 -0.4298
   23DOPE   H7X 2934   4.577   6.393  15.410  0.0501  0.1548  0.4423
   23DOPE   H7Y 2935   4.633   6.228  15.379  1.9393  3.4701 -3.2445
   23DOPE   C38 2936   4.454   6.259  15.275 -0.2632 -0.1344 -0.1562
   23DOPE   H8X 2937   4.357   6.312  15.281  0.1828  0.7441 -0.3709
   23DOPE   H8Y 2938   4.451   6.150  15.255  0.2982 -0.2467  0.3353
   23DOPE   C39 2939   4.540   6.324  15.166  0.5468 -0.2032  0.7094
   23DOPE   H9X 2940   4.527   6.433  15.159  0.2576 -0.2362  0.7059
   23DOPE  C310 2941   4.622   6.269  15.073 -0.0355 -0.2187  0.2377
   23DOPE  H10X 2942   4.675   6.337  15.004 -1.6465 -0.6248 -1.4842
   23DOPE  C311 2943   4.642   6.114  15.058 -0.6859  0.0406  0.3736
   23DOPE  H11X 2944   4.750   6.090  15.071 -0.4282  1.1196  0.3619
   23DOPE  H11Y 2945   4.596   6.053  15.139 -0.0089 -2.5599 -1.1059
   23DOPE  C312 2946   4.590   6.044  14.934  0.4809  0.1130  0.5881
   23DOPE  H12X 2947   4.481   6.021  14.942  0.4855 -0.0062  0.3304
   23DOPE  H12Y 2948   4.637   5.944  14.945 -0.1004 -0.3038 -0.4963
   23DOPE  C313 2949   4.642   6.111  14.807 -0.5873 -0.1568  0.5853
   23DOPE  H13X 2950   4.594   6.210  14.799  0.4042  0.7295  3.8275
   23DOPE  H13Y 2951   4.749   6.136  14.824 -0.1933 -2.0973  1.3192
   23DOPE  C314 2952   4.631   6.030  14.678 -0.6566 -1.0245  0.3391
   23DOPE  H14X 2953   4.690   5.938  14.696  2.1705  0.6939  0.5278
   23DOPE  H14Y 2954   4.670   6.083  14.588  0.1421 -0.9633  0.7133
   23DOPE  C315 2955   4.492   5.978  14.646 -0.2913 -0.4674  0.2980
   23DOPE  H15X 2956   4.442   5.923  14.729 -1.4162 -1.2248 -0.8508
   23DOPE  H15Y 2957   4.495   5.912  14.557 -2.2282  1.8174 -1.5911
   23DOPE  C316 2958   4.390   6.095  14.611  0.2659  0.2863 -0.3832
   23DOPE  H16X 2959   4.449   6.178  14.566 -0.0089  0.5106 -0.3333
   23DOPE  H16Y 2960   4.356   6.139  14.707  0.6212 -1.5706  0.6304
   23DOPE  C317 2961   4.268   6.056  14.529 -0.9429  0.0955  0.8044
   23DOPE  H17X 2962   4.223   6.147  14.482 -0.9488  0.6543  1.8536
   23DOPE  H17Y 2963   4.294   5.996  14.440 -0.0976 -2.8821  2.9247
   23DOPE  C318 2964   4.158   5.982  14.594  0.2504 -0.2256  0.2856
   23DOPE  H18X 2965   4.079   5.956  14.520  0.6987 -2.3926  0.5098
   23DOPE  H18Y 2966   4.192   5.876  14.597 -1.0750 -0.9887 -4.0102
   23DOPE  H18Z 2967   4.120   6.015  14.693  0.0939  0.7494 -0.0884
   24DOPE     N 2968   6.079   4.214  16.715 -0.2248  1.1154  0.0054
   24DOPE   HN1 2969   6.139   4.192  16.797  2.6177 -1.9966 -2.6084
   24DOPE   HN2 2970   5.982   4.201  16.751 -0.1820 -0.7429 -0.4445
   24DOPE   HN3 2971   6.085   4.137  16.645 -1.5251  0.5441  0.4792
   24DOPE   C12 2972   6.095   4.349  16.648 -0.3359 -0.3501  0.3569
   24DOPE  H12A 2973   6.036   4.348  16.554 -0.5879 -2.0134  0.5062
   24DOPE  H12B 2974   6.200   4.355  16.615  0.0901  0.6433  1.7906
   24DOPE   C11 2975   6.063   4.462  16.738  0.1152  0.2018  0.0593
   24DOPE  H11A 2976   6.089   4.444  16.845 -0.7912 -0.6799  0.1408
   24DOPE  H11B 2977   5.952   4.464  16.736  0.0771  0.1960 -3.7441
   24DOPE     P 2978   6.017   4.696  16.616 -0.2138  0.2690 -0.0201
   24DOPE   O13 2979   6.099   4.793  16.554 -0.1805 -0.5518 -0.4180
   24DOPE   O14 2980   5.918   4.743  16.714 -0.2545  0.1335  0.1992
   24DOPE   O11 2981   5.945   4.624  16.494  0.1761 -0.1598  0.3203
   24DOPE   O12 2982   6.110   4.584  16.685  0.0430 -0.1205 -0.5067
   24DOPE    C1 2983   6.027   4.564  16.394  0.6780 -0.3422  0.1386
   24DOPE    HA 2984   5.979   4.467  16.371  2.1171 -0.8207 -1.0088
   24DOPE    HB 2985   6.128   4.535  16.429  0.7496 -1.2516 -0.7896
   24DOPE    C2 2986   6.044   4.644  16.264  0.3969 -0.3325  0.5283
   24DOPE    HS 2987   6.104   4.737  16.276 -1.9347  1.6307 -1.7386
   24DOPE   O21 2988   5.911   4.676  16.214  0.0350  0.1929  0.0778
   24DOPE   C21 2989   5.900   4.794  16.147 -0.2737 -0.0107 -0.4062
   24DOPE   O22 2990   5.997   4.870  16.131 -0.5279 -0.0796  0.9406
   24DOPE   C22 2991   5.755   4.822  16.110  1.0767 -0.3825 -0.6491
   24DOPE   H2R 2992   5.729   4.924  16.145  0.5696 -0.0704 -1.8665
   24DOPE   H2S 2993   5.696   4.750  16.171 -1.3662  1.2165 -0.9889
   24DOPE    C3 2994   6.130   4.571  16.157 -0.0984 -0.2362  0.2030
   24DOPE    HX 2995   6.091   4.468  16.166 -0.4631 -0.4250 -2.6741
   24DOPE    HY 2996   6.233   4.567  16.200  0.0196  0.8324  0.0549
   24DOPE   O31 2997   6.120   4.623  16.017  0.3567  0.3922 -0.5743
   24DOPE   C31 2998   6.211   4.722  15.992  0.0754 -0.2021 -0.2342
   24DOPE   O32 2999   6.278   4.776  16.078  0.7838 -0.1059 -0.1757
   24DOPE   C32 3000   6.237   4.729  15.838  0.6940 -0.8946 -0.8128
   24DOPE   H2X 3001   6.345   4.704  15.831  0.4463 -1.9397 -1.1352
   24DOPE   H2Y 3002   6.171   4.662  15.779 -0.2445 -0.2817 -0.4855
   24DOPE   C23 3003   5.736   4.809  15.960  0.3058 -0.1164  0.6508
   24DOPE   H3R 3004   5.740   4.700  15.939  2.3820 -0.5676  2.8498
   24DOPE   H3S 3005   5.821   4.849  15.901 -0.0651 -1.7788 -1.1007
   24DOPE   C24 3006   5.609   4.873  15.907  0.4942 -0.2822 -0.6000
   24DOPE   H4R 3007   5.619   4.978  15.944  1.6468 -0.7747  0.5683
   24DOPE   H4S 3008   5.517   4.842  15.961  0.1224  1.0020 -0.4487
   24DOPE   C25 3009   5.579   4.865  15.757  0.0350  0.4166 -0.9855
   24DOPE   H5R 3010   5.555   4.758  15.740  4.0150 -0.5437 -1.4566
   24DOPE   H5S 3011   5.672   4.890  15.701  0.1260 -0.6486 -1.3369
   24DOPE   C26 3012   5.456   4.948  15.718  0.4142 -0.1117  0.2394
   24DOPE   H6R 3013   5.463   5.050  15.760  1.4058 -0.3155  0.5851
   24DOPE   H6S 3014   5.370   4.892  15.762  0.2006 -0.5858 -0.7653
   24DOPE   C27 3015   5.430   4.964  15.570 -0.2340 -0.1958 -0.2912
   24DOPE   H7R 3016   5.511   5.030  15.532 -0.8772  0.9097  0.2200
   24DOPE   H7S 3017   5.341   5.027  15.552 -2.2413 -3.0009 -0.8234
   24DOPE   C28 3018   5.400   4.838  15.491  0.0014 -0.1355  0.6768
   24DOPE   H8R 3019   5.330   4.764  15.536  0.7009 -1.2657 -0.0433
   24DOPE   H8S 3020   5.499   4.788  15.488 -0.0781 -0.3306 -2.5336
   24DOPE   C29 3021   5.353   4.862  15.350 -0.1828 -0.4622  0.4599
   24DOPE   H9R 3022   5.244   4.853  15.345 -0.1664 -0.1626 -0.9564
   24DOPE  C210 3023   5.415   4.910  15.240  0.4002 -0.3774  0.5645
   24DOPE  H10R 3024   5.345   4.936  15.159 -0.7331 -1.4134  1.1798
   24DOPE  C211 3025   5.558   4.947  15.219  0.0019  0.0270 -0.7599
   24DOPE  H11R 3026   5.597   4.926  15.321 -0.5682  0.5904 -0.4189
   24DOPE  H11S 3027   5.580   5.054  15.200  1.4718 -0.2032 -0.4869
   24DOPE  C212 3028   5.647   4.855  15.140 -0.0970  0.5927  0.3209
   24DOPE  H12R 3029   5.618   4.750  15.162 -0.0270  0.8012  1.4737
   24DOPE  H12S 3030   5.751   4.869  15.178  0.1810 -0.9835  0.2315
   24DOPE  C213 3031   5.630   4.876  14.987  0.1215  0.4111 -0.3222
   24DOPE  H13R 3032   5.661   4.980  14.960  0.3960  0.1340 -1.1058
   24DOPE  H13S 3033   5.522   4.862  14.965 -0.2058 -0.9246  1.8862
   24DOPE  C214 3034   5.708   4.768  14.906  0.0769 -0.5524  0.3882
   24DOPE  H14R 3035   5.700   4.669  14.956 -0.3686 -1.1003 -0.7403
   24DOPE  H14S 3036   5.815   4.799  14.903 -0.6190  1.9720 -1.0175
   24DOPE  C215 3037   5.658   4.741  14.766  0.2646  0.3684  0.3455
   24DOPE  H15R 3038   5.648   4.841  14.719  0.3323  0.9503  1.5268
   24DOPE  H15S 3039   5.556   4.698  14.777  0.8262 -0.9637  0.6000
   24DOPE  C216 3040   5.757   4.663  14.678  0.6600  0.2170 -0.0877
   24DOPE  H16R 3041   5.793   4.572  14.730  1.1335  0.7282  0.5030
   24DOPE  H16S 3042   5.852   4.709  14.642  0.4084 -0.9464 -2.4268
   24DOPE  C217 3043   5.698   4.619  14.548  0.1656  1.0015  0.1071
   24DOPE  H17R 3044   5.601   4.571  14.574 -0.3691  1.4192 -1.0475
   24DOPE  H17S 3045   5.768   4.544  14.504 -0.0621  0.2217  1.0376
   24DOPE  C218 3046   5.667   4.730  14.456 -0.1396  0.2967  0.1398
   24DOPE  H18R 3047   5.610   4.689  14.370  0.4992 -0.2444 -0.0278
   24DOPE  H18S 3048   5.760   4.778  14.418 -0.0532 -1.2370 -1.7038
   24DOPE  H18T 3049   5.603   4.806  14.505 -0.7243 -0.5874  0.7866
   24DOPE   C33 3050   6.225   4.883  15.791  0.0289 -0.3674  0.0397
   24DOPE   H3X 3051   6.312   4.944  15.825 -0.1307  0.2382 -0.6239
   24DOPE   H3Y 3052   6.133   4.925  15.836  0.2621 -1.7175  1.9204
   24DOPE   C34 3053   6.237   4.886  15.639 -0.1346 -0.5229  0.1502
   24DOPE   H4X 3054   6.317   4.816  15.604 -0.6037  0.0708 -2.3201
   24DOPE   H4Y 3055   6.138   4.862  15.595 -0.7660  2.6416 -0.3689
   24DOPE   C35 3056   6.266   5.024  15.590  0.0112 -0.7459 -0.5014
   24DOPE   H5X 3057   6.370   5.058  15.611 -0.2109 -0.2605 -0.1708
   24DOPE   H5Y 3058   6.205   5.097  15.647 -0.5110  1.6469 -3.8244
   24DOPE   C36 3059   6.237   5.037  15.443  0.3024  0.6341  0.1586
   24DOPE   H6X 3060   6.216   5.143  15.414 -3.0133  0.2893  0.9232
   24DOPE   H6Y 3061   6.140   4.985  15.429  0.3339  0.0291  1.9538
   24DOPE   C37 3062   6.338   4.964  15.351 -0.1922 -0.6785 -0.0815
   24DOPE   H7X 3063   6.436   5.012  15.372 -0.3099 -0.7449  0.6282
   24DOPE   H7Y 3064   6.353   4.856  15.372 -1.8918 -0.9389 -0.0320
   24DOPE   C38 3065   6.305   4.984  15.201 -0.1009 -0.4209  0.3871
   24DOPE   H8X 3066   6.395   4.957  15.142 -0.9660 -1.9837 -0.2710
   24DOPE   H8Y 3067   6.283   5.091  15.178  2.1842 -0.2089 -1.1559
   24DOPE   C39 3068   6.197   4.899  15.147  0.5125  0.1530 -0.6679
   24DOPE   H9X 3069   6.144   4.853  15.232 -0.8140 -0.3220 -1.7205
   24DOPE  C310 3070   6.147   4.888  15.024  0.4531 -0.2737  0.4349
   24DOPE  H10X 3071   6.063   4.821  15.002  0.3734  0.0390 -0.2259
   24DOPE  C311 3072   6.187   4.978  14.913 -0.9614 -0.5179 -0.0164
   24DOPE  H11X 3073   6.236   5.070  14.949 -0.9058 -1.1127  1.5009
   24DOPE  H11Y 3074   6.276   4.935  14.862  0.4411  1.5853  0.5605
   24DOPE  C312 3075   6.075   5.008  14.808 -0.1929 -0.7314 -0.6936
   24DOPE  H12X 3076   6.009   5.094  14.831  0.4663  0.1506 -1.9727
   24DOPE  H12Y 3077   6.014   4.920  14.777 -1.6202 -0.1470  0.3337
   24DOPE  C313 3078   6.145   5.040  14.668  0.2599  0.4272 -0.1311
   24DOPE  H13X 3079   6.222   5.119  14.681 -0.3516  0.8607  1.0093
   24DOPE  H13Y 3080   6.214   4.956  14.642  1.1348  1.4079 -1.0764
   24DOPE  C314 3081   6.045   5.061  14.555  0.3536 -0.0745 -0.6070
   24DOPE  H14X 3082   5.966   5.138  14.571 -0.9987 -1.4587 -0.3661
   24DOPE  H14Y 3083   5.977   4.980  14.521  1.1097 -0.3299 -1.5535
   24DOPE  C315 3084   6.124   5.087  14.426 -0.4243 -0.0019  0.1039
   24DOPE  H15X 3085   6.074   5.039  14.339  1.4778 -2.7433  0.3903
   24DOPE  H15Y 3086   6.209   5.017  14.414 -1.4471 -1.0125 -1.6021
   24DOPE  C316 3087   6.141   5.238  14.414  0.0908 -0.0840  0.1320
   24DOPE  H16X 3088   6.200   5.279  14.498 -1.1306 -1.0240  1.4946
   24DOPE  H16Y 3089   6.046   5.294  14.428 -0.0919 -0.5544  0.8080
   24DOPE  C317 3090   6.185   5.277  14.269  0.8071 -0.4007 -0.8007
   24DOPE  H17X 3091   6.201   5.387  14.262  0.4262 -0.3126 -0.3111
   24DOPE  H17Y 3092   6.276   5.221  14.239  1.8803  1.6863 -1.6812
   24DOPE  C318 3093   6.077   5.266  14.155  0.1433  0.1169  0.8209
   24DOPE  H18X 3094   6.005   5.350  14.168  0.8776  0.7262  1.0669
   24DOPE  H18Y 3095   6.135   5.294  14.064  0.6011  0.9341  1.3491
   24DOPE  H18Z 3096   6.034   5.164  14.160 -0.6230  0.3092 -1.0839
   25DOPE     N 3097   6.594   5.095  16.398 -0.4579  0.2835 -0.2433
   25DOPE   HN1 3098   6.649   5.171  16.354 -2.4263  1.2891 -1.0833
   25DOPE   HN2 3099   6.556   5.035  16.322  0.5857 -1.5350  0.5993
   25DOPE   HN3 3100   6.510   5.140  16.440 -0.1239  0.4256  0.2751
   25DOPE   C12 3101   6.679   5.029  16.500 -0.5258  0.9022 -0.4053
   25DOPE  H12A 3102   6.642   4.925  16.505 -0.1358  0.8149  1.6098
   25DOPE  H12B 3103   6.680   5.092  16.591  1.7642  0.7469 -0.2695
   25DOPE   C11 3104   6.826   5.037  16.452 -0.0121  0.2952  0.0130
   25DOPE  H11A 3105   6.825   4.999  16.347  2.5356 -2.2260  0.7774
   25DOPE  H11B 3106   6.887   4.969  16.515  0.4671  0.3950 -0.3402
   25DOPE     P 3107   7.032   5.180  16.430 -0.3854 -0.2019  0.0587
   25DOPE   O13 3108   7.098   5.120  16.545  0.3120  0.0349 -0.7033
   25DOPE   O14 3109   7.079   5.315  16.399 -0.2736 -0.0628  0.5053
   25DOPE   O11 3110   7.057   5.088  16.309  0.5181 -0.1212  0.4787
   25DOPE   O12 3111   6.874   5.172  16.450 -0.0451  0.0488  0.7041
   25DOPE    C1 3112   7.163   5.087  16.219 -0.3560 -0.5967  0.6158
   25DOPE    HA 3113   7.194   4.987  16.183  0.3590 -0.0509 -0.3678
   25DOPE    HB 3114   7.245   5.145  16.266 -0.7665  1.3972 -0.9662
   25DOPE    C2 3115   7.131   5.162  16.087  0.2032 -0.9594  0.7005
   25DOPE    HS 3116   7.120   5.269  16.115  0.1035 -0.9737  0.7149
   25DOPE   O21 3117   7.011   5.101  16.028 -0.1673  0.7465 -0.3775
   25DOPE   C21 3118   6.927   5.190  15.972  0.8031 -0.3055  0.2842
   25DOPE   O22 3119   6.946   5.311  15.975 -0.5590  0.5023 -0.0294
   25DOPE   C22 3120   6.806   5.111  15.916 -0.3853  0.2816  0.2519
   25DOPE   H2R 3121   6.774   5.054  16.006  1.5373  1.9282  2.0786
   25DOPE   H2S 3122   6.848   5.042  15.840  1.0674  1.1361  0.2464
   25DOPE    C3 3123   7.255   5.162  15.984  0.5415  0.3376 -0.6813
   25DOPE    HX 3124   7.263   5.058  15.946 -0.4038 -0.4848  1.2394
   25DOPE    HY 3125   7.346   5.174  16.047 -1.6359  0.9385  2.5609
   25DOPE   O31 3126   7.249   5.251  15.872 -0.8287  0.2563 -0.4695
   25DOPE   C31 3127   7.255   5.375  15.904 -0.8462 -0.6465  0.2753
   25DOPE   O32 3128   7.274   5.424  16.018 -0.4224  0.6562  0.0357
   25DOPE   C32 3129   7.231   5.473  15.787  0.2927  0.6594 -0.0687
   25DOPE   H2X 3130   7.136   5.523  15.814  0.2174 -0.2944  1.5924
   25DOPE   H2Y 3131   7.308   5.553  15.785 -1.0170  1.9624 -0.1276
   25DOPE   C23 3132   6.690   5.183  15.842 -0.0812 -0.1272 -0.1307
   25DOPE   H3R 3133   6.654   5.269  15.903 -0.9429 -0.7966  0.3244
   25DOPE   H3S 3134   6.606   5.113  15.827 -2.0609  1.9978  0.4882
   25DOPE   C24 3135   6.731   5.233  15.706 -0.3150 -0.3821 -0.3318
   25DOPE   H4R 3136   6.744   5.144  15.640 -1.8018  0.7837 -2.3192
   25DOPE   H4S 3137   6.821   5.297  15.719  1.0059 -1.7423 -2.1386
   25DOPE   C25 3138   6.620   5.319  15.641 -0.1545 -0.5946 -0.0108
   25DOPE   H5R 3139   6.602   5.406  15.707  0.1980  0.0128 -0.7045
   25DOPE   H5S 3140   6.525   5.261  15.645  0.0931 -1.0044  0.0371
   25DOPE   C26 3141   6.641   5.348  15.492  0.2344  0.3524  0.1095
   25DOPE   H6R 3142   6.565   5.422  15.459  0.3128  1.5813  2.4596
   25DOPE   H6S 3143   6.622   5.253  15.438 -3.0374  0.3792  0.9640
   25DOPE   C27 3144   6.777   5.397  15.460 -0.0570 -0.0417 -0.0184
   25DOPE   H7R 3145   6.860   5.326  15.481 -1.0113 -0.9681  0.6967
   25DOPE   H7S 3146   6.786   5.495  15.513 -1.7100  0.0878  0.0639
   25DOPE   C28 3147   6.791   5.432  15.315 -0.2534  0.3852  0.1841
   25DOPE   H8R 3148   6.715   5.511  15.300  0.5545  0.9655 -1.0168
   25DOPE   H8S 3149   6.763   5.343  15.255 -0.3306  0.4780  0.0828
   25DOPE   C29 3150   6.922   5.478  15.272  0.0531  0.0280 -0.3207
   25DOPE   H9R 3151   6.926   5.586  15.252  1.2435 -0.1103 -0.9066
   25DOPE  C210 3152   7.026   5.405  15.230 -0.0234  0.1752  1.2958
   25DOPE  H10R 3153   7.118   5.460  15.206 -1.2904  2.7724  1.9953
   25DOPE  C211 3154   7.042   5.255  15.242 -0.0486  0.0995  0.2548
   25DOPE  H11R 3155   6.947   5.212  15.280 -0.1833  0.7842  0.7089
   25DOPE  H11S 3156   7.126   5.221  15.306  1.9211 -0.0199 -2.2190
   25DOPE  C212 3157   7.037   5.185  15.107 -0.6076  0.6979  0.0651
   25DOPE  H12R 3158   6.957   5.229  15.044  0.5782  0.5431 -1.6001
   25DOPE  H12S 3159   7.030   5.075  15.124 -1.2001  0.5329 -1.1878
   25DOPE  C213 3160   7.165   5.206  15.029  0.2452  0.2174  0.6388
   25DOPE  H13R 3161   7.247   5.148  15.077 -1.2853 -0.8888  2.0202
   25DOPE  H13S 3162   7.191   5.313  15.044  2.6762 -0.4444  1.7339
   25DOPE  C214 3163   7.150   5.179  14.880  0.1277 -0.7130  0.7707
   25DOPE  H14R 3164   7.250   5.186  14.833  0.6902 -2.0120  1.7101
   25DOPE  H14S 3165   7.083   5.262  14.849  1.5614 -0.3765 -1.6567
   25DOPE  C215 3166   7.102   5.043  14.834  0.2001  0.5772  0.3097
   25DOPE  H15R 3167   7.008   5.019  14.888  0.0290  0.7312  0.0799
   25DOPE  H15S 3168   7.168   4.960  14.866 -1.4320  0.0541  2.5775
   25DOPE  C216 3169   7.093   5.037  14.673  0.3329  0.1803 -0.9013
   25DOPE  H16R 3170   7.196   5.036  14.633  1.4178 -0.6493  1.6742
   25DOPE  H16S 3171   7.043   5.128  14.633 -1.5831 -0.2148  0.4716
   25DOPE  C217 3172   7.018   4.907  14.624 -0.2257 -0.0022 -0.4385
   25DOPE  H17R 3173   6.908   4.908  14.645 -0.1945 -0.5438 -0.2459
   25DOPE  H17S 3174   7.055   4.827  14.691 -1.4327  0.5363  0.9520
   25DOPE  C218 3175   7.045   4.886  14.471  0.3793  0.2112 -0.9588
   25DOPE  H18R 3176   7.005   4.972  14.413  0.2637  0.2933 -0.7584
   25DOPE  H18S 3177   6.989   4.794  14.443 -2.0944  1.0077  1.0554
   25DOPE  H18T 3178   7.156   4.877  14.459  0.4317 -0.0541 -0.2986
   25DOPE   C33 3179   7.232   5.409  15.642  0.1974  0.4690  0.1728
   25DOPE   H3X 3180   7.167   5.464  15.572  0.6569 -0.4850 -1.0340
   25DOPE   H3Y 3181   7.186   5.308  15.639 -2.1166  1.4078  1.4326
   25DOPE   C34 3182   7.374   5.405  15.582 -0.2380  0.4103 -0.3123
   25DOPE   H4X 3183   7.408   5.507  15.554 -1.0869  0.4553 -1.2333
   25DOPE   H4Y 3184   7.439   5.356  15.657 -0.9522 -1.4048 -0.8366
   25DOPE   C35 3185   7.380   5.311  15.464 -0.4141 -0.4898 -0.1038
   25DOPE   H5X 3186   7.313   5.348  15.384  1.5043 -0.4820 -1.8044
   25DOPE   H5Y 3187   7.345   5.211  15.499 -1.6290 -0.0491 -0.0275
   25DOPE   C36 3188   7.525   5.300  15.414 -0.1447  0.1834 -0.4010
   25DOPE   H6X 3189   7.535   5.207  15.353  1.6839 -0.1610  0.3497
   25DOPE   H6Y 3190   7.600   5.296  15.496 -1.1128  0.3580  0.5103
   25DOPE   C37 3191   7.584   5.412  15.331  0.0102  0.3257  0.3408
   25DOPE   H7X 3192   7.610   5.495  15.400  2.0853 -0.7697  0.9707
   25DOPE   H7Y 3193   7.684   5.372  15.303 -0.0506 -0.2876  0.9865
   25DOPE   C38 3194   7.503   5.453  15.204  0.2440  0.4754 -0.3211
   25DOPE   H8X 3195   7.536   5.555  15.172 -0.5422  0.9853  0.4244
   25DOPE   H8Y 3196   7.399   5.470  15.242  0.1110 -0.6182 -0.1857
   25DOPE   C39 3197   7.512   5.351  15.093 -0.6263 -0.0520 -0.5032
   25DOPE   H9X 3198   7.489   5.246  15.115 -0.4305 -0.2641 -1.2699
   25DOPE  C310 3199   7.545   5.367  14.964  0.9633  0.1728  0.1435
   25DOPE  H10X 3200   7.514   5.287  14.896  0.1986 -0.9404  1.7349
   25DOPE  C311 3201   7.558   5.503  14.904 -0.0023 -0.1971  0.1427
   25DOPE  H11X 3202   7.473   5.564  14.942  0.4496 -0.0878  0.9960
   25DOPE  H11Y 3203   7.655   5.548  14.934 -0.0574 -1.3205  2.2089
   25DOPE  C312 3204   7.549   5.494  14.751  0.1578  0.1664  0.7319
   25DOPE  H12X 3205   7.565   5.594  14.706  1.3568 -0.3557 -0.0512
   25DOPE  H12Y 3206   7.445   5.467  14.723  0.4238 -1.0186  0.8357
   25DOPE  C313 3207   7.650   5.407  14.681  0.6766  0.4436  0.3491
   25DOPE  H13X 3208   7.745   5.396  14.737 -0.6605 -0.5791  2.5600
   25DOPE  H13Y 3209   7.611   5.304  14.684 -0.3912  0.7975 -0.5972
   25DOPE  C314 3210   7.660   5.446  14.535  0.2919  0.5675  0.1440
   25DOPE  H14X 3211   7.706   5.547  14.529  0.5324  0.4467 -0.0113
   25DOPE  H14Y 3212   7.557   5.459  14.495  0.9738 -2.1747 -2.9509
   25DOPE  C315 3213   7.741   5.350  14.445  0.5246 -0.2924 -1.4687
   25DOPE  H15X 3214   7.775   5.396  14.350  1.1837  2.3997 -0.0427
   25DOPE  H15Y 3215   7.675   5.264  14.421 -0.0936 -0.2893  0.1018
   25DOPE  C316 3216   7.867   5.298  14.516 -0.0533  0.7500  0.2954
   25DOPE  H16X 3217   7.844   5.232  14.602 -0.4747 -1.1539 -1.2190
   25DOPE  H16Y 3218   7.932   5.382  14.550  0.4709 -0.2419  1.8202
   25DOPE  C317 3219   7.962   5.224  14.420  0.4113 -0.5735 -0.8267
   25DOPE  H17X 3220   7.949   5.277  14.323 -1.7197 -0.1396 -0.3530
   25DOPE  H17Y 3221   8.063   5.230  14.466 -0.7585 -1.6958  2.0932
   25DOPE  C318 3222   7.913   5.079  14.396  0.5832 -0.3089  0.1271
   25DOPE  H18X 3223   7.819   5.065  14.339  1.1258 -0.0256 -0.8569
   25DOPE  H18Y 3224   7.987   5.019  14.338 -0.3804 -2.0835  0.6581
   25DOPE  H18Z 3225   7.893   5.020  14.488 -1.2864 -1.4793 -0.9796
   26DOPE     N 3226   6.029   6.315  16.051  0.3583  0.3377  0.5278
   26DOPE   HN1 3227   5.950   6.290  16.115  0.7049  0.3559  0.9650
   26DOPE   HN2 3228   6.056   6.225  16.006 -0.4832  0.6588 -0.6379
   26DOPE   HN3 3229   6.112   6.331  16.112 -0.3380  0.7793  1.3912
   26DOPE   C12 3230   6.018   6.429  15.959  0.6318 -0.1047  0.7804
   26DOPE  H12A 3231   5.944   6.404  15.879 -0.1522 -0.2442  1.5429
   26DOPE  H12B 3232   6.121   6.451  15.925  1.0470 -1.6701  0.9666
   26DOPE   C11 3233   5.974   6.563  16.021  0.0043  0.0356 -0.0110
   26DOPE  H11A 3234   5.866   6.556  16.044 -0.0742 -0.5227 -0.5211
   26DOPE  H11B 3235   5.976   6.640  15.941 -0.9675  0.4612  0.3647
   26DOPE     P 3236   6.003   6.701  16.235  0.2293 -0.4031 -0.0671
   26DOPE   O13 3237   6.118   6.749  16.314  0.0142  0.1107 -0.1077
   26DOPE   O14 3238   5.906   6.627  16.310 -0.2421 -0.0979  0.3765
   26DOPE   O11 3239   5.927   6.820  16.163  0.5475 -0.5553  0.3385
   26DOPE   O12 3240   6.064   6.608  16.124 -0.3126  0.0304  0.0013
   26DOPE    C1 3241   5.984   6.943  16.125 -0.6268 -0.3284  0.1272
   26DOPE    HA 3242   6.069   6.975  16.190 -0.9979 -1.9614  1.4817
   26DOPE    HB 3243   5.909   7.021  16.148  0.3837  0.7999 -0.2750
   26DOPE    C2 3244   6.039   6.950  15.976 -0.6140  0.1964 -0.3900
   26DOPE    HS 3245   6.058   7.057  15.949  0.0019 -0.3402 -2.2141
   26DOPE   O21 3246   5.957   6.881  15.884  0.0720  0.8190  0.5314
   26DOPE   C21 3247   5.838   6.926  15.862 -0.2925 -0.1319 -0.4547
   26DOPE   O22 3248   5.787   7.027  15.908 -0.5613  0.4594 -0.0205
   26DOPE   C22 3249   5.794   6.850  15.739  0.0054  0.3096 -0.4776
   26DOPE   H2R 3250   5.687   6.823  15.751 -0.5746  3.0162  1.3378
   26DOPE   H2S 3251   5.849   6.754  15.724  0.2738  0.8009 -2.9109
   26DOPE    C3 3252   6.184   6.885  15.967  0.0848  0.4842 -0.2869
   26DOPE    HX 3253   6.170   6.776  15.949  1.7830  0.4850 -1.9984
   26DOPE    HY 3254   6.238   6.900  16.063  0.0114  1.4383 -0.3852
   26DOPE   O31 3255   6.261   6.943  15.859  0.3935  0.1956 -0.2563
   26DOPE   C31 3256   6.338   6.867  15.791  0.6042 -0.1012 -0.6753
   26DOPE   O32 3257   6.357   6.745  15.803  0.4180 -0.2015 -0.1687
   26DOPE   C32 3258   6.397   6.945  15.672 -0.3984 -0.2667 -0.2830
   26DOPE   H2X 3259   6.338   6.921  15.581  0.2106 -0.4971 -0.6271
   26DOPE   H2Y 3260   6.387   7.054  15.690  0.5699 -0.4116  1.3631
   26DOPE   C23 3261   5.806   6.929  15.607 -0.3391  0.1323  0.6018
   26DOPE   H3R 3262   5.798   6.872  15.512 -0.5914 -0.1000  0.7617
   26DOPE   H3S 3263   5.906   6.975  15.597  0.3000 -1.4944 -0.9354
   26DOPE   C24 3264   5.716   7.043  15.603  0.4749 -0.0252  0.4035
   26DOPE   H4R 3265   5.732   7.109  15.691  0.3931  0.5928 -0.0405
   26DOPE   H4S 3266   5.615   6.996  15.604  1.4021 -2.1360  0.7324
   26DOPE   C25 3267   5.733   7.125  15.472  0.4352  0.0292 -0.0290
   26DOPE   H5R 3268   5.837   7.153  15.446  0.2620  0.9395  0.2448
   26DOPE   H5S 3269   5.661   7.209  15.476  0.5053  0.0927 -0.1032
   26DOPE   C26 3270   5.666   7.050  15.359  0.2690  0.2132  0.2363
   26DOPE   H6R 3271   5.584   6.981  15.388  1.4005 -2.5542 -2.5694
   26DOPE   H6S 3272   5.747   6.984  15.322  0.4156  0.1635  0.6441
   26DOPE   C27 3273   5.627   7.151  15.245 -0.2001  0.1971  0.6099
   26DOPE   H7R 3274   5.707   7.228  15.241  0.1077 -0.0497  1.6414
   26DOPE   H7S 3275   5.533   7.201  15.278 -0.5768  0.8740 -1.3326
   26DOPE   C28 3276   5.602   7.063  15.125  0.3801  0.4032  0.0155
   26DOPE   H8R 3277   5.504   7.015  15.147  1.4899 -2.3445 -0.6455
   26DOPE   H8S 3278   5.674   6.982  15.100 -0.0903 -0.1203  0.3328
   26DOPE   C29 3279   5.581   7.147  15.003 -0.3609 -0.0935  0.4086
   26DOPE   H9R 3280   5.492   7.213  15.000  2.9799  4.9676  0.7449
   26DOPE  C210 3281   5.666   7.166  14.907 -0.8669 -0.0465  0.4167
   26DOPE  H10R 3282   5.634   7.236  14.828  1.9657  2.1667  1.0652
   26DOPE  C211 3283   5.799   7.093  14.877 -0.9193  0.7891 -0.6771
   26DOPE  H11R 3284   5.806   6.992  14.924 -0.9561  1.8850  1.8197
   26DOPE  H11S 3285   5.874   7.148  14.939 -1.9516 -0.6217  2.0267
   26DOPE  C212 3286   5.843   7.089  14.726  0.3584 -0.6822  0.1540
   26DOPE  H12R 3287   5.944   7.042  14.727  0.7847  0.1969  1.6785
   26DOPE  H12S 3288   5.857   7.192  14.689  0.6277 -1.1283 -1.0221
   26DOPE  C213 3289   5.738   7.015  14.641 -0.0242 -0.3438  0.5742
   26DOPE  H13R 3290   5.636   7.060  14.646 -0.3617 -1.1878  2.9626
   26DOPE  H13S 3291   5.730   6.911  14.679  1.4240 -0.3073  1.0238
   26DOPE  C214 3292   5.792   6.996  14.497  0.2329 -0.3462  0.0343
   26DOPE  H14R 3293   5.738   6.917  14.442  1.1709 -0.0255 -1.3953
   26DOPE  H14S 3294   5.896   6.957  14.487  0.4677 -0.4779  2.3526
   26DOPE  C215 3295   5.775   7.132  14.411  0.1019 -0.1936  0.1412
   26DOPE  H15R 3296   5.853   7.128  14.331 -0.3039 -1.7768 -0.2145
   26DOPE  H15S 3297   5.806   7.216  14.475 -2.0376 -0.6867  1.9299
   26DOPE  C216 3298   5.634   7.158  14.354 -0.4565  0.1452  0.4368
   26DOPE  H16R 3299   5.573   7.176  14.445  1.0662  0.1970  1.4660
   26DOPE  H16S 3300   5.618   7.061  14.301  2.2835 -0.5544  0.7517
   26DOPE  C217 3301   5.617   7.274  14.257 -0.0831  0.6046  0.1549
   26DOPE  H17R 3302   5.677   7.257  14.165 -2.0395 -1.4768 -0.8486
   26DOPE  H17S 3303   5.650   7.367  14.307  1.3745  0.2004 -0.0252
   26DOPE  C218 3304   5.474   7.297  14.221  0.7427 -0.2067  0.3777
   26DOPE  H18R 3305   5.427   7.204  14.183 -1.4731  0.9523  0.0801
   26DOPE  H18S 3306   5.471   7.376  14.144  2.6477 -0.3038  0.1722
   26DOPE  H18T 3307   5.414   7.339  14.305 -0.7331  1.8815 -1.6020
   26DOPE   C33 3308   6.545   6.916  15.645 -0.3967 -0.3011  0.0512
   26DOPE   H3X 3309   6.546   6.810  15.612 -1.4172  0.4529 -2.7169
   26DOPE   H3Y 3310   6.613   6.923  15.732 -1.2493  1.6676  0.6390
   26DOPE   C34 3311   6.600   6.996  15.526 -0.0488  0.0197  0.5232
   26DOPE   H4X 3312   6.610   7.106  15.540  0.4811  0.0165  0.2016
   26DOPE   H4Y 3313   6.705   6.975  15.497 -0.8097 -3.4432 -0.1573
   26DOPE   C35 3314   6.530   6.960  15.396 -0.3877  0.1641 -0.2542
   26DOPE   H5X 3315   6.437   7.020  15.380 -0.8840 -0.8094 -1.0955
   26DOPE   H5Y 3316   6.508   6.851  15.401  0.0104  0.1320  1.9289
   26DOPE   C36 3317   6.633   6.967  15.281  0.2910 -0.0355 -0.1951
   26DOPE   H6X 3318   6.721   6.911  15.319 -0.2924  0.3423  1.8485
   26DOPE   H6Y 3319   6.655   7.074  15.261 -2.2151  0.5307 -0.2345
   26DOPE   C37 3320   6.578   6.901  15.156 -0.1823  0.3708 -0.2763
   26DOPE   H7X 3321   6.543   6.802  15.192 -1.9429  0.8730 -0.5009
   26DOPE   H7Y 3322   6.492   6.955  15.110 -0.5641  1.0031  1.1415
   26DOPE   C38 3323   6.686   6.884  15.050  0.0682 -0.6633 -0.0253
   26DOPE   H8X 3324   6.658   6.802  14.980  1.5097 -0.0824 -1.3408
   26DOPE   H8Y 3325   6.776   6.840  15.098  1.3248 -0.0986 -1.7509
   26DOPE   C39 3326   6.718   7.010  14.977 -0.7003  0.2687 -0.0092
   26DOPE   H9X 3327   6.720   7.096  15.045 -0.0127 -0.2709  0.6850
   26DOPE  C310 3328   6.697   7.031  14.847  0.3236  0.1102  0.1629
   26DOPE  H10X 3329   6.695   7.136  14.814  0.5277  0.6402  1.7465
   26DOPE  C311 3330   6.686   6.926  14.737 -0.0202  0.0189  0.0950
   26DOPE  H11X 3331   6.755   6.938  14.651 -1.0919 -1.5335 -1.0474
   26DOPE  H11Y 3332   6.729   6.833  14.778  3.3816  1.4290  0.0195
   26DOPE  C312 3333   6.547   6.909  14.677 -0.1279  0.4784  0.0013
   26DOPE  H12X 3334   6.507   7.010  14.653  2.6061  1.0295 -2.9931
   26DOPE  H12Y 3335   6.479   6.862  14.751 -0.2906  3.1064  1.6564
   26DOPE  C313 3336   6.547   6.826  14.545  0.7473  0.4437 -0.0523
   26DOPE  H13X 3337   6.628   6.750  14.544  0.7585  0.4632 -1.3213
   26DOPE  H13Y 3338   6.455   6.764  14.544  0.7452  0.4478 -0.1009
   26DOPE  C314 3339   6.544   6.913  14.412  0.6154  0.0043 -0.0312
   26DOPE  H14X 3340   6.645   6.959  14.409  1.6938 -2.2701 -0.7590
   26DOPE  H14Y 3341   6.476   7.000  14.424  1.7767  0.8460  0.6418
   26DOPE  C315 3342   6.525   6.846  14.279  0.3693 -0.0642 -0.5227
   26DOPE  H15X 3343   6.625   6.805  14.252  0.4120  0.1761 -0.7376
   26DOPE  H15Y 3344   6.479   6.920  14.210 -2.3255  3.4217  4.4012
   26DOPE  C316 3345   6.422   6.734  14.278 -0.4019 -0.8264 -0.0628
   26DOPE  H16X 3346   6.327   6.764  14.327 -0.6707 -1.7165 -0.0307
   26DOPE  H16Y 3347   6.471   6.656  14.340 -0.8366  1.5404  3.5554
   26DOPE  C317 3348   6.392   6.699  14.139  0.2521 -0.1950  0.2101
   26DOPE  H17X 3349   6.318   6.778  14.114 -1.3643 -1.4628  0.8110
   26DOPE  H17Y 3350   6.481   6.702  14.073 -1.5461 -0.6282 -2.4115
   26DOPE  C318 3351   6.330   6.560  14.125 -0.5841  0.2340 -0.5734
   26DOPE  H18X 3352   6.396   6.473  14.145 -1.6074 -0.5690 -0.5556
   26DOPE  H18Y 3353   6.243   6.553  14.195  0.0100  0.5729  0.2086
   26DOPE  H18Z 3354   6.292   6.553  14.021  2.9830  1.3155 -2.1015
   27DOPE     N 3355   5.566   0.620  16.525 -0.8257  0.4139 -0.8100
   27DOPE   HN1 3356   5.544   0.520  16.506  1.1171  0.0328 -1.2636
   27DOPE   HN2 3357   5.543   0.686  16.448 -2.2970  2.4252  1.2117
   27DOPE   HN3 3358   5.668   0.624  16.544 -0.8751 -0.9999 -0.1308
   27DOPE   C12 3359   5.493   0.656  16.656 -0.7784 -0.0248  0.2039
   27DOPE  H12A 3360   5.384   0.667  16.634 -0.7750 -2.4522 -1.3428
   27DOPE  H12B 3361   5.536   0.750  16.699 -1.4734  0.1088  0.6226
   27DOPE   C11 3362   5.501   0.541  16.758  0.3892 -0.5385 -0.2218
   27DOPE  H11A 3363   5.455   0.582  16.851 -0.3399  0.7130 -1.1013
   27DOPE  H11B 3364   5.607   0.512  16.776  0.7713  1.2999  0.7647
   27DOPE     P 3365   5.285   0.396  16.752 -0.1176 -0.1176  0.2677
   27DOPE   O13 3366   5.235   0.490  16.851  0.3987  0.1937 -0.2943
   27DOPE   O14 3367   5.288   0.251  16.794  0.5010  0.1994  0.6260
   27DOPE   O11 3368   5.208   0.417  16.616  0.7402  0.3559 -0.2140
   27DOPE   O12 3369   5.430   0.426  16.703 -0.8987 -0.3282 -0.0348
   27DOPE    C1 3370   5.235   0.332  16.502 -0.3368 -0.0786 -0.3333
   27DOPE    HA 3371   5.338   0.291  16.488 -0.0201  0.9175 -1.0152
   27DOPE    HB 3372   5.224   0.387  16.406  0.9278  1.1443  0.1857
   27DOPE    C2 3373   5.132   0.222  16.491 -0.3758 -0.4998 -0.5338
   27DOPE    HS 3374   5.143   0.151  16.576 -3.7507 -1.3578 -0.6711
   27DOPE   O21 3375   5.146   0.144  16.370  0.6542  0.0455 -0.0368
   27DOPE   C21 3376   5.240   0.059  16.350 -0.3260  0.1762  0.2466
   27DOPE   O22 3377   5.341   0.046  16.422  0.3472  0.3226 -0.3863
   27DOPE   C22 3378   5.207  -0.023  16.228 -0.3419 -0.3598 -0.1137
   27DOPE   H2R 3379   5.146   0.040  16.159  0.9979  1.4671  0.2928
   27DOPE   H2S 3380   5.147  -0.111  16.259  1.9483 -1.5425  1.1582
   27DOPE    C3 3381   4.989   0.274  16.483  0.1125  0.3115  0.0609
   27DOPE    HX 3382   4.965   0.318  16.582  3.6129  0.9195  0.7680
   27DOPE    HY 3383   4.910   0.198  16.463 -1.0797  1.2571  1.0191
   27DOPE   O31 3384   4.989   0.388  16.394  0.0649 -0.0841  0.1867
   27DOPE   C31 3385   4.866   0.410  16.340 -0.4113  0.1508  0.0380
   27DOPE   O32 3386   4.766   0.348  16.370  0.4052 -0.0337 -0.5673
   27DOPE   C32 3387   4.865   0.537  16.261  0.9823  0.0681 -0.2834
   27DOPE   H2X 3388   4.827   0.620  16.324  0.2774  0.1069 -0.7562
   27DOPE   H2Y 3389   4.970   0.556  16.229  0.8565  0.1502 -0.6466
   27DOPE   C23 3390   5.343  -0.066  16.155  0.3527  0.1496 -0.0532
   27DOPE   H3R 3391   5.401  -0.129  16.226 -0.3493  0.6621  1.0016
   27DOPE   H3S 3392   5.409   0.021  16.136  1.8157 -1.1294 -1.0503
   27DOPE   C24 3393   5.329  -0.158  16.024  0.3585  0.5451  0.1434
   27DOPE   H4R 3394   5.283  -0.253  16.058  1.1370  0.6705  1.6424
   27DOPE   H4S 3395   5.427  -0.189  15.981  0.7007  0.5610  0.8988
   27DOPE   C25 3396   5.226  -0.102  15.925 -0.1734 -0.1041  0.1620
   27DOPE   H5R 3397   5.216   0.008  15.944  1.8793  0.0306  0.6814
   27DOPE   H5S 3398   5.124  -0.139  15.951  0.5728 -0.4969  2.8803
   27DOPE   C26 3399   5.262  -0.119  15.777 -0.1177  0.2539 -0.5709
   27DOPE   H6R 3400   5.191  -0.055  15.721 -1.0463 -1.6784 -1.7010
   27DOPE   H6S 3401   5.237  -0.223  15.748 -1.1697 -0.3353  2.1074
   27DOPE   C27 3402   5.407  -0.080  15.740  0.0390 -0.0807 -0.1399
   27DOPE   H7R 3403   5.476  -0.150  15.790  2.5983  0.7982 -2.2174
   27DOPE   H7S 3404   5.419   0.025  15.775 -1.1118  0.1597 -0.4082
   27DOPE   C28 3405   5.420  -0.092  15.583 -0.0080  0.0242  0.7905
   27DOPE   H8R 3406   5.372   0.002  15.548 -2.0834 -1.1040  0.3822
   27DOPE   H8S 3407   5.346  -0.171  15.554 -1.0305  0.5254  1.9342
   27DOPE   C29 3408   5.561  -0.111  15.519  0.5819  0.2961 -0.5155
   27DOPE   H9R 3409   5.646  -0.125  15.588  0.0899 -1.2700 -0.1786
   27DOPE  C210 3410   5.575  -0.108  15.385  0.5029  0.5815 -1.1395
   27DOPE  H10R 3411   5.678  -0.101  15.345  1.5679 -3.7481  0.2954
   27DOPE  C211 3412   5.469  -0.073  15.283  0.5599  0.0381 -0.4577
   27DOPE  H11R 3413   5.490   0.029  15.244  2.4168  0.3294  1.1675
   27DOPE  H11S 3414   5.367  -0.074  15.327  0.4233 -0.5050 -0.7837
   27DOPE  C212 3415   5.459  -0.162  15.156  0.1970 -0.1728  0.4114
   27DOPE  H12R 3416   5.419  -0.261  15.189 -0.0130 -0.5405 -0.8831
   27DOPE  H12S 3417   5.563  -0.168  15.117  0.0071 -2.3796  0.0641
   27DOPE  C213 3418   5.380  -0.095  15.040  0.5723  0.0929 -0.5606
   27DOPE  H13R 3419   5.426  -0.008  14.988 -1.4890  0.6275 -1.6011
   27DOPE  H13S 3420   5.282  -0.058  15.076 -0.7793 -2.1459 -1.6905
   27DOPE  C214 3421   5.364  -0.199  14.932 -0.2602  1.1003 -0.3539
   27DOPE  H14R 3422   5.298  -0.275  14.980 -0.7036  2.0805  0.6181
   27DOPE  H14S 3423   5.461  -0.249  14.911 -1.1666  0.2451 -2.8692
   27DOPE  C215 3424   5.294  -0.164  14.805 -0.2916  0.0997 -0.1738
   27DOPE  H15R 3425   5.186  -0.141  14.812 -0.3723 -0.3876  0.2081
   27DOPE  H15S 3426   5.296  -0.244  14.729  2.7224  1.3919 -1.6357
   27DOPE  C216 3427   5.361  -0.049  14.732 -0.0492 -0.3547 -0.0742
   27DOPE  H16R 3428   5.467  -0.077  14.716 -0.5149 -2.1564 -0.1654
   27DOPE  H16S 3429   5.351   0.038  14.801 -1.2784 -2.1130  2.0692
   27DOPE  C217 3430   5.297  -0.017  14.596 -0.0069  0.0083  0.0187
   27DOPE  H17R 3431   5.187  -0.012  14.602  0.0354  1.9702 -0.3176
   27DOPE  H17S 3432   5.329  -0.102  14.532 -0.1744 -0.6715  0.8108
   27DOPE  C218 3433   5.347   0.110  14.531  0.5834 -0.7672 -0.9642
   27DOPE  H18R 3434   5.455   0.094  14.511  1.2302 -0.9166  2.0421
   27DOPE  H18S 3435   5.328   0.197  14.597  0.0759 -0.7222 -1.1690
   27DOPE  H18T 3436   5.295   0.135  14.436 -1.9447 -1.4258  0.1571
   27DOPE   C33 3437   4.777   0.522  16.139 -0.5592  0.4116  0.5228
   27DOPE   H3X 3438   4.764   0.622  16.092  1.9248  1.5499  2.0333
   27DOPE   H3Y 3439   4.679   0.478  16.168  0.1058 -0.1529  2.0558
   27DOPE   C34 3440   4.850   0.418  16.054  0.1970  0.5800  0.0467
   27DOPE   H4X 3441   4.912   0.345  16.110  0.6278  0.1351 -0.9743
   27DOPE   H4Y 3442   4.778   0.355  15.999 -1.0319  1.7146  0.3185
   27DOPE   C35 3443   4.943   0.492  15.953  0.2470  0.6253 -0.2858
   27DOPE   H5X 3444   5.039   0.436  15.951  0.4890  0.9796  0.7643
   27DOPE   H5Y 3445   4.964   0.592  15.996  0.8700  0.2361  0.3334
   27DOPE   C36 3446   4.888   0.503  15.812  0.0875 -0.1733  0.3964
   27DOPE   H6X 3447   4.794   0.562  15.810  1.6343  2.4849 -1.7546
   27DOPE   H6Y 3448   4.860   0.400  15.780 -2.2247  0.5127 -0.0248
   27DOPE   C37 3449   4.983   0.546  15.706  0.1524 -0.4445 -0.5353
   27DOPE   H7X 3450   5.021   0.648  15.727  0.4909 -0.5978 -0.4038
   27DOPE   H7Y 3451   5.067   0.474  15.696 -0.0950 -0.5395 -2.2120
   27DOPE   C38 3452   4.915   0.551  15.563 -0.1528 -0.1618  0.2853
   27DOPE   H8X 3453   4.867   0.452  15.547  0.6022 -0.2214 -1.9402
   27DOPE   H8Y 3454   4.992   0.558  15.484 -1.1306 -1.2104 -0.7942
   27DOPE   C39 3455   4.812   0.657  15.540 -0.4269  0.4388  0.4859
   27DOPE   H9X 3456   4.741   0.667  15.623  0.6641  1.9511  1.2878
   27DOPE  C310 3457   4.804   0.747  15.446  0.7255 -0.8332  0.1174
   27DOPE  H10X 3458   4.715   0.812  15.450  1.4244  0.2052 -0.7898
   27DOPE  C311 3459   4.890   0.774  15.329 -0.3478 -0.1154 -0.5885
   27DOPE  H11X 3460   4.890   0.878  15.291  0.7214 -0.0502 -0.4562
   27DOPE  H11Y 3461   4.994   0.760  15.366 -0.5140  0.8358  0.3006
   27DOPE  C312 3462   4.862   0.678  15.207 -0.3315 -0.2007 -0.0244
   27DOPE  H12X 3463   4.835   0.573  15.233  2.8432 -1.3029 -0.6770
   27DOPE  H12Y 3464   4.958   0.662  15.154 -1.4064 -2.2157 -1.5141
   27DOPE  C313 3465   4.774   0.736  15.096  0.0325 -0.1620  0.1020
   27DOPE  H13X 3466   4.816   0.834  15.067  0.0144 -0.3844 -0.6987
   27DOPE  H13Y 3467   4.782   0.664  15.012 -0.4671 -1.7750  1.3773
   27DOPE  C314 3468   4.633   0.772  15.128  0.0667  0.4788 -0.0524
   27DOPE  H14X 3469   4.617   0.822  15.226 -2.1745  1.5218 -0.8815
   27DOPE  H14Y 3470   4.573   0.680  15.142 -0.9379  1.1601  0.2592
   27DOPE  C315 3471   4.555   0.839  15.020 -0.1718  0.2445  0.1768
   27DOPE  H15X 3472   4.555   0.793  14.919 -0.9231  1.4661 -0.4094
   27DOPE  H15Y 3473   4.608   0.936  15.002 -2.0719  1.1779 -0.6500
   27DOPE  C316 3474   4.413   0.875  15.062 -0.1565 -0.1268  1.0523
   27DOPE  H16X 3475   4.422   0.927  15.160 -4.4819 -1.1963  2.2537
   27DOPE  H16Y 3476   4.353   0.782  15.067  1.6104 -1.6119 -2.4064
   27DOPE  C317 3477   4.339   0.974  14.963  0.5673 -0.4084  0.8914
   27DOPE  H17X 3478   4.235   0.994  14.995  0.7650  0.0424  1.2704
   27DOPE  H17Y 3479   4.391   1.072  14.967 -1.2818  0.6345  0.5935
   27DOPE  C318 3480   4.345   0.924  14.819  0.2556 -0.2060  0.2768
   27DOPE  H18X 3481   4.446   0.934  14.773 -0.5323  1.0090 -1.3004
   27DOPE  H18Y 3482   4.299   0.824  14.803 -0.7604  0.3765 -0.6399
   27DOPE  H18Z 3483   4.289   0.995  14.754 -0.3589 -1.7973 -1.0124
   28DOPE     N 3484   6.482   6.589  16.378  0.6828 -0.1899  0.1664
   28DOPE   HN1 3485   6.449   6.640  16.463 -2.1470  2.1959 -2.1686
   28DOPE   HN2 3486   6.493   6.490  16.409 -0.7336  0.3120  2.5389
   28DOPE   HN3 3487   6.567   6.631  16.338  0.0471 -0.5701 -1.6621
   28DOPE   C12 3488   6.369   6.590  16.271  0.5896 -0.0297  0.1413
   28DOPE  H12A 3489   6.361   6.692  16.227 -0.3712 -0.9940 -2.0531
   28DOPE  H12B 3490   6.274   6.560  16.320  1.0570  1.8738  2.4042
   28DOPE   C11 3491   6.412   6.500  16.151  0.2504  0.4841 -0.2867
   28DOPE  H11A 3492   6.498   6.553  16.105  0.8811  0.6490  1.0215
   28DOPE  H11B 3493   6.322   6.483  16.089  0.9508 -3.3154 -0.4656
   28DOPE     P 3494   6.343   6.259  16.235 -0.3292  0.2195 -0.2325
   28DOPE   O13 3495   6.203   6.303  16.261  0.3679  0.2454 -0.1369
   28DOPE   O14 3496   6.401   6.159  16.328  0.4354  0.2086 -0.1027
   28DOPE   O11 3497   6.351   6.187  16.099 -0.3157  1.1586  0.2852
   28DOPE   O12 3498   6.443   6.379  16.216 -0.3218 -0.0172  1.0237
   28DOPE    C1 3499   6.465   6.161  16.015 -0.5657 -0.2960  0.1291
   28DOPE    HA 3500   6.507   6.061  16.038  1.6052  0.5033 -0.0469
   28DOPE    HB 3501   6.542   6.238  16.036 -0.3816 -0.1603 -0.9986
   28DOPE    C2 3502   6.432   6.191  15.868 -0.2759  0.0243  0.3403
   28DOPE    HS 3503   6.377   6.287  15.878 -0.0361  0.2449 -0.3709
   28DOPE   O21 3504   6.370   6.082  15.805  0.6956  0.4225 -0.0833
   28DOPE   C21 3505   6.235   6.079  15.816 -0.4949  0.8543 -0.3196
   28DOPE   O22 3506   6.162   6.173  15.852  0.3805 -0.5388  0.0197
   28DOPE   C22 3507   6.190   5.940  15.774  0.0414  0.1993  0.3008
   28DOPE   H2R 3508   6.172   5.872  15.860  0.1523 -0.7250 -0.3915
   28DOPE   H2S 3509   6.269   5.876  15.729 -0.4717 -1.0219  1.1083
   28DOPE    C3 3510   6.565   6.218  15.789 -0.5481  0.4971 -0.3067
   28DOPE    HX 3511   6.642   6.141  15.811  1.5520  2.5588 -0.0398
   28DOPE    HY 3512   6.618   6.308  15.826  0.4043  0.3703 -1.3073
   28DOPE   O31 3513   6.548   6.234  15.642  0.9638  0.3156 -0.7410
   28DOPE   C31 3514   6.659   6.249  15.581  0.2789 -0.5404 -0.2727
   28DOPE   O32 3515   6.768   6.276  15.626  0.4190 -0.0271  0.3250
   28DOPE   C32 3516   6.631   6.221  15.431  0.4077 -0.0893 -0.5067
   28DOPE   H2X 3517   6.640   6.111  15.418 -2.5489 -0.7106  1.7981
   28DOPE   H2Y 3518   6.533   6.255  15.391  1.2751  1.6086 -1.3227
   28DOPE   C23 3519   6.065   5.949  15.682 -0.4540  0.3956 -0.1564
   28DOPE   H3R 3520   5.991   6.000  15.747 -3.2267 -2.0884 -1.1399
   28DOPE   H3S 3521   6.034   5.845  15.658  0.2304  0.3864 -1.0356
   28DOPE   C24 3522   6.093   6.031  15.558  0.0626 -0.1549  1.0586
   28DOPE   H4R 3523   6.134   6.130  15.586 -0.2488  0.0648  0.7408
   28DOPE   H4S 3524   5.996   6.065  15.516  1.5679  2.6731 -0.4739
   28DOPE   C25 3525   6.191   5.966  15.456 -0.0452 -0.6851  0.0267
   28DOPE   H5R 3526   6.155   5.861  15.452  0.7222 -1.0705  1.8912
   28DOPE   H5S 3527   6.295   5.968  15.496  0.2655  0.4510 -0.7836
   28DOPE   C26 3528   6.204   6.046  15.328  0.2348 -0.1402 -0.3950
   28DOPE   H6R 3529   6.269   6.133  15.351  1.8303 -0.7946 -2.1876
   28DOPE   H6S 3530   6.103   6.073  15.292  0.3857 -0.1421 -0.8229
   28DOPE   C27 3531   6.277   5.961  15.227 -0.3050  0.0273 -0.3443
   28DOPE   H7R 3532   6.210   5.886  15.178 -2.1059  1.9187 -0.9088
   28DOPE   H7S 3533   6.360   5.910  15.280 -1.4094 -0.3686  1.0569
   28DOPE   C28 3534   6.339   6.050  15.120 -0.0605  0.0465  0.0739
   28DOPE   H8R 3535   6.417   5.997  15.062  0.8773 -0.4120  1.6873
   28DOPE   H8S 3536   6.390   6.132  15.176  0.5252  0.0812 -0.4989
   28DOPE   C29 3537   6.232   6.120  15.048  0.3178 -0.4353  0.3756
   28DOPE   H9R 3538   6.174   6.190  15.110 -1.5765  1.5538 -3.3062
   28DOPE  C210 3539   6.213   6.120  14.910  0.4111  0.1925 -0.3190
   28DOPE  H10R 3540   6.129   6.175  14.866 -1.3922 -2.0507  0.1306
   28DOPE  C211 3541   6.284   6.030  14.812  0.2066  0.5855  0.1968
   28DOPE  H11R 3542   6.223   6.012  14.721  0.0191  0.4307  0.3490
   28DOPE  H11S 3543   6.299   5.929  14.856 -1.5148 -0.7464 -2.0747
   28DOPE  C212 3544   6.423   6.079  14.764 -0.1678 -0.7103 -0.1800
   28DOPE  H12R 3545   6.483   6.096  14.856  0.2124  1.6987 -0.8091
   28DOPE  H12S 3546   6.410   6.175  14.709 -0.1016 -0.8042 -0.3584
   28DOPE  C213 3547   6.494   5.984  14.667 -0.0621 -0.3436  0.6925
   28DOPE  H13R 3548   6.435   5.998  14.573  0.9302 -2.0657 -0.2566
   28DOPE  H13S 3549   6.496   5.878  14.702  3.5410 -0.7409 -0.2955
   28DOPE  C214 3550   6.645   6.018  14.649 -0.8820  0.1807 -0.2949
   28DOPE  H14R 3551   6.703   5.973  14.732  0.6876 -0.1811 -1.5342
   28DOPE  H14S 3552   6.672   6.125  14.649  3.0902 -0.6656  0.7318
   28DOPE  C215 3553   6.692   5.951  14.522  0.8579 -0.0796 -0.2023
   28DOPE  H15R 3554   6.633   5.974  14.431 -0.2666 -0.3981  0.4205
   28DOPE  H15S 3555   6.685   5.843  14.548 -0.6606  0.3246  1.2746
   28DOPE  C216 3556   6.834   5.989  14.476  0.0048 -0.0746  0.5159
   28DOPE  H16R 3557   6.900   5.990  14.566  1.5084  2.8038 -0.4879
   28DOPE  H16S 3558   6.836   6.086  14.422 -1.0299 -0.8030 -0.8842
   28DOPE  C217 3559   6.901   5.893  14.384 -0.7222  0.3573 -0.0985
   28DOPE  H17R 3560   7.005   5.928  14.368  0.3027 -1.9158  1.2503
   28DOPE  H17S 3561   6.854   5.902  14.283  0.5333 -0.5761 -0.7989
   28DOPE  C218 3562   6.910   5.750  14.432 -0.7204  0.5401  0.4227
   28DOPE  H18R 3563   6.971   5.750  14.525  0.0612  1.2790 -0.0872
   28DOPE  H18S 3564   6.950   5.688  14.349 -1.8155  2.7202 -1.8781
   28DOPE  H18T 3565   6.807   5.712  14.451 -0.7825 -0.5729 -1.8534
   28DOPE   C33 3566   6.738   6.298  15.348  0.1571  0.1865 -0.1989
   28DOPE   H3X 3567   6.839   6.259  15.371  0.2549 -0.9194 -2.2400
   28DOPE   H3Y 3568   6.738   6.407  15.369 -1.5910  0.1920 -0.0148
   28DOPE   C34 3569   6.715   6.273  15.200  0.2550  0.3556 -0.0609
   28DOPE   H4X 3570   6.728   6.164  15.180 -0.0902  0.3079 -0.0292
   28DOPE   H4Y 3571   6.611   6.297  15.170  0.4044 -0.9720 -1.7976
   28DOPE   C35 3572   6.811   6.362  15.106 -0.7417 -0.0457  0.2764
   28DOPE   H5X 3573   6.913   6.341  15.145  0.4250  1.9508 -1.5112
   28DOPE   H5Y 3574   6.784   6.463  15.143  1.8138  0.6714  0.3984
   28DOPE   C36 3575   6.794   6.348  14.955 -0.2504  0.2864 -0.5329
   28DOPE   H6X 3576   6.859   6.426  14.909  0.9313  0.3398  1.1352
   28DOPE   H6Y 3577   6.689   6.373  14.929  0.5770  1.9245 -2.6558
   28DOPE   C37 3578   6.832   6.205  14.900  0.9042  0.2473 -0.1718
   28DOPE   H7X 3579   6.764   6.128  14.943 -0.9765  2.6528  1.3912
   28DOPE   H7Y 3580   6.823   6.217  14.790 -1.0819  0.6237  0.0086
   28DOPE   C38 3581   6.970   6.158  14.937 -0.4324 -0.0038 -0.0278
   28DOPE   H8X 3582   6.974   6.136  15.046  1.8982 -2.5576 -0.5460
   28DOPE   H8Y 3583   7.026   6.252  14.917 -1.5895  0.3921 -1.6510
   28DOPE   C39 3584   7.013   6.030  14.867  0.4918 -0.2257 -0.5820
   28DOPE   H9X 3585   6.956   5.937  14.880  0.6383 -0.2652 -0.2267
   28DOPE  C310 3586   7.110   6.009  14.777  0.0368  0.2822 -0.4343
   28DOPE  H10X 3587   7.114   5.916  14.719 -0.8226  0.5893 -1.0178
   28DOPE  C311 3588   7.213   6.111  14.745 -0.0191  0.2878  0.0322
   28DOPE  H11X 3589   7.203   6.187  14.825 -0.0552 -0.3991  0.6901
   28DOPE  H11Y 3590   7.312   6.063  14.758 -0.3981 -0.5601 -0.1911
   28DOPE  C312 3591   7.199   6.173  14.595  0.2307 -0.3702 -0.6752
   28DOPE  H12X 3592   7.094   6.200  14.568  0.2686  0.9615  0.4055
   28DOPE  H12Y 3593   7.237   6.092  14.529  0.0539 -0.7517 -0.3170
   28DOPE  C313 3594   7.283   6.299  14.581  0.2307  0.2113 -0.5903
   28DOPE  H13X 3595   7.231   6.382  14.633  0.7145 -0.0362  0.3110
   28DOPE  H13Y 3596   7.388   6.298  14.619 -0.4860 -0.8247  1.4779
   28DOPE  C314 3597   7.309   6.338  14.440 -0.2992  0.1701  1.0335
   28DOPE  H14X 3598   7.218   6.353  14.378  0.9213 -0.1970 -0.9328
   28DOPE  H14Y 3599   7.373   6.264  14.389 -2.1979  0.2225 -1.6428
   28DOPE  C315 3600   7.380   6.480  14.424 -0.1833  0.7320  0.3201
   28DOPE  H15X 3601   7.370   6.502  14.315  0.1445  1.6890  0.4808
   28DOPE  H15Y 3602   7.490   6.465  14.434 -0.3296  0.1844  1.1563
   28DOPE  C316 3603   7.322   6.589  14.510 -0.6077  0.9903  0.3412
   28DOPE  H16X 3604   7.332   6.567  14.618 -0.6783  0.7754  0.3040
   28DOPE  H16Y 3605   7.211   6.593  14.507 -0.5521  2.1969 -1.2200
   28DOPE  C317 3606   7.405   6.724  14.491  1.4912 -0.0806 -0.1500
   28DOPE  H17X 3607   7.513   6.700  14.494  0.9377 -3.1375 -0.6047
   28DOPE  H17Y 3608   7.383   6.749  14.386 -1.2500 -1.5196 -0.0274
   28DOPE  C318 3609   7.361   6.841  14.580 -0.5006 -0.3951  0.4724
   28DOPE  H18X 3610   7.384   6.937  14.530 -0.1034  0.8998  2.9677
   28DOPE  H18Y 3611   7.250   6.844  14.585 -0.5391  0.5076 -0.7128
   28DOPE  H18Z 3612   7.408   6.845  14.681  0.7591 -0.7100 -0.0885
   29DOPE     N 3613   0.390   1.165  16.308  0.2675  0.1249  0.1065
   29DOPE   HN1 3614   0.367   1.064  16.313  1.2463 -0.0928  0.4151
   29DOPE   HN2 3615   0.439   1.199  16.223  0.0940 -0.3765 -0.1974
   29DOPE   HN3 3616   0.448   1.199  16.388 -1.9097  0.6719  1.5389
   29DOPE   C12 3617   0.267   1.253  16.315 -0.1740 -0.8358  0.2440
   29DOPE  H12A 3618   0.323   1.344  16.347 -0.7368 -1.2007  2.4685
   29DOPE  H12B 3619   0.198   1.215  16.394 -0.5158 -0.3209  0.1998
   29DOPE   C11 3620   0.199   1.280  16.178 -0.6041 -0.9476 -0.5169
   29DOPE  H11A 3621   0.280   1.314  16.111 -2.1743 -0.0148 -1.9957
   29DOPE  H11B 3622   0.137   1.371  16.194  0.8893  0.0159  0.0887
   29DOPE     P 3623  -0.029   1.171  16.148 -0.5920 -0.1761  0.1931
   29DOPE   O13 3624  -0.062   1.227  16.282 -0.2321 -0.4154 -0.3376
   29DOPE   O14 3625  -0.073   1.029  16.116  0.1839  0.5772 -0.3946
   29DOPE   O11 3626  -0.086   1.276  16.037  0.6933 -0.8084  0.4299
   29DOPE   O12 3627   0.128   1.169  16.135 -0.5989  0.0097 -0.3419
   29DOPE    C1 3628  -0.020   1.282  15.905  0.2327  0.0662  0.0263
   29DOPE    HA 3629  -0.008   1.182  15.859  2.6252  1.9728 -4.0756
   29DOPE    HB 3630   0.084   1.321  15.912 -0.1667  1.2968 -0.4958
   29DOPE    C2 3631  -0.111   1.364  15.812 -0.1040  0.1503 -0.1798
   29DOPE    HS 3632  -0.210   1.314  15.797 -0.6224  0.9042  0.6200
   29DOPE   O21 3633  -0.044   1.394  15.690  0.2231 -0.4899 -0.4566
   29DOPE   C21 3634  -0.041   1.308  15.593  0.0412 -0.7085 -0.1363
   29DOPE   O22 3635  -0.106   1.207  15.591  0.0507  0.4052  0.0659
   29DOPE   C22 3636   0.056   1.356  15.489  0.2557 -0.6269  0.1445
   29DOPE   H2R 3637   0.159   1.315  15.492  1.3414  1.9090  0.1443
   29DOPE   H2S 3638   0.059   1.467  15.493 -0.7666 -0.5548 -0.7040
   29DOPE    C3 3639  -0.135   1.501  15.869 -0.0423  0.3473 -0.4704
   29DOPE    HX 3640  -0.180   1.479  15.968  0.2061  0.6283 -0.2921
   29DOPE    HY 3641  -0.219   1.554  15.817 -2.1119 -1.1485  1.1516
   29DOPE   O31 3642  -0.019   1.583  15.896 -0.0339  0.3412 -0.0322
   29DOPE   C31 3643  -0.002   1.685  15.814 -0.8271  0.0226  0.3026
   29DOPE   O32 3644  -0.087   1.735  15.743 -0.4843  0.0695  0.2107
   29DOPE   C32 3645   0.138   1.735  15.836 -0.5317  0.7618  0.7894
   29DOPE   H2X 3646   0.136   1.820  15.908  1.0971  0.3044  1.4076
   29DOPE   H2Y 3647   0.208   1.657  15.873 -0.9458  0.4098  0.8418
   29DOPE   C23 3648   0.015   1.317  15.340  0.2859 -0.2647  0.0813
   29DOPE   H3R 3649  -0.078   1.358  15.297  2.3145  1.3587 -3.1820
   29DOPE   H3S 3650  -0.008   1.209  15.346  1.9699 -0.5792  3.3737
   29DOPE   C24 3651   0.132   1.350  15.243  1.0699  0.4551  0.3911
   29DOPE   H4R 3652   0.220   1.286  15.262  0.7130 -0.0301  0.4099
   29DOPE   H4S 3653   0.156   1.457  15.266  1.1068  0.0423  2.5371
   29DOPE   C25 3654   0.093   1.335  15.088 -0.3425 -0.4426 -0.5479
   29DOPE   H5R 3655  -0.011   1.369  15.070 -0.7682 -1.7632 -0.6653
   29DOPE   H5S 3656   0.087   1.226  15.068 -0.9020 -0.4532 -0.3255
   29DOPE   C26 3657   0.179   1.410  14.993 -0.1112  0.2265  0.2202
   29DOPE   H6R 3658   0.283   1.372  14.993 -0.1658  0.0573 -0.7369
   29DOPE   H6S 3659   0.175   1.518  15.019 -0.2827  0.8953 -2.2605
   29DOPE   C27 3660   0.123   1.396  14.846 -0.1851 -0.5903  0.0995
   29DOPE   H7R 3661   0.019   1.435  14.856  0.1397  0.3747 -0.1951
   29DOPE   H7S 3662   0.139   1.292  14.811  1.5007  0.2457 -1.8090
   29DOPE   C28 3663   0.196   1.483  14.744  0.9595 -0.2620  0.1997
   29DOPE   H8R 3664   0.189   1.586  14.786  0.7687  1.0257 -2.7466
   29DOPE   H8S 3665   0.136   1.488  14.651  0.0157  1.5249  0.8555
   29DOPE   C29 3666   0.335   1.446  14.722 -0.5357  0.7250  0.5208
   29DOPE   H9R 3667   0.376   1.363  14.782 -0.4348 -0.1399 -0.7142
   29DOPE  C210 3668   0.414   1.504  14.637  0.5814  0.0587  0.3131
   29DOPE  H10R 3669   0.514   1.459  14.626 -0.0828 -1.4049  0.0555
   29DOPE  C211 3670   0.378   1.619  14.548  0.1290  0.0069 -0.8778
   29DOPE  H11R 3671   0.471   1.665  14.509  0.8923 -2.7718 -2.6083
   29DOPE  H11S 3672   0.322   1.700  14.601  0.1753  0.1551 -1.0526
   29DOPE  C212 3673   0.295   1.569  14.432 -0.1124  0.3805  0.6048
   29DOPE  H12R 3674   0.195   1.531  14.462  0.6274 -1.1758  1.2643
   29DOPE  H12S 3675   0.342   1.480  14.383 -1.2839  0.3841 -0.5830
   29DOPE  C213 3676   0.271   1.686  14.332  0.2347 -1.1070 -0.4055
   29DOPE  H13R 3677   0.357   1.709  14.266 -1.5526  0.4756 -2.3345
   29DOPE  H13S 3678   0.241   1.770  14.399  2.4203 -1.8733  1.6754
   29DOPE  C214 3679   0.151   1.669  14.241  0.7368 -0.3043  0.5979
   29DOPE  H14R 3680   0.065   1.633  14.302 -0.9639  0.3533 -1.3119
   29DOPE  H14S 3681   0.173   1.581  14.176  1.7253  0.0741  0.4000
   29DOPE  C215 3682   0.123   1.791  14.139  0.2688 -0.1304 -0.4540
   29DOPE  H15R 3683   0.217   1.808  14.082  0.2768 -0.1469 -0.4462
   29DOPE  H15S 3684   0.091   1.885  14.188  0.5274  0.4326 -1.3449
   29DOPE  C216 3685   0.010   1.750  14.042  0.2092  0.0005 -0.6449
   29DOPE  H16R 3686  -0.019   1.821  13.961  1.0582 -0.9300 -1.8122
   29DOPE  H16S 3687  -0.076   1.728  14.107 -0.7126 -0.8157 -2.0912
   29DOPE  C217 3688   0.049   1.627  13.958  0.4447 -0.0159 -0.4472
   29DOPE  H17R 3689   0.035   1.533  14.015  1.0210  1.0576  1.5512
   29DOPE  H17S 3690   0.156   1.633  13.929  0.5061  0.3853 -0.1390
   29DOPE  C218 3691  -0.040   1.617  13.831  0.8067  0.1473  0.0422
   29DOPE  H18R 3692  -0.033   1.707  13.767  1.0847 -0.6318 -1.0592
   29DOPE  H18S 3693  -0.147   1.621  13.862  0.5850  2.5375 -0.8513
   29DOPE  H18T 3694  -0.016   1.527  13.770 -0.2284  1.7380 -2.9089
   29DOPE   C33 3695   0.206   1.795  15.707 -0.5855 -0.0072  0.6956
   29DOPE   H3X 3696   0.308   1.833  15.728  0.3587 -0.7202 -2.1862
   29DOPE   H3Y 3697   0.152   1.885  15.669 -0.2427  0.1926  0.6807
   29DOPE   C34 3698   0.217   1.691  15.598  0.2444 -0.4405  0.0525
   29DOPE   H4X 3699   0.248   1.589  15.631 -1.5864 -1.8130 -2.1042
   29DOPE   H4Y 3700   0.112   1.675  15.565 -1.4025  1.9905  3.5146
   29DOPE   C35 3701   0.317   1.734  15.488  0.5195  0.5069 -0.3333
   29DOPE   H5X 3702   0.313   1.652  15.412  1.7564 -1.1509  1.2765
   29DOPE   H5Y 3703   0.421   1.726  15.528  0.8819  0.0298 -1.3327
   29DOPE   C36 3704   0.304   1.877  15.434  0.5595  0.7298  0.9962
   29DOPE   H6X 3705   0.337   1.950  15.512  0.3476  2.0290 -0.0967
   29DOPE   H6Y 3706   0.195   1.891  15.418 -0.4204  1.1256  6.2945
   29DOPE   C37 3707   0.388   1.889  15.301 -0.0434  0.2369  0.4205
   29DOPE   H7X 3708   0.402   1.997  15.281 -0.4581  0.3943  0.9682
   29DOPE   H7Y 3709   0.483   1.835  15.320 -0.5131 -1.2763 -1.2605
   29DOPE   C38 3710   0.320   1.811  15.182  0.0792 -1.0761  0.5230
   29DOPE   H8X 3711   0.218   1.854  15.168  0.3772 -0.8652 -1.1828
   29DOPE   H8Y 3712   0.307   1.704  15.209  0.9191 -1.4635 -0.5474
   29DOPE   C39 3713   0.390   1.832  15.049 -0.0740 -0.3830 -0.3197
   29DOPE   H9X 3714   0.473   1.765  15.023  1.3120  1.1028  0.0981
   29DOPE  C310 3715   0.357   1.916  14.948 -0.3180 -0.4251 -0.1555
   29DOPE  H10X 3716   0.413   1.908  14.854  0.2581  0.1105  0.1360
   29DOPE  C311 3717   0.240   2.017  14.940 -0.4015 -0.6692  0.3466
   29DOPE  H11X 3718   0.174   1.975  14.861 -0.6052 -1.6792  1.0476
   29DOPE  H11Y 3719   0.174   2.026  15.028  0.4834 -0.8915  1.0543
   29DOPE  C312 3720   0.291   2.160  14.893 -0.4691  0.1954  0.2727
   29DOPE  H12X 3721   0.371   2.201  14.959 -1.2517  0.3832  1.1351
   29DOPE  H12Y 3722   0.206   2.231  14.897  0.7752  1.6859  1.5356
   29DOPE  C313 3723   0.333   2.177  14.744 -0.2354 -0.3206  0.7210
   29DOPE  H13X 3724   0.367   2.282  14.734  0.8607 -0.7731 -0.6323
   29DOPE  H13Y 3725   0.424   2.122  14.711  0.0408  1.8335 -2.4791
   29DOPE  C314 3726   0.222   2.161  14.641 -0.5993  0.2860  0.0051
   29DOPE  H14X 3727   0.137   2.229  14.661  1.3627  2.5960  0.9917
   29DOPE  H14Y 3728   0.177   2.060  14.657 -0.3817 -0.0495 -1.3572
   29DOPE  C315 3729   0.266   2.185  14.502  0.0633 -0.6357  0.6016
   29DOPE  H15X 3730   0.344   2.107  14.489  1.1295  0.1536  1.9452
   29DOPE  H15Y 3731   0.305   2.289  14.495  0.4201 -0.7418  0.9417
   29DOPE  C316 3732   0.150   2.178  14.398  0.3057 -0.1369 -0.1263
   29DOPE  H16X 3733   0.066   2.226  14.452 -1.0668 -0.0784 -2.2245
   29DOPE  H16Y 3734   0.120   2.073  14.377 -5.6978  0.9032  1.4344
   29DOPE  C317 3735   0.199   2.245  14.267 -0.5388 -0.3639 -0.2683
   29DOPE  H17X 3736   0.229   2.348  14.295 -2.1372 -0.4020  1.8001
   29DOPE  H17Y 3737   0.296   2.204  14.231  0.5291  2.7930 -1.3474
   29DOPE  C318 3738   0.094   2.256  14.167 -0.1626 -0.4754 -0.0060
   29DOPE  H18X 3739   0.042   2.162  14.138 -1.9516  0.9484 -1.7315
   29DOPE  H18Y 3740   0.023   2.322  14.220  1.3302  2.2744 -1.2380
   29DOPE  H18Z 3741   0.126   2.317  14.080  0.4044  1.4541  1.4930
   30DOPE     N 3742   6.775   0.838  15.949 -0.2358 -0.4781  0.0664
   30DOPE   HN1 3743   6.879   0.836  15.950 -0.2296 -0.2733 -0.1146
   30DOPE   HN2 3744   6.734   0.866  15.858 -0.4241 -3.3072 -0.8138
   30DOPE   HN3 3745   6.757   0.916  16.015  1.9954 -0.2790  0.5384
   30DOPE   C12 3746   6.736   0.699  15.984 -0.4809  0.1427 -0.5166
   30DOPE  H12A 3747   6.785   0.673  16.080  1.6451  1.1036 -1.2613
   30DOPE  H12B 3748   6.782   0.624  15.916  0.7987 -0.4952  0.9696
   30DOPE   C11 3749   6.577   0.702  15.981 -0.7077 -0.4859  0.6805
   30DOPE  H11A 3750   6.554   0.677  15.876  0.6357 -0.0198  0.2528
   30DOPE  H11B 3751   6.545   0.805  16.008  1.0897 -0.0590  1.3350
   30DOPE     P 3752   6.434   0.486  16.064  0.0511 -0.3545  0.1960
   30DOPE   O13 3753   6.318   0.505  16.154  0.0116  0.1257  0.3154
   30DOPE   O14 3754   6.512   0.361  16.069 -0.0548 -0.5560 -0.0309
   30DOPE   O11 3755   6.388   0.497  15.912  0.7124 -0.9719  0.6974
   30DOPE   O12 3756   6.528   0.609  16.081 -0.0290 -0.2686 -0.1088
   30DOPE    C1 3757   6.253   0.476  15.880 -0.2394  0.1252  0.3555
   30DOPE    HA 3758   6.181   0.469  15.964  0.6238 -0.7674  1.0328
   30DOPE    HB 3759   6.246   0.385  15.817  3.5536 -0.5178  0.6870
   30DOPE    C2 3760   6.196   0.591  15.791 -0.1834 -0.2491  0.3190
   30DOPE    HS 3761   6.086   0.579  15.796 -0.2723  0.1617 -0.6063
   30DOPE   O21 3762   6.247   0.576  15.663  0.4224  0.3391 -0.1140
   30DOPE   C21 3763   6.176   0.483  15.591  0.5127  0.0407 -0.5421
   30DOPE   O22 3764   6.091   0.413  15.649  0.8403 -0.3418 -0.5172
   30DOPE   C22 3765   6.215   0.484  15.443 -0.0606 -0.5273  0.6320
   30DOPE   H2R 3766   6.325   0.467  15.434  0.0683 -0.3347  1.7304
   30DOPE   H2S 3767   6.193   0.588  15.412  0.1146 -1.2062 -2.0468
   30DOPE    C3 3768   6.227   0.736  15.844 -0.5701 -0.2182  0.1123
   30DOPE    HX 3769   6.337   0.740  15.855 -0.3012  0.6564 -2.2782
   30DOPE    HY 3770   6.182   0.748  15.945 -0.3490 -1.3200  0.3515
   30DOPE   O31 3771   6.181   0.832  15.744  0.3149  0.2092 -0.2057
   30DOPE   C31 3772   6.272   0.892  15.668 -0.5576 -0.3059  0.9427
   30DOPE   O32 3773   6.394   0.882  15.672  0.2368 -0.0223 -0.2861
   30DOPE   C32 3774   6.207   0.995  15.568 -0.2034  0.3677 -0.0843
   30DOPE   H2X 3775   6.115   1.039  15.610 -0.5405 -1.5188  1.3503
   30DOPE   H2Y 3776   6.276   1.082  15.564 -0.1552  0.4957  2.1116
   30DOPE   C23 3777   6.111   0.410  15.354  0.4502 -0.4738  0.1780
   30DOPE   H3R 3778   6.017   0.449  15.400 -0.1306 -1.3187 -0.2702
   30DOPE   H3S 3779   6.117   0.300  15.363 -0.2387 -0.8330 -2.6477
   30DOPE   C24 3780   6.116   0.443  15.199  0.4658  0.3896 -0.1265
   30DOPE   H4R 3781   6.098   0.551  15.181 -2.0065 -0.1943 -1.5892
   30DOPE   H4S 3782   6.031   0.387  15.154  0.1686  1.0825 -0.4464
   30DOPE   C25 3783   6.246   0.401  15.129 -0.2041 -0.5776  0.0686
   30DOPE   H5R 3784   6.275   0.300  15.163 -0.5909 -0.4120  0.9160
   30DOPE   H5S 3785   6.322   0.476  15.160  1.9270 -2.2253 -0.9492
   30DOPE   C26 3786   6.233   0.421  14.979 -0.2311  0.4618 -0.3095
   30DOPE   H6R 3787   6.194   0.523  14.963  0.6682  1.2042  1.8572
   30DOPE   H6S 3788   6.169   0.340  14.937  2.0172 -0.2706 -2.5530
   30DOPE   C27 3789   6.368   0.402  14.911 -0.1701  0.8780  0.7401
   30DOPE   H7R 3790   6.401   0.296  14.918  1.1949  1.0964 -1.3865
   30DOPE   H7S 3791   6.436   0.475  14.960  0.1850  2.2890 -1.7043
   30DOPE   C28 3792   6.356   0.447  14.762 -0.2728 -0.1097  0.2006
   30DOPE   H8R 3793   6.454   0.433  14.712 -0.3223 -0.1816  0.1228
   30DOPE   H8S 3794   6.331   0.555  14.775 -0.4249  0.3277 -2.8135
   30DOPE   C29 3795   6.246   0.372  14.686  0.0142  0.3984 -0.2789
   30DOPE   H9R 3796   6.236   0.269  14.724 -0.0783 -0.1013 -1.5978
   30DOPE  C210 3797   6.169   0.408  14.581 -0.3249 -0.3202 -0.2701
   30DOPE  H10R 3798   6.100   0.340  14.529 -0.1936 -1.4134  0.9202
   30DOPE  C211 3799   6.176   0.548  14.521  0.6703 -0.2206  0.8103
   30DOPE  H11R 3800   6.241   0.619  14.577 -1.9159  2.4779  0.5633
   30DOPE  H11S 3801   6.075   0.594  14.524  0.8265  0.2519 -0.6153
   30DOPE  C212 3802   6.239   0.540  14.385 -0.7805 -0.0837  0.0830
   30DOPE  H12R 3803   6.327   0.472  14.385  0.3190  1.3045 -0.4920
   30DOPE  H12S 3804   6.288   0.635  14.354 -2.4095  1.6391  2.4607
   30DOPE  C213 3805   6.133   0.504  14.278  0.1276  0.1769  0.1670
   30DOPE  H13R 3806   6.078   0.598  14.257  1.0485  0.3465 -1.6938
   30DOPE  H13S 3807   6.073   0.414  14.304  0.1878 -0.5312 -1.9546
   30DOPE  C214 3808   6.207   0.488  14.142 -0.0668  0.0417 -0.3013
   30DOPE  H14R 3809   6.293   0.418  14.145 -1.2596 -1.4422  1.1051
   30DOPE  H14S 3810   6.243   0.592  14.125 -1.0835  0.2880 -1.0406
   30DOPE  C215 3811   6.121   0.438  14.025  0.4628 -0.0188  0.5299
   30DOPE  H15R 3812   6.178   0.428  13.930  0.4707 -0.8233  0.6093
   30DOPE  H15S 3813   6.044   0.517  14.010  1.3360  0.5853 -0.9642
   30DOPE  C216 3814   6.039   0.310  14.038  1.3538 -0.3021  0.2972
   30DOPE  H16R 3815   5.983   0.297  13.942 -1.3367 -0.2399  1.7498
   30DOPE  H16S 3816   5.954   0.311  14.109  1.0874  0.0605 -0.0229
   30DOPE  C217 3817   6.125   0.187  14.064 -0.1913 -0.2875 -0.3945
   30DOPE  H17R 3818   6.217   0.202  14.124  0.2006  0.3310 -1.1411
   30DOPE  H17S 3819   6.160   0.166  13.961  0.1274 -0.0809 -0.3278
   30DOPE  C218 3820   6.044   0.074  14.130 -0.0166  0.3662 -0.6705
   30DOPE  H18R 3821   5.941   0.071  14.087 -0.8612  0.8018  1.2043
   30DOPE  H18S 3822   6.032   0.077  14.241  0.0103 -0.9941 -0.6076
   30DOPE  H18T 3823   6.089  -0.024  14.106 -1.2502 -0.0976 -1.1808
   30DOPE   C33 3824   6.179   0.938  15.423 -0.6366 -0.1439 -0.9358
   30DOPE   H3X 3825   6.108   1.005  15.370 -0.3290  0.7540 -0.2327
   30DOPE   H3Y 3826   6.132   0.838  15.435  3.8727 -2.3023  1.3923
   30DOPE   C34 3827   6.310   0.884  15.349 -0.0555 -0.1976  0.2368
   30DOPE   H4X 3828   6.391   0.961  15.344  0.9209 -1.2781 -1.2382
   30DOPE   H4Y 3829   6.349   0.803  15.414  1.2306  0.3454  0.1830
   30DOPE   C35 3830   6.284   0.835  15.209  0.2059 -0.6460  0.5891
   30DOPE   H5X 3831   6.181   0.796  15.196  0.3965 -0.2586 -3.3222
   30DOPE   H5Y 3832   6.359   0.756  15.186  0.3732 -0.7587  1.4794
   30DOPE   C36 3833   6.296   0.946  15.098 -0.1442 -0.3609 -0.1472
   30DOPE   H6X 3834   6.402   0.978  15.091  0.7007 -2.7303  0.7819
   30DOPE   H6Y 3835   6.238   1.031  15.139  0.9972 -0.0905  0.9836
   30DOPE   C37 3836   6.234   0.906  14.962  0.0266  0.1476  0.5295
   30DOPE   H7X 3837   6.268   0.806  14.928 -2.5578 -0.6775  0.1505
   30DOPE   H7Y 3838   6.125   0.891  14.977 -0.2597  0.0913 -1.3568
   30DOPE   C38 3839   6.244   1.010  14.854 -0.3931 -0.4278 -0.3291
   30DOPE   H8X 3840   6.348   1.025  14.818 -0.4198  0.7873  0.0642
   30DOPE   H8Y 3841   6.202   1.104  14.894  0.1009 -0.2687 -0.1795
   30DOPE   C39 3842   6.151   0.972  14.745  0.3562 -0.6687  0.1662
   30DOPE   H9X 3843   6.045   0.980  14.774  0.1342  0.0127 -0.7481
   30DOPE  C310 3844   6.181   0.936  14.615  0.1397 -0.1714 -0.4061
   30DOPE  H10X 3845   6.097   0.901  14.553 -1.6653  0.1003  1.7627
   30DOPE  C311 3846   6.320   0.935  14.543  0.3024 -0.4805 -0.3809
   30DOPE  H11X 3847   6.396   0.979  14.611 -0.4875 -0.9513  0.8462
   30DOPE  H11Y 3848   6.358   0.836  14.509  1.9613  0.9017 -2.9330
   30DOPE  C312 3849   6.317   1.034  14.422  0.5183 -0.4464 -0.2567
   30DOPE  H12X 3850   6.418   1.017  14.380  1.0780  1.1380  0.3867
   30DOPE  H12Y 3851   6.294   1.140  14.442  0.0524 -0.6694  0.4281
   30DOPE  C313 3852   6.232   0.969  14.307  0.7775  0.0643  0.1451
   30DOPE  H13X 3853   6.285   0.974  14.209  0.1136 -0.8809 -0.2806
   30DOPE  H13Y 3854   6.223   0.859  14.320 -1.1049  0.4876  3.5186
   30DOPE  C314 3855   6.103   1.044  14.277 -0.6783  0.1557 -0.6419
   30DOPE  H14X 3856   6.130   1.149  14.254 -0.9232  0.1529 -0.9541
   30DOPE  H14Y 3857   6.050   1.043  14.374  0.6032 -1.3330  0.0922
   30DOPE  C315 3858   6.019   0.979  14.170  0.2284 -0.3729  1.1250
   30DOPE  H15X 3859   6.078   0.969  14.077 -2.9402  2.1875 -1.4120
   30DOPE  H15Y 3860   5.952   1.064  14.144  2.3400  1.1273  0.2788
   30DOPE  C316 3861   5.938   0.859  14.209 -0.4043  0.4092  0.0947
   30DOPE  H16X 3862   5.876   0.877  14.299 -1.2612 -0.0768 -0.3938
   30DOPE  H16Y 3863   6.003   0.776  14.244 -0.4852  0.6014  0.7232
   30DOPE  C317 3864   5.850   0.805  14.096 -0.1140  0.1419 -0.3410
   30DOPE  H17X 3865   5.902   0.799  13.998 -0.1104 -2.3128 -0.2620
   30DOPE  H17Y 3866   5.815   0.704  14.126 -2.1427  0.0369 -2.7769
   30DOPE  C318 3867   5.720   0.888  14.067  0.3854 -0.2484  1.1367
   30DOPE  H18X 3868   5.752   0.991  14.043  2.1090 -0.9496  0.1759
   30DOPE  H18Y 3869   5.663   0.843  13.982  1.8816 -0.2568  0.0890
   30DOPE  H18Z 3870   5.658   0.899  14.158  1.2486  1.7468  1.5289
   31DOPE     N 3871   3.831   3.813  12.245 -0.3201 -0.0035  0.6085
   31DOPE   HN1 3872   3.818   3.713  12.219 -1.6818  0.4771 -0.6504
   31DOPE   HN2 3873   3.741   3.851  12.278  1.1724  3.4382  1.1384
   31DOPE   HN3 3874   3.866   3.862  12.160  1.9454 -2.9249 -0.3557
   31DOPE   C12 3875   3.934   3.827  12.351  0.3803  0.0664 -0.2061
   31DOPE  H12A 3876   3.974   3.931  12.355  0.3428  0.0341  1.5139
   31DOPE  H12B 3877   4.018   3.756  12.333  0.7148  0.0119  1.4847
   31DOPE   C11 3878   3.874   3.781  12.486  0.3261 -0.5395 -0.2780
   31DOPE  H11A 3879   3.787   3.848  12.500  1.0424  0.4035 -0.2728
   31DOPE  H11B 3880   3.943   3.796  12.572 -0.2657 -0.7536  0.2390
   31DOPE     P 3881   3.741   3.590  12.595 -0.3817  0.0706 -0.3022
   31DOPE   O13 3882   3.730   3.444  12.577 -0.4314 -0.1877 -0.2909
   31DOPE   O14 3883   3.610   3.666  12.598  0.4284 -0.1160  0.0239
   31DOPE   O11 3884   3.820   3.621  12.727 -0.0025 -0.3776  0.0276
   31DOPE   O12 3885   3.841   3.640  12.486  0.3088 -0.1417  0.3279
   31DOPE    C1 3886   3.941   3.556  12.767  0.4328  0.7553 -0.8224
   31DOPE    HA 3887   4.025   3.627  12.786 -0.5631  1.6838  0.2227
   31DOPE    HB 3888   3.975   3.480  12.693  0.3598  0.9198 -1.0276
   31DOPE    C2 3889   3.914   3.465  12.901  0.5869 -0.3235  0.1274
   31DOPE    HS 3890   3.866   3.372  12.863  1.1729 -0.7694  0.4667
   31DOPE   O21 3891   3.836   3.542  12.993  0.0645 -0.4038 -0.0864
   31DOPE   C21 3892   3.769   3.467  13.078  0.5222  0.0482 -0.1064
   31DOPE   O22 3893   3.768   3.345  13.073  0.0510  0.3681  0.4025
   31DOPE   C22 3894   3.696   3.553  13.181  0.3434 -0.6021 -0.2216
   31DOPE   H2R 3895   3.586   3.543  13.165  0.0464  1.4156  0.1655
   31DOPE   H2S 3896   3.728   3.658  13.162 -0.3019  0.0233  1.8083
   31DOPE    C3 3897   4.051   3.425  12.971  0.1459 -0.3129  0.0922
   31DOPE    HX 3898   4.105   3.383  12.884 -0.7606  0.2652 -0.7691
   31DOPE    HY 3899   4.040   3.353  13.055  1.9480  0.2078  0.8196
   31DOPE   O31 3900   4.123   3.545  12.996  0.0179  0.6434  0.1519
   31DOPE   C31 3901   4.143   3.573  13.128 -0.5734 -0.4409 -0.3706
   31DOPE   O32 3902   4.117   3.498  13.220 -0.1388  0.1540  0.3633
   31DOPE   C32 3903   4.200   3.712  13.140  0.4157  0.5138  0.1507
   31DOPE   H2X 3904   4.304   3.701  13.177  0.4234 -2.3724 -0.5368
   31DOPE   H2Y 3905   4.198   3.766  13.043 -2.6830  2.2335  1.0422
   31DOPE   C23 3906   3.725   3.509  13.325  0.9053 -0.5200 -0.0262
   31DOPE   H3R 3907   3.835   3.525  13.334  1.0657 -0.3777 -1.9668
   31DOPE   H3S 3908   3.693   3.404  13.340 -0.3449  0.0867  2.0245
   31DOPE   C24 3909   3.657   3.597  13.432 -0.3951  0.0441 -0.2181
   31DOPE   H4R 3910   3.562   3.635  13.391  0.2680  0.1453 -1.7245
   31DOPE   H4S 3911   3.730   3.678  13.454  1.7250 -1.3179 -1.7988
   31DOPE   C25 3912   3.647   3.529  13.566 -0.4084 -0.5387  0.2584
   31DOPE   H5R 3913   3.744   3.515  13.618 -0.6296 -0.3493  0.7286
   31DOPE   H5S 3914   3.586   3.437  13.553 -0.0583 -0.5216 -1.8194
   31DOPE   C26 3915   3.558   3.606  13.661 -0.0978  0.3483 -0.0588
   31DOPE   H6R 3916   3.530   3.528  13.735  3.1813 -1.0770 -0.1497
   31DOPE   H6S 3917   3.459   3.640  13.626  1.1394  2.2872 -1.9744
   31DOPE   C27 3918   3.624   3.734  13.714 -0.0387 -0.5128 -0.1933
   31DOPE   H7R 3919   3.626   3.808  13.632 -1.3600  1.1295  1.1784
   31DOPE   H7S 3920   3.732   3.717  13.736  0.1223 -1.1564 -1.4213
   31DOPE   C28 3921   3.557   3.796  13.840 -1.1047 -0.6328  0.0368
   31DOPE   H8R 3922   3.588   3.903  13.839 -0.7428 -0.7418 -0.2293
   31DOPE   H8S 3923   3.590   3.759  13.939 -2.8142  0.6174  1.1367
   31DOPE   C29 3924   3.406   3.800  13.848 -0.2733  0.3962 -0.3155
   31DOPE   H9R 3925   3.351   3.814  13.754 -1.1371  2.2392  0.4225
   31DOPE  C210 3926   3.332   3.794  13.957  0.9497  0.4665  0.3641
   31DOPE  H10R 3927   3.225   3.819  13.948  0.4392 -0.1765  3.4721
   31DOPE  C211 3928   3.377   3.778  14.100 -0.8608 -0.4585  0.4067
   31DOPE  H11R 3929   3.398   3.881  14.138  2.3733 -0.2394 -1.5389
   31DOPE  H11S 3930   3.482   3.744  14.113 -1.7150 -2.8236  1.6673
   31DOPE  C212 3931   3.277   3.720  14.204 -0.0461 -0.2438 -0.0513
   31DOPE  H12R 3932   3.174   3.748  14.174 -0.1812 -1.4650 -0.8267
   31DOPE  H12S 3933   3.297   3.778  14.296  1.5005  0.9530 -1.0835
   31DOPE  C213 3934   3.295   3.574  14.239 -0.2057  1.1073  0.0291
   31DOPE  H13R 3935   3.403   3.567  14.265 -0.3398 -1.3688  0.1643
   31DOPE  H13S 3936   3.279   3.506  14.152  2.7379 -0.0577  0.2891
   31DOPE  C214 3937   3.217   3.517  14.357  0.1844 -0.3503  0.1355
   31DOPE  H14R 3938   3.114   3.556  14.347  0.8633  1.1366 -1.8044
   31DOPE  H14S 3939   3.243   3.574  14.448  0.1510 -0.0024 -0.0692
   31DOPE  C215 3940   3.224   3.365  14.394 -0.0916 -0.3788 -1.0019
   31DOPE  H15R 3941   3.330   3.341  14.417 -0.2531  1.0836  1.6537
   31DOPE  H15S 3942   3.192   3.306  14.305 -1.4217  1.7612 -2.0313
   31DOPE  C216 3943   3.128   3.333  14.505  0.9585  0.6149  0.0713
   31DOPE  H16R 3944   3.027   3.346  14.460  1.6145  0.1491 -1.6019
   31DOPE  H16S 3945   3.146   3.402  14.590  0.2832 -0.9314  1.5332
   31DOPE  C217 3946   3.140   3.188  14.553 -0.3799 -0.1207  0.3202
   31DOPE  H17R 3947   3.060   3.170  14.628 -2.0067  1.1524 -1.0526
   31DOPE  H17S 3948   3.239   3.184  14.605  0.0402  0.3123 -0.4295
   31DOPE  C218 3949   3.139   3.078  14.451  0.5844  0.0890  0.2008
   31DOPE  H18R 3950   3.163   2.983  14.504  2.9737  0.8011  0.5141
   31DOPE  H18S 3951   3.217   3.085  14.373  0.1172 -0.2197 -0.2999
   31DOPE  H18T 3952   3.039   3.080  14.402 -1.0575  1.7002  3.2849
   31DOPE   C33 3953   4.116   3.792  13.234  0.9400 -0.2664  0.0729
   31DOPE   H3X 3954   4.014   3.759  13.207  0.9595 -0.0536 -0.2736
   31DOPE   H3Y 3955   4.116   3.902  13.216 -1.6654 -0.3432 -0.8217
   31DOPE   C34 3956   4.135   3.783  13.383  0.8654 -0.3729 -0.1854
   31DOPE   H4X 3957   4.118   3.676  13.409 -1.1266 -0.2140 -0.7237
   31DOPE   H4Y 3958   4.239   3.811  13.410  0.4781  1.1500 -0.1836
   31DOPE   C35 3959   4.033   3.856  13.474 -0.2300  0.2983 -0.3654
   31DOPE   H5X 3960   3.927   3.824  13.464 -0.3162  0.1240  0.9460
   31DOPE   H5Y 3961   4.036   3.961  13.438  0.4529  0.0004 -1.2112
   31DOPE   C36 3962   4.074   3.843  13.626 -0.1533 -0.3396 -0.2908
   31DOPE   H6X 3963   4.178   3.880  13.636 -1.0235  1.7762  1.9553
   31DOPE   H6Y 3964   4.059   3.736  13.652 -0.9109 -0.4042 -0.9516
   31DOPE   C37 3965   3.977   3.921  13.717 -0.0222  0.5267  0.9175
   31DOPE   H7X 3966   3.998   4.027  13.689 -0.5349  0.1537 -1.0919
   31DOPE   H7Y 3967   3.872   3.897  13.694  0.2856  0.5472 -0.6684
   31DOPE   C38 3968   4.007   3.911  13.868 -0.3177 -0.4971 -0.6724
   31DOPE   H8X 3969   3.976   4.002  13.924 -0.4983 -0.8069 -0.2737
   31DOPE   H8Y 3970   4.118   3.913  13.877 -0.2396 -0.8576 -1.4397
   31DOPE   C39 3971   3.956   3.788  13.924  0.3252  0.6580  0.1216
   31DOPE   H9X 3972   3.973   3.702  13.857 -0.5260 -1.4842  2.4964
   31DOPE  C310 3973   3.872   3.772  14.030 -0.0064 -1.0188 -0.0820
   31DOPE  H10X 3974   3.827   3.675  14.056  1.0154 -1.4773  0.0314
   31DOPE  C311 3975   3.828   3.883  14.128 -0.6826  0.5236  0.4848
   31DOPE  H11X 3976   3.826   3.987  14.091  0.8285  0.2065 -0.5813
   31DOPE  H11Y 3977   3.730   3.850  14.168  0.7390 -0.7080  3.2568
   31DOPE  C312 3978   3.918   3.890  14.263  0.2659  0.2190  0.5471
   31DOPE  H12X 3979   3.935   3.788  14.302  0.7916  0.6932  1.5932
   31DOPE  H12Y 3980   3.852   3.944  14.334  1.6066  1.2694  1.0393
   31DOPE  C313 3981   4.051   3.962  14.267 -0.1013  0.2554  0.4833
   31DOPE  H13X 3982   4.118   3.921  14.188  2.8400  2.2778  1.7416
   31DOPE  H13Y 3983   4.034   4.070  14.245 -0.2657  0.1725  0.1875
   31DOPE  C314 3984   4.132   3.956  14.398  0.2459 -0.3691 -0.4661
   31DOPE  H14X 3985   4.239   3.978  14.378  0.2962  0.2202  0.3928
   31DOPE  H14Y 3986   4.127   3.853  14.439 -1.4551  0.1011  0.6029
   31DOPE  C315 3987   4.075   4.055  14.502 -0.7514 -0.4876  0.1994
   31DOPE  H15X 3988   3.966   4.034  14.513 -1.2847  1.6938 -0.5495
   31DOPE  H15Y 3989   4.094   4.158  14.466  0.2395 -0.6871  0.1229
   31DOPE  C316 3990   4.153   4.031  14.631 -0.0967 -0.6728 -0.4210
   31DOPE  H16X 3991   4.260   4.063  14.625 -0.1438 -0.3304  0.4069
   31DOPE  H16Y 3992   4.153   3.922  14.650  1.9825 -0.6092  0.2020
   31DOPE  C317 3993   4.098   4.092  14.752 -0.4332 -0.0398 -0.1984
   31DOPE  H17X 3994   4.095   4.202  14.737 -1.0191  0.2529  1.7709
   31DOPE  H17Y 3995   3.990   4.076  14.773 -1.0558  0.9436 -2.3674
   31DOPE  C318 3996   4.179   4.079  14.882 -0.3433  0.3519 -0.2771
   31DOPE  H18X 3997   4.273   4.138  14.871 -0.3998  0.8015  1.3454
   31DOPE  H18Y 3998   4.124   4.124  14.968 -1.4313 -0.6713 -0.4196
   31DOPE  H18Z 3999   4.204   3.974  14.907 -3.7650 -0.6781 -0.7345
   32DOPE     N 4000   4.949   2.458  11.653 -0.2804  0.4704  0.0665
   32DOPE   HN1 4001   4.863   2.492  11.605 -0.5637 -0.6322 -0.2373
   32DOPE   HN2 4002   5.037   2.509  11.635  0.4017 -0.5871  0.2850
   32DOPE   HN3 4003   4.969   2.357  11.640  0.0338  0.8492 -3.1628
   32DOPE   C12 4004   4.890   2.487  11.783 -0.0098 -0.1111 -0.7995
   32DOPE  H12A 4005   4.799   2.423  11.791  0.0662 -0.1528 -0.2065
   32DOPE  H12B 4006   4.869   2.595  11.798  1.4340  0.2932 -1.5002
   32DOPE   C11 4007   4.987   2.446  11.894  0.2422 -0.0919  0.1568
   32DOPE  H11A 4008   5.019   2.341  11.877 -0.1139 -0.2199  0.2655
   32DOPE  H11B 4009   4.940   2.450  11.994 -1.8829 -4.0062 -0.4840
   32DOPE     P 4010   5.132   2.652  11.979  0.0793  0.0092 -0.5009
   32DOPE   O13 4011   5.018   2.749  11.968 -0.6220 -0.5715 -0.2518
   32DOPE   O14 4012   5.264   2.707  11.944 -0.0223  0.3648  0.2362
   32DOPE   O11 4013   5.126   2.595  12.129  0.4631 -0.3040  0.0875
   32DOPE   O12 4014   5.107   2.523  11.886  0.4344 -0.0977  0.6591
   32DOPE    C1 4015   5.219   2.506  12.185 -1.1198  0.3617  0.1723
   32DOPE    HA 4016   5.297   2.475  12.111 -0.2825 -0.1948  1.2641
   32DOPE    HB 4017   5.175   2.405  12.200  0.0692 -0.3247 -0.7359
   32DOPE    C2 4018   5.309   2.553  12.301  0.0649  0.0625 -0.1937
   32DOPE    HS 4019   5.394   2.482  12.313 -0.0277 -0.9750 -4.2042
   32DOPE   O21 4020   5.230   2.576  12.423  0.4898 -0.4226 -0.0239
   32DOPE   C21 4021   5.183   2.465  12.479 -0.7111 -0.1139  0.7402
   32DOPE   O22 4022   5.210   2.348  12.456 -0.7754 -0.3956 -0.2379
   32DOPE   C22 4023   5.087   2.514  12.583 -0.3763 -0.8568 -0.4706
   32DOPE   H2R 4024   4.994   2.539  12.527  0.2775 -1.3764 -1.8110
   32DOPE   H2S 4025   5.119   2.601  12.645 -2.5464 -2.3851  3.1725
   32DOPE    C3 4026   5.384   2.682  12.265  0.1925 -0.8800 -0.8102
   32DOPE    HX 4027   5.313   2.767  12.259  2.4710  1.0744 -1.6962
   32DOPE    HY 4028   5.429   2.667  12.165  1.0295 -1.2956 -0.3839
   32DOPE   O31 4029   5.477   2.705  12.375  0.1019 -0.6170 -0.1836
   32DOPE   C31 4030   5.490   2.832  12.414  0.6741  0.4021 -0.5784
   32DOPE   O32 4031   5.414   2.922  12.387 -0.1856  0.5499  0.0304
   32DOPE   C32 4032   5.618   2.834  12.511  0.1910 -0.0072  0.3343
   32DOPE   H2X 4033   5.658   2.730  12.521 -1.8469 -0.9429 -0.6900
   32DOPE   H2Y 4034   5.694   2.891  12.454  0.2342 -1.2919 -0.9501
   32DOPE   C23 4035   5.046   2.399  12.675 -0.1926 -0.1778 -0.3420
   32DOPE   H3R 4036   5.036   2.309  12.611  0.6053  0.0027 -0.7318
   32DOPE   H3S 4037   4.944   2.428  12.706 -0.4450  1.7351 -2.6973
   32DOPE   C24 4038   5.135   2.357  12.792  0.4249  0.1227 -0.4214
   32DOPE   H4R 4039   5.238   2.339  12.753  0.3325 -0.9617 -0.1889
   32DOPE   H4S 4040   5.092   2.269  12.844 -1.0375  1.4365  0.6825
   32DOPE   C25 4041   5.142   2.476  12.885  0.2140 -0.0692  0.3801
   32DOPE   H5R 4042   5.043   2.518  12.914  1.1075  1.1267  1.8400
   32DOPE   H5S 4043   5.200   2.559  12.837 -0.3660  1.7387  2.6202
   32DOPE   C26 4044   5.203   2.435  13.023  0.1731  0.2085  0.7949
   32DOPE   H6R 4045   5.304   2.388  13.029  0.8687  1.8075  3.0153
   32DOPE   H6S 4046   5.123   2.373  13.067  0.6967 -0.7086  0.4813
   32DOPE   C27 4047   5.215   2.551  13.117  0.3502  0.3086  0.2223
   32DOPE   H7R 4048   5.107   2.575  13.128  0.3224 -0.3523  1.5811
   32DOPE   H7S 4049   5.271   2.638  13.076  1.2138 -1.3803 -2.3878
   32DOPE   C28 4050   5.272   2.487  13.240 -0.3834 -0.5194 -0.5061
   32DOPE   H8R 4051   5.378   2.454  13.228 -0.9602 -2.1642 -1.5847
   32DOPE   H8S 4052   5.204   2.402  13.266  1.4458 -1.2143  2.5018
   32DOPE   C29 4053   5.280   2.578  13.363 -0.2240  0.5775  0.0252
   32DOPE   H9R 4054   5.299   2.684  13.342 -1.1525  0.6712 -0.3947
   32DOPE  C210 4055   5.230   2.538  13.485  0.2693 -0.8445 -0.1510
   32DOPE  H10R 4056   5.231   2.613  13.566 -2.4720 -0.7896 -0.0852
   32DOPE  C211 4057   5.168   2.411  13.540 -0.2454 -0.0853  0.7719
   32DOPE  H11R 4058   5.248   2.342  13.575  1.4922  1.0419 -0.7471
   32DOPE  H11S 4059   5.120   2.356  13.456 -0.1612  0.6850  0.2172
   32DOPE  C212 4060   5.062   2.419  13.652  0.3167  0.2981 -0.7396
   32DOPE  H12R 4061   5.014   2.319  13.645  0.2752  0.2809 -0.2638
   32DOPE  H12S 4062   4.988   2.499  13.627 -0.6692  0.6831  2.8554
   32DOPE  C213 4063   5.127   2.451  13.789 -0.7906  0.3684 -0.6348
   32DOPE  H13R 4064   5.192   2.539  13.770 -2.1997  1.7577  0.6676
   32DOPE  H13S 4065   5.175   2.357  13.824 -3.2958 -0.4185  0.9328
   32DOPE  C214 4066   5.026   2.490  13.893 -0.3739 -0.3528  0.1840
   32DOPE  H14R 4067   4.994   2.392  13.936  2.7262 -0.5935  2.2676
   32DOPE  H14S 4068   4.944   2.546  13.843  0.6188  0.8926 -0.0837
   32DOPE  C215 4069   5.082   2.549  14.014 -0.2357 -0.1580  0.8395
   32DOPE  H15R 4070   5.130   2.642  13.975 -0.2628 -0.7436 -0.6352
   32DOPE  H15S 4071   5.172   2.489  14.037  1.4346  1.4174 -1.1569
   32DOPE  C216 4072   4.996   2.560  14.144 -0.5989 -0.4599  0.2535
   32DOPE  H16R 4073   4.982   2.461  14.194  1.3976 -0.1001  1.6449
   32DOPE  H16S 4074   4.897   2.586  14.100 -0.2438 -0.3508 -0.4908
   32DOPE  C217 4075   5.050   2.665  14.242  0.6865  0.6790 -0.0111
   32DOPE  H17R 4076   5.068   2.762  14.191 -0.9108  0.2826 -1.4569
   32DOPE  H17S 4077   5.154   2.635  14.265  0.8546 -0.6170 -2.1772
   32DOPE  C218 4078   4.977   2.681  14.371 -0.0297  0.5848 -0.6253
   32DOPE  H18R 4079   4.943   2.586  14.417 -4.3870  1.6441 -1.2876
   32DOPE  H18S 4080   4.888   2.746  14.358 -0.1754  0.1217 -2.1127
   32DOPE  H18T 4081   5.047   2.733  14.441  0.3905 -0.6320 -0.1205
   32DOPE   C33 4082   5.583   2.896  12.651 -0.3282 -0.0382 -0.5181
   32DOPE   H3X 4083   5.516   2.983  12.636 -0.1804  0.1413 -0.1341
   32DOPE   H3Y 4084   5.680   2.934  12.691  0.1738 -1.9608  0.2385
   32DOPE   C34 4085   5.521   2.786  12.737  0.5585 -0.2400  0.4532
   32DOPE   H4X 4086   5.421   2.754  12.699  0.9578 -0.2201 -0.6600
   32DOPE   H4Y 4087   5.589   2.699  12.728  1.0419  0.1979 -0.3053
   32DOPE   C35 4088   5.505   2.814  12.885  0.3536 -0.4113  0.7734
   32DOPE   H5X 4089   5.449   2.731  12.934  1.6874 -0.3813  2.4504
   32DOPE   H5Y 4090   5.450   2.908  12.907 -2.4196 -1.9801  0.9307
   32DOPE   C36 4091   5.635   2.839  12.965 -0.5887  0.9520 -0.1258
   32DOPE   H6X 4092   5.678   2.930  12.917 -0.5616  0.7529 -0.4835
   32DOPE   H6Y 4093   5.710   2.762  12.934  0.1009  0.7351  1.8899
   32DOPE   C37 4094   5.610   2.861  13.115 -0.1858 -0.2319  0.2812
   32DOPE   H7X 4095   5.524   2.931  13.128  0.3029 -0.0829  3.6622
   32DOPE   H7Y 4096   5.572   2.759  13.139 -0.8661 -0.6121 -2.1541
   32DOPE   C38 4097   5.742   2.893  13.178  0.4441 -0.3073 -0.8458
   32DOPE   H8X 4098   5.815   2.945  13.111  0.4148  0.0623 -0.5945
   32DOPE   H8Y 4099   5.797   2.799  13.197  1.3626  0.3808  0.0269
   32DOPE   C39 4100   5.730   2.977  13.301  0.1774 -0.8200 -0.2928
   32DOPE   H9X 4101   5.742   3.086  13.296  0.6105 -0.7696  1.3402
   32DOPE  C310 4102   5.715   2.933  13.427  0.6650 -0.2765 -0.0446
   32DOPE  H10X 4103   5.718   3.004  13.511 -3.3008  0.5547 -0.4192
   32DOPE  C311 4104   5.682   2.789  13.459 -0.0984  0.5179  0.5171
   32DOPE  H11X 4105   5.625   2.751  13.372 -2.1886  3.1409  0.6003
   32DOPE  H11Y 4106   5.781   2.741  13.471 -0.3774 -0.0208  0.7211
   32DOPE  C312 4107   5.598   2.780  13.589 -0.1213 -0.0721  0.8161
   32DOPE  H12X 4108   5.510   2.849  13.590  1.1026  1.7281 -2.2363
   32DOPE  H12Y 4109   5.664   2.818  13.669 -1.3633  2.6555  0.6755
   32DOPE  C313 4110   5.563   2.634  13.624  0.2366 -0.3832 -0.2160
   32DOPE  H13X 4111   5.518   2.585  13.535 -1.5435  0.9965 -0.1374
   32DOPE  H13Y 4112   5.656   2.577  13.647  0.1841 -0.6584 -0.6644
   32DOPE  C314 4113   5.462   2.622  13.735 -0.4222  0.1916  0.8193
   32DOPE  H14X 4114   5.442   2.513  13.737 -1.4821  0.2759 -1.3675
   32DOPE  H14Y 4115   5.369   2.667  13.691 -0.4043 -1.4298 -1.0171
   32DOPE  C315 4116   5.500   2.688  13.871  0.0504  0.1018  0.0742
   32DOPE  H15X 4117   5.413   2.687  13.941  0.9982  2.4273  1.3769
   32DOPE  H15Y 4118   5.516   2.796  13.849 -4.6969  1.1539  0.6573
   32DOPE  C316 4119   5.625   2.634  13.948 -0.1567 -0.6125 -0.1417
   32DOPE  H16X 4120   5.652   2.708  14.026  0.7637 -1.3085  0.2218
   32DOPE  H16Y 4121   5.714   2.621  13.883  0.8493 -1.5486  1.3620
   32DOPE  C317 4122   5.592   2.503  14.011  0.0078 -1.0120  0.1698
   32DOPE  H17X 4123   5.503   2.516  14.076  0.5840 -1.3870  1.0546
   32DOPE  H17Y 4124   5.563   2.425  13.937 -2.1593  0.4968 -0.6505
   32DOPE  C318 4125   5.714   2.449  14.104  0.1592  0.5814  0.3861
   32DOPE  H18X 4126   5.689   2.346  14.136  1.2885 -0.7529 -2.6069
   32DOPE  H18Y 4127   5.803   2.447  14.037 -1.9590  0.2261 -2.6457
   32DOPE  H18Z 4128   5.721   2.517  14.191  0.9537  0.2713  0.5744
   33DOPE     N 4129   3.744   2.879  11.842 -0.6073  0.5116  0.0272
   33DOPE   HN1 4130   3.675   2.845  11.771  1.0213  0.6507 -1.6946
   33DOPE   HN2 4131   3.816   2.935  11.794 -0.0356 -0.6272 -0.4821
   33DOPE   HN3 4132   3.797   2.797  11.879 -2.5153 -1.1820 -0.7605
   33DOPE   C12 4133   3.671   2.944  11.950  0.7930  0.7502  0.6172
   33DOPE  H12A 4134   3.581   2.887  11.980  0.0489 -1.1272 -4.2283
   33DOPE  H12B 4135   3.634   3.030  11.891 -0.8281 -1.7950 -2.4028
   33DOPE   C11 4136   3.752   2.979  12.071 -0.6901 -0.1879  0.1205
   33DOPE  H11A 4137   3.786   2.891  12.129  3.9284  3.2269  3.3561
   33DOPE  H11B 4138   3.676   3.028  12.137  0.3559  0.0737  1.1626
   33DOPE     P 4139   3.996   3.031  12.040  0.1202  0.2649 -0.0022
   33DOPE   O13 4140   4.088   3.144  12.032  0.1404 -0.5737  0.2012
   33DOPE   O14 4141   4.006   2.937  11.929  0.9239 -0.4552  0.0446
   33DOPE   O11 4142   4.019   2.968  12.181 -0.3230  0.0408  0.2964
   33DOPE   O12 4143   3.848   3.083  12.042 -0.4721 -0.4578 -0.0896
   33DOPE    C1 4144   4.033   3.043  12.305 -0.3847 -0.0054  0.0749
   33DOPE    HA 4145   3.979   3.140  12.300  0.1977  0.3229  0.0169
   33DOPE    HB 4146   4.139   3.077  12.301  0.7712 -3.2607 -0.4897
   33DOPE    C2 4147   3.993   2.973  12.441  0.2045 -0.5643 -0.2700
   33DOPE    HS 4148   3.977   3.053  12.517 -0.4415 -1.1208  0.1989
   33DOPE   O21 4149   4.110   2.892  12.464  0.1456 -0.5051 -1.0464
   33DOPE   C21 4150   4.130   2.874  12.597 -0.5376 -0.3045  0.4890
   33DOPE   O22 4151   4.070   2.935  12.682  0.1094 -0.3827  0.5575
   33DOPE   C22 4152   4.231   2.764  12.618 -0.1324  0.3844 -0.6474
   33DOPE   H2R 4153   4.330   2.786  12.574  0.0944 -0.1005 -0.3835
   33DOPE   H2S 4154   4.195   2.670  12.570  0.0335 -0.0340  0.0442
   33DOPE    C3 4155   3.873   2.886  12.405 -0.3139  0.5366  0.0766
   33DOPE    HX 4156   3.900   2.829  12.313 -1.7020  0.0435 -0.0463
   33DOPE    HY 4157   3.791   2.949  12.364  0.1511  0.1915 -1.4807
   33DOPE   O31 4158   3.818   2.800  12.510 -0.2318 -0.1960  0.5368
   33DOPE   C31 4159   3.739   2.858  12.602 -0.2885  0.2355  0.1547
   33DOPE   O32 4160   3.715   2.977  12.605  0.2753 -0.1543  0.1179
   33DOPE   C32 4161   3.693   2.761  12.712 -0.3652 -0.8257  0.1331
   33DOPE   H2X 4162   3.598   2.795  12.760 -0.3963 -0.1777 -0.3664
   33DOPE   H2Y 4163   3.682   2.660  12.666 -0.7586 -1.0247  0.6598
   33DOPE   C23 4164   4.251   2.733  12.771  0.1917  0.2247  0.5156
   33DOPE   H3R 4165   4.290   2.629  12.780  0.4304  0.1926 -0.7519
   33DOPE   H3S 4166   4.150   2.731  12.818  0.8303  0.3043  1.9240
   33DOPE   C24 4167   4.357   2.811  12.834 -0.4191 -0.1599  0.1945
   33DOPE   H4R 4168   4.346   2.920  12.812 -0.9085 -0.5024 -1.3637
   33DOPE   H4S 4169   4.447   2.777  12.778 -0.5911  0.5494 -0.5376
   33DOPE   C25 4170   4.379   2.786  12.988 -0.3002 -0.3601 -0.2158
   33DOPE   H5R 4171   4.477   2.830  13.016  0.2738 -1.8385  0.2122
   33DOPE   H5S 4172   4.384   2.676  13.000  0.2355 -0.6657 -2.6592
   33DOPE   C26 4173   4.270   2.852  13.081  0.0170  0.2665  0.2876
   33DOPE   H6R 4174   4.181   2.826  13.020  1.5779  0.0864 -2.0156
   33DOPE   H6S 4175   4.285   2.962  13.088  0.0119  0.2725  0.2065
   33DOPE   C27 4176   4.261   2.791  13.228  0.0442 -0.1928  0.6696
   33DOPE   H7R 4177   4.252   2.681  13.217 -1.6027 -0.0583  0.3398
   33DOPE   H7S 4178   4.179   2.841  13.284  0.9837 -0.6437  2.5104
   33DOPE   C28 4179   4.386   2.829  13.311  0.3053 -0.4870  0.3760
   33DOPE   H8R 4180   4.389   2.940  13.308 -0.7188 -0.4700 -2.2287
   33DOPE   H8S 4181   4.470   2.799  13.245  0.1048 -0.7570  0.2407
   33DOPE   C29 4182   4.413   2.771  13.441  0.6056  0.1113 -1.0898
   33DOPE   H9R 4183   4.471   2.677  13.447  0.3199 -0.1241 -1.9172
   33DOPE  C210 4184   4.370   2.825  13.560 -0.0978 -0.1255 -0.0111
   33DOPE  H10R 4185   4.406   2.781  13.654  1.9741  2.4681  0.5257
   33DOPE  C211 4186   4.313   2.963  13.581  0.6712  0.8092  0.6264
   33DOPE  H11R 4187   4.204   2.946  13.596  0.8611  2.0245  4.4233
   33DOPE  H11S 4188   4.341   3.032  13.499 -0.1681  0.4381  0.0085
   33DOPE  C212 4189   4.356   3.020  13.718 -0.6153 -0.4069 -0.2522
   33DOPE  H12R 4190   4.301   3.117  13.725 -0.0878 -0.1726  0.9413
   33DOPE  H12S 4191   4.463   3.048  13.717  0.8415 -5.0019  1.8228
   33DOPE  C213 4192   4.328   2.928  13.831  0.3285 -0.1991 -0.3993
   33DOPE  H13R 4193   4.416   2.865  13.856  0.5923  0.0291 -0.7465
   33DOPE  H13S 4194   4.253   2.857  13.792 -0.2327 -0.0138  0.3156
   33DOPE  C214 4195   4.257   2.992  13.955  0.0015 -0.0824 -0.0569
   33DOPE  H14R 4196   4.233   2.923  14.039  0.8391  1.4405  1.4867
   33DOPE  H14S 4197   4.161   3.036  13.919  0.1573  0.2268 -0.0872
   33DOPE  C215 4198   4.338   3.107  14.021 -0.5832  0.1461 -0.1230
   33DOPE  H15R 4199   4.268   3.180  14.067  1.2871  1.6130  0.5210
   33DOPE  H15S 4200   4.398   3.163  13.946 -1.4956  0.4451 -0.6434
   33DOPE  C216 4201   4.446   3.061  14.130  0.9597  0.0807 -0.2168
   33DOPE  H16R 4202   4.497   2.982  14.071  0.2974 -1.9830  1.8192
   33DOPE  H16S 4203   4.393   3.000  14.206  0.9320 -0.9801 -1.0661
   33DOPE  C217 4204   4.546   3.164  14.177 -0.1157  0.0109 -0.5064
   33DOPE  H17R 4205   4.494   3.254  14.216  0.1109  0.3442 -0.9653
   33DOPE  H17S 4206   4.601   3.196  14.086 -0.5343  2.2551 -0.0412
   33DOPE  C218 4207   4.645   3.114  14.281  0.0967  0.3718 -0.5890
   33DOPE  H18R 4208   4.700   3.027  14.240  0.3872 -0.9060  2.3145
   33DOPE  H18S 4209   4.588   3.095  14.374 -2.2083  3.0623 -1.3104
   33DOPE  H18T 4210   4.719   3.195  14.299  1.2971 -0.7720 -0.2159
   33DOPE   C33 4211   3.802   2.769  12.825 -0.4872  0.4136 -0.2767
   33DOPE   H3X 4212   3.840   2.871  12.846  1.2634 -0.1406 -0.5635
   33DOPE   H3Y 4213   3.890   2.706  12.799 -1.6050 -2.0757  1.4910
   33DOPE   C34 4214   3.755   2.708  12.958 -0.2031  0.2549 -0.2293
   33DOPE   H4X 4215   3.678   2.772  13.007 -1.7031 -0.3595 -1.6660
   33DOPE   H4Y 4216   3.711   2.607  12.942 -1.4054  0.8048 -0.5061
   33DOPE   C35 4217   3.870   2.681  13.051 -0.5008 -0.0166 -0.4554
   33DOPE   H5X 4218   3.937   2.769  13.062  0.0012 -0.4929  0.4248
   33DOPE   H5Y 4219   3.934   2.608  12.996 -2.3265 -2.3321  0.3113
   33DOPE   C36 4220   3.829   2.637  13.190  0.3294 -0.3065 -0.5056
   33DOPE   H6X 4221   3.788   2.534  13.188 -1.5970  0.4301 -1.3992
   33DOPE   H6Y 4222   3.753   2.714  13.214 -0.3686 -0.8502 -0.9679
   33DOPE   C37 4223   3.944   2.646  13.293 -0.7315  0.2618 -0.0825
   33DOPE   H7X 4224   4.026   2.581  13.255  0.1907  1.0740  0.4425
   33DOPE   H7Y 4225   3.986   2.749  13.305 -0.4555  0.6713 -3.3817
   33DOPE   C38 4226   3.907   2.597  13.431  0.1747 -0.2725 -0.2749
   33DOPE   H8X 4227   3.993   2.552  13.484  0.6671 -0.7720 -1.4617
   33DOPE   H8Y 4228   3.847   2.504  13.423  0.3527 -0.4331  0.2090
   33DOPE   C39 4229   3.836   2.701  13.501  0.2135 -0.5675 -0.0527
   33DOPE   H9X 4230   3.756   2.744  13.439 -1.7154  0.8255  3.1384
   33DOPE  C310 4231   3.843   2.746  13.632  0.5365 -0.6096  0.1225
   33DOPE  H10X 4232   3.764   2.815  13.665  2.1739  0.9043  1.0641
   33DOPE  C311 4233   3.935   2.694  13.745 -0.2497 -0.1953 -0.6414
   33DOPE  H11X 4234   4.000   2.619  13.696  2.0271  0.6626  0.8985
   33DOPE  H11Y 4235   3.999   2.776  13.786 -1.1228 -0.2733  0.9680
   33DOPE  C312 4236   3.857   2.624  13.861  0.0716 -0.5194  0.3097
   33DOPE  H12X 4237   3.935   2.600  13.937  0.4499  3.0079  1.1875
   33DOPE  H12Y 4238   3.807   2.530  13.829 -2.7775  0.6043  1.1609
   33DOPE  C313 4239   3.751   2.709  13.929 -1.0903 -1.0728  0.3240
   33DOPE  H13X 4240   3.672   2.740  13.857  0.1739  3.0003  0.4328
   33DOPE  H13Y 4241   3.707   2.645  14.008 -0.2679 -1.2674  0.6327
   33DOPE  C314 4242   3.802   2.840  14.003 -0.6569 -0.3648 -0.0940
   33DOPE  H14X 4243   3.718   2.890  14.055 -0.3957 -0.3850  0.3602
   33DOPE  H14Y 4244   3.840   2.923  13.940  1.4905 -1.8126 -0.8312
   33DOPE  C315 4245   3.902   2.798  14.120  0.4613  0.5047  0.6677
   33DOPE  H15X 4246   4.001   2.778  14.073  0.0846 -0.3726  0.2246
   33DOPE  H15Y 4247   3.847   2.717  14.174  2.1029 -1.1179  0.0186
   33DOPE  C316 4248   3.923   2.913  14.228  0.0213 -0.4091 -0.3770
   33DOPE  H16X 4249   3.824   2.931  14.275  0.2784 -0.5190  0.2082
   33DOPE  H16Y 4250   3.964   2.997  14.168 -0.8246 -0.3129 -0.8430
   33DOPE  C317 4251   4.020   2.885  14.341  0.0582  0.5284 -0.4723
   33DOPE  H17X 4252   4.012   2.960  14.423  1.0959 -0.9050  1.0190
   33DOPE  H17Y 4253   3.992   2.792  14.396  1.0193  0.7957  0.5051
   33DOPE  C318 4254   4.166   2.878  14.294  0.2344 -0.1168 -0.0354
   33DOPE  H18X 4255   4.237   2.892  14.379 -2.5499  3.8605  1.9449
   33DOPE  H18Y 4256   4.177   2.787  14.231  1.1596  0.4863 -0.7551
   33DOPE  H18Z 4257   4.190   2.967  14.232  4.1819  0.3258  1.8239
   34DOPE     N 4258   3.414   3.789  12.731  0.1464  0.2514  0.5956
   34DOPE   HN1 4259   3.505   3.754  12.693 -0.0339  0.5929 -0.1579
   34DOPE   HN2 4260   3.452   3.855  12.803  0.5283  0.8454 -0.1282
   34DOPE   HN3 4261   3.371   3.714  12.788  0.0512 -0.0718  0.1035
   34DOPE   C12 4262   3.324   3.859  12.632  0.0967 -0.0905  0.1022
   34DOPE  H12A 4263   3.220   3.874  12.667  0.3347 -0.1433  0.8570
   34DOPE  H12B 4264   3.322   3.790  12.544  0.6070 -2.1683  1.6312
   34DOPE   C11 4265   3.375   4.001  12.598  0.7812  0.4957  0.1532
   34DOPE  H11A 4266   3.359   4.062  12.690 -1.5316 -0.4062  0.4070
   34DOPE  H11B 4267   3.318   4.049  12.515 -0.7040 -0.7445  0.4230
   34DOPE     P 4268   3.610   4.123  12.596  0.3731  0.1266  0.3987
   34DOPE   O13 4269   3.727   4.127  12.504  0.2165  0.9640  0.4066
   34DOPE   O14 4270   3.633   4.130  12.742 -0.4500 -0.3070  0.0396
   34DOPE   O11 4271   3.517   4.244  12.549 -0.0987 -0.1238 -0.3980
   34DOPE   O12 4272   3.515   4.002  12.564 -0.7756  0.0989  0.4663
   34DOPE    C1 4273   3.558   4.372  12.500 -0.7664 -0.2917 -0.3049
   34DOPE    HA 4274   3.484   4.423  12.434  1.0140  3.4611  0.3306
   34DOPE    HB 4275   3.657   4.360  12.450  0.7955  1.9742  2.0037
   34DOPE    C2 4276   3.581   4.478  12.615 -0.0702  0.0903  0.5959
   34DOPE    HS 4277   3.615   4.572  12.567 -0.4289 -0.7010 -1.3274
   34DOPE   O21 4278   3.677   4.431  12.711  0.1487  0.1206  0.2311
   34DOPE   C21 4279   3.805   4.441  12.689 -0.1745  0.0677  0.4549
   34DOPE   O22 4280   3.861   4.487  12.588 -0.7203 -0.0637  0.4603
   34DOPE   C22 4281   3.888   4.380  12.800  0.2980  0.3574 -0.1252
   34DOPE   H2R 4282   3.974   4.331  12.751 -1.6836  0.2834 -3.9258
   34DOPE   H2S 4283   3.829   4.296  12.844 -0.9647  0.9454 -0.6614
   34DOPE    C3 4284   3.445   4.500  12.691 -0.7121 -0.6938 -0.0235
   34DOPE    HX 4285   3.409   4.410  12.746 -0.4502  0.4729  2.1695
   34DOPE    HY 4286   3.369   4.535  12.618  2.9535  1.0382 -3.3827
   34DOPE   O31 4287   3.461   4.602  12.799 -0.0731  0.1735 -0.2127
   34DOPE   C31 4288   3.422   4.724  12.758  0.1023 -0.0148  0.5155
   34DOPE   O32 4289   3.420   4.752  12.638 -0.6024  0.2653 -0.3611
   34DOPE   C32 4290   3.378   4.814  12.872  0.1310 -0.5257  0.2439
   34DOPE   H2X 4291   3.468   4.870  12.905  0.4985 -1.4515  0.8633
   34DOPE   H2Y 4292   3.323   4.896  12.821  4.3010  0.5087 -3.1164
   34DOPE   C23 4293   3.922   4.495  12.898  0.7412 -0.3313 -0.1107
   34DOPE   H3R 4294   3.831   4.548  12.932 -1.5015 -2.4529 -2.3438
   34DOPE   H3S 4295   3.972   4.575  12.839  0.6909 -0.2771 -0.0814
   34DOPE   C24 4296   4.009   4.452  13.021  0.5567  0.1744  0.0765
   34DOPE   H4R 4297   4.108   4.425  12.977 -0.2979  0.1861 -1.9502
   34DOPE   H4S 4298   3.980   4.352  13.059 -0.8996  0.4780 -0.1930
   34DOPE   C25 4299   4.004   4.549  13.142 -0.3602 -0.3095 -0.2057
   34DOPE   H5R 4300   3.935   4.526  13.226 -2.2129  1.4264 -1.1511
   34DOPE   H5S 4301   3.970   4.650  13.109 -1.2779 -0.1929  1.0234
   34DOPE   C26 4302   4.142   4.562  13.201 -0.1600  0.2989 -0.3784
   34DOPE   H6R 4303   4.201   4.617  13.125  0.6457  0.9911  0.7210
   34DOPE   H6S 4304   4.182   4.460  13.219 -0.6273 -0.0036 -1.0321
   34DOPE   C27 4305   4.150   4.639  13.336 -0.4786 -0.2628  0.1145
   34DOPE   H7R 4306   4.044   4.650  13.366 -0.7874  0.2557 -1.1199
   34DOPE   H7S 4307   4.183   4.743  13.316  0.9371 -0.6570  0.2894
   34DOPE   C28 4308   4.225   4.571  13.448  0.2611 -0.4442 -0.0216
   34DOPE   H8R 4309   4.225   4.649  13.527 -1.1020  0.0333 -0.4630
   34DOPE   H8S 4310   4.321   4.532  13.409 -1.3815 -2.6013 -2.2912
   34DOPE   C29 4311   4.151   4.447  13.495  0.0213  0.4216 -0.4874
   34DOPE   H9R 4312   4.045   4.438  13.465  0.0728  1.5771 -1.0618
   34DOPE  C210 4313   4.200   4.349  13.570  0.2831  0.8946  0.6031
   34DOPE  H10R 4314   4.124   4.272  13.593 -0.4938  1.1505 -0.9174
   34DOPE  C211 4315   4.347   4.336  13.603 -0.3593 -0.5753  0.7726
   34DOPE  H11R 4316   4.391   4.437  13.616 -0.6567 -0.3113 -0.1673
   34DOPE  H11S 4317   4.406   4.279  13.529 -0.6708 -1.1549  0.9602
   34DOPE  C212 4318   4.375   4.261  13.744  0.1100 -0.1256  0.1898
   34DOPE  H12R 4319   4.474   4.210  13.747 -0.2322 -0.7943  0.4513
   34DOPE  H12S 4320   4.302   4.177  13.744  0.7539 -0.7117 -1.0957
   34DOPE  C213 4321   4.351   4.357  13.863  0.4958 -0.2778 -0.1508
   34DOPE  H13R 4322   4.257   4.413  13.845  1.8790  2.4659  0.6638
   34DOPE  H13S 4323   4.438   4.427  13.863  0.8630 -0.6996  1.0002
   34DOPE  C214 4324   4.341   4.287  14.000  1.0360  0.2176 -0.0009
   34DOPE  H14R 4325   4.438   4.237  14.016  0.8483  0.4335  1.9743
   34DOPE  H14S 4326   4.276   4.199  13.985  0.7140  0.5772 -0.8252
   34DOPE  C215 4327   4.300   4.381  14.113  0.7687  0.1968 -0.0159
   34DOPE  H15R 4328   4.197   4.413  14.088  0.7375  0.6399  0.6439
   34DOPE  H15S 4329   4.358   4.476  14.111 -2.0938  2.0407 -0.4791
   34DOPE  C216 4330   4.301   4.323  14.252 -0.5916 -0.4982  0.4842
   34DOPE  H16R 4331   4.218   4.250  14.264 -1.6081  0.7229  1.0504
   34DOPE  H16S 4332   4.271   4.408  14.317 -3.6333 -0.1485 -1.1949
   34DOPE  C217 4333   4.443   4.265  14.283  0.5252  0.1632  0.6105
   34DOPE  H17R 4334   4.522   4.343  14.282 -0.3223  1.0847  1.9036
   34DOPE  H17S 4335   4.470   4.184  14.212  3.4065  1.4645  0.1057
   34DOPE  C218 4336   4.459   4.200  14.422  0.4718  0.1019 -0.4208
   34DOPE  H18R 4337   4.554   4.142  14.425  1.3653  1.4310 -1.6978
   34DOPE  H18S 4338   4.374   4.130  14.437  0.9684 -0.1109  1.6758
   34DOPE  H18T 4339   4.458   4.280  14.499  2.1014 -1.5491  1.4194
   34DOPE   C33 4340   3.305   4.739  12.984 -0.0430 -0.2060 -0.4890
   34DOPE   H3X 4341   3.369   4.668  13.041 -0.4140  1.8337  2.6901
   34DOPE   H3Y 4342   3.229   4.666  12.948  0.6392 -0.8501 -0.6531
   34DOPE   C34 4343   3.234   4.845  13.068  0.3151  1.0041  0.2508
   34DOPE   H4X 4344   3.313   4.918  13.098 -0.2210  1.1952  1.2405
   34DOPE   H4Y 4345   3.152   4.896  13.014 -2.5964 -1.7223  1.8034
   34DOPE   C35 4346   3.169   4.784  13.196 -0.1949  0.5645  0.0005
   34DOPE   H5X 4347   3.249   4.746  13.264  0.0423 -1.4350 -1.2914
   34DOPE   H5Y 4348   3.118   4.686  13.179  1.8430 -0.2037 -2.3287
   34DOPE   C36 4349   3.076   4.882  13.263  0.4768 -0.0819  0.4276
   34DOPE   H6X 4350   2.979   4.895  13.210 -0.9787 -2.2597  2.3515
   34DOPE   H6Y 4351   3.116   4.986  13.257  0.2479  0.1144  1.9246
   34DOPE   C37 4352   3.042   4.855  13.415 -0.0168  0.6434  0.4455
   34DOPE   H7X 4353   3.010   4.749  13.425 -2.3612  1.2441 -0.0394
   34DOPE   H7Y 4354   3.138   4.860  13.471  0.2816 -1.3910  0.1909
   34DOPE   C38 4355   2.944   4.960  13.481 -0.0604 -0.0541  0.6433
   34DOPE   H8X 4356   2.856   4.958  13.412  1.3458 -3.6251 -1.3414
   34DOPE   H8Y 4357   3.002   5.052  13.460  1.5777 -1.1729  0.0403
   34DOPE   C39 4358   2.900   4.946  13.632  0.9238  0.0087 -0.4580
   34DOPE   H9X 4359   2.819   4.873  13.645  0.6368  0.0599 -1.8221
   34DOPE  C310 4360   2.967   5.007  13.732 -0.3927  0.1698 -0.0187
   34DOPE  H10X 4361   2.950   4.982  13.837 -1.0822  0.7385  0.0147
   34DOPE  C311 4362   3.082   5.106  13.721 -0.1830  0.3832 -0.0444
   34DOPE  H11X 4363   3.180   5.056  13.729 -0.2494  0.4235  1.2504
   34DOPE  H11Y 4364   3.072   5.155  13.622  1.2192 -1.5547 -1.2124
   34DOPE  C312 4365   3.080   5.214  13.831  0.4602  0.2005 -0.1688
   34DOPE  H12X 4366   3.002   5.288  13.803  0.9317  0.7085 -0.1530
   34DOPE  H12Y 4367   3.180   5.259  13.817  1.9259 -3.0736 -1.1354
   34DOPE  C313 4368   3.069   5.159  13.980 -0.0673  0.1970 -0.1884
   34DOPE  H13X 4369   2.965   5.124  13.993  0.6266 -2.1312 -0.4386
   34DOPE  H13Y 4370   3.138   5.076  14.009 -0.7397 -0.4466 -0.3886
   34DOPE  C314 4371   3.087   5.271  14.082  0.0947 -0.4083 -0.7994
   34DOPE  H14X 4372   3.038   5.366  14.051 -2.4765 -1.0614  0.9547
   34DOPE  H14Y 4373   3.196   5.288  14.100 -0.0600  0.7379 -0.8857
   34DOPE  C315 4374   3.034   5.230  14.219  0.5513  0.1249  0.0368
   34DOPE  H15X 4375   2.925   5.208  14.208 -0.1847  3.3361 -0.3188
   34DOPE  H15Y 4376   3.034   5.321  14.284 -0.3058  0.6418 -0.6694
   34DOPE  C316 4377   3.097   5.112  14.280  0.1853  0.0943 -1.1442
   34DOPE  H16X 4378   3.208   5.105  14.284  0.1327 -0.3245  0.6855
   34DOPE  H16Y 4379   3.060   5.030  14.215  0.5606 -1.2402  0.2520
   34DOPE  C317 4380   3.059   5.072  14.427  0.2584 -0.0275 -0.8236
   34DOPE  H17X 4381   2.989   5.148  14.466  0.5475  0.1938 -0.7273
   34DOPE  H17Y 4382   2.991   4.984  14.425 -1.6221  1.3745 -0.9964
   34DOPE  C318 4383   3.176   5.056  14.522  0.7028 -0.4273  0.3269
   34DOPE  H18X 4384   3.245   4.978  14.484  1.4794  0.5066 -0.2211
   34DOPE  H18Y 4385   3.231   5.152  14.532 -0.9267  0.3601  2.4247
   34DOPE  H18Z 4386   3.146   5.021  14.623  0.1246 -1.0874 -0.0633
   35DOPE     N 4387   5.473   2.777  11.806 -0.1611 -0.3677  0.7855
   35DOPE   HN1 4388   5.541   2.698  11.816  0.2662  0.0375  1.1394
   35DOPE   HN2 4389   5.513   2.857  11.860  1.1047 -1.1217  1.0229
   35DOPE   HN3 4390   5.392   2.741  11.860 -1.2359  0.3008 -0.3444
   35DOPE   C12 4391   5.428   2.806  11.665  0.7003 -0.3188  0.4832
   35DOPE  H12A 4392   5.522   2.826  11.609 -0.1056  2.3292 -0.0612
   35DOPE  H12B 4393   5.379   2.905  11.658 -1.1203 -1.2051  0.0028
   35DOPE   C11 4394   5.348   2.692  11.599 -0.2716  0.0662  0.2424
   35DOPE  H11A 4395   5.345   2.720  11.492  0.7830 -0.6300  0.0161
   35DOPE  H11B 4396   5.246   2.693  11.645 -0.1652 -0.8409  0.5183
   35DOPE     P 4397   5.520   2.515  11.531  0.0080  0.0476  0.2408
   35DOPE   O13 4398   5.634   2.604  11.571  0.5346  0.1728  0.2560
   35DOPE   O14 4399   5.476   2.528  11.391  0.1669 -0.6502 -0.3159
   35DOPE   O11 4400   5.541   2.366  11.574 -0.3916 -0.0521 -0.3331
   35DOPE   O12 4401   5.403   2.568  11.622  0.7095  0.1863 -0.1813
   35DOPE    C1 4402   5.437   2.296  11.644 -0.1398 -0.6199 -0.5079
   35DOPE    HA 4403   5.453   2.188  11.627 -0.0686 -0.8901  1.1578
   35DOPE    HB 4404   5.334   2.308  11.604 -1.2845 -3.3279  1.3469
   35DOPE    C2 4405   5.451   2.317  11.799 -0.4245  0.3623  0.5097
   35DOPE    HS 4406   5.390   2.407  11.823 -0.5936  0.1462  0.8896
   35DOPE   O21 4407   5.592   2.318  11.838  0.1745 -0.1351 -0.2713
   35DOPE   C21 4408   5.628   2.410  11.925 -0.4461 -0.6791 -0.0676
   35DOPE   O22 4409   5.560   2.499  11.965  0.2085 -0.9055  0.2763
   35DOPE   C22 4410   5.768   2.386  11.977  0.3525  0.8152 -0.7471
   35DOPE   H2R 4411   5.837   2.428  11.900  1.1291  0.0604 -0.4851
   35DOPE   H2S 4412   5.792   2.278  11.971 -1.5678  0.3055  0.0070
   35DOPE    C3 4413   5.372   2.199  11.871  0.4961  0.4649  0.3959
   35DOPE    HX 4414   5.413   2.104  11.830  2.3731  1.6455 -0.6460
   35DOPE    HY 4415   5.270   2.212  11.829  0.5775  1.0989  0.3845
   35DOPE   O31 4416   5.384   2.206  12.012  0.0516 -0.1471  0.0897
   35DOPE   C31 4417   5.326   2.101  12.081 -0.1337 -0.4126  0.1333
   35DOPE   O32 4418   5.267   2.012  12.025 -0.0795  0.4262  0.2137
   35DOPE   C32 4419   5.345   2.112  12.233 -0.0903  0.5350 -0.4769
   35DOPE   H2X 4420   5.407   2.200  12.262 -0.4084  0.4739  0.4210
   35DOPE   H2Y 4421   5.240   2.112  12.267  0.3957  0.1917  1.0942
   35DOPE   C23 4422   5.802   2.455  12.118  0.0784 -0.0754 -0.0158
   35DOPE   H3R 4423   5.771   2.559  12.094  2.3213  0.6656  0.0746
   35DOPE   H3S 4424   5.910   2.469  12.138 -0.0125 -0.2206  0.5790
   35DOPE   C24 4425   5.721   2.396  12.233 -0.5417 -0.4557  1.1065
   35DOPE   H4R 4426   5.748   2.289  12.237 -0.1534 -0.3374  2.5903
   35DOPE   H4S 4427   5.611   2.401  12.216 -0.2886 -0.3397 -0.5804
   35DOPE   C25 4428   5.730   2.459  12.372  0.4925  0.2155 -0.0849
   35DOPE   H5R 4429   5.674   2.555  12.364  0.4807  0.4451  2.0519
   35DOPE   H5S 4430   5.833   2.492  12.397  1.2662  0.0903 -2.8392
   35DOPE   C26 4431   5.670   2.361  12.483 -0.4144 -0.7529 -0.3909
   35DOPE   H6R 4432   5.749   2.288  12.510  0.0166  0.4996  2.0246
   35DOPE   H6S 4433   5.594   2.302  12.428 -0.4670 -0.5714 -0.5115
   35DOPE   C27 4434   5.617   2.438  12.605  0.3984  0.5871 -0.2697
   35DOPE   H7R 4435   5.514   2.474  12.587  0.2085  0.3025  0.1994
   35DOPE   H7S 4436   5.683   2.526  12.613  0.9017  0.2889 -1.0401
   35DOPE   C28 4437   5.636   2.350  12.735 -0.9150  0.4747 -0.2800
   35DOPE   H8R 4438   5.746   2.330  12.732 -0.9330 -0.1519  1.7424
   35DOPE   H8S 4439   5.597   2.248  12.716  2.3316 -0.5468 -2.4472
   35DOPE   C29 4440   5.579   2.395  12.863  0.5862  0.2514 -0.3336
   35DOPE   H9R 4441   5.471   2.373  12.867 -0.3961  4.0696 -1.4081
   35DOPE  C210 4442   5.642   2.449  12.970 -0.4980  0.0397 -0.5969
   35DOPE  H10R 4443   5.580   2.498  13.046 -1.5289 -1.5632 -0.3779
   35DOPE  C211 4444   5.786   2.489  12.986  0.0797  0.3046  0.4687
   35DOPE  H11R 4445   5.795   2.593  13.024  2.8587  0.4657 -0.4147
   35DOPE  H11S 4446   5.829   2.481  12.884  1.3366 -1.8667  1.1083
   35DOPE  C212 4447   5.865   2.400  13.083  0.7840 -0.1556 -0.1945
   35DOPE  H12R 4448   5.972   2.427  13.075  0.9955 -0.9859 -0.3102
   35DOPE  H12S 4449   5.871   2.290  13.066 -3.3550 -0.6873  0.6312
   35DOPE  C213 4450   5.813   2.422  13.228  0.3734  0.7882 -0.2325
   35DOPE  H13R 4451   5.708   2.387  13.238  0.7355  0.0432  1.1910
   35DOPE  H13S 4452   5.815   2.527  13.264 -0.4812  0.7276  0.0152
   35DOPE  C214 4453   5.902   2.348  13.318  0.2957 -0.1198 -0.9966
   35DOPE  H14R 4454   6.002   2.393  13.300  0.7840 -1.0087 -0.5987
   35DOPE  H14S 4455   5.902   2.238  13.300  0.5138 -0.3692  0.3670
   35DOPE  C215 4456   5.885   2.380  13.467 -0.0266  0.4414  0.5975
   35DOPE  H15R 4457   5.781   2.355  13.498 -0.1629 -0.2871 -0.3950
   35DOPE  H15S 4458   5.892   2.491  13.476  0.3579  0.6403 -1.6418
   35DOPE  C216 4459   5.962   2.299  13.569 -0.2736 -0.0053  0.4961
   35DOPE  H16R 4460   5.943   2.340  13.670 -0.1684  1.3578 -0.0134
   35DOPE  H16S 4461   6.068   2.319  13.542  0.3778 -1.5366  1.7563
   35DOPE  C217 4462   5.944   2.152  13.568 -0.2784 -0.0073 -0.4976
   35DOPE  H17R 4463   5.981   2.098  13.478  1.8477  0.6637 -0.0949
   35DOPE  H17S 4464   5.838   2.118  13.572 -0.2016 -0.1459  1.5532
   35DOPE  C218 4465   6.011   2.092  13.691  0.0590  0.3144 -0.1236
   35DOPE  H18R 4466   6.108   2.135  13.723 -0.7493  0.9004  1.6733
   35DOPE  H18S 4467   6.044   1.986  13.679  1.9742  0.3284  3.4147
   35DOPE  H18T 4468   5.942   2.099  13.778  1.1878  2.7053  0.6568
   35DOPE   C33 4469   5.407   1.985  12.312 -0.4962  0.2701  0.5626
   35DOPE   H3X 4470   5.509   1.973  12.270 -1.0901  0.3612 -0.9718
   35DOPE   H3Y 4471   5.344   1.900  12.279  0.0822  0.7631 -2.0093
   35DOPE   C34 4472   5.420   2.017  12.461  0.0671  0.4909 -0.1838
   35DOPE   H4X 4473   5.507   2.080  12.490 -1.0982  2.0592  0.0394
   35DOPE   H4Y 4474   5.327   2.076  12.479 -0.5427 -0.4237 -0.2455
   35DOPE   C35 4475   5.420   1.896  12.556  0.7263 -0.3176  0.1574
   35DOPE   H5X 4476   5.519   1.847  12.573  0.7605 -0.1322  0.5063
   35DOPE   H5Y 4477   5.353   1.823  12.507 -0.7126  1.2305 -0.2532
   35DOPE   C36 4478   5.363   1.926  12.695  0.2462 -0.5961  0.0497
   35DOPE   H6X 4479   5.384   1.832  12.751  2.5215 -1.3610 -1.9252
   35DOPE   H6Y 4480   5.252   1.934  12.694  0.3713  2.8052  0.9302
   35DOPE   C37 4481   5.415   2.052  12.764  0.1839 -0.2712  0.3308
   35DOPE   H7X 4482   5.524   2.038  12.776  0.2314 -1.1967 -0.9803
   35DOPE   H7Y 4483   5.392   2.142  12.703 -1.1750 -0.9249 -0.1826
   35DOPE   C38 4484   5.352   2.078  12.907 -0.4651  0.3858 -0.1633
   35DOPE   H8X 4485   5.244   2.059  12.888  0.2832 -3.2931 -1.6103
   35DOPE   H8Y 4486   5.360   2.185  12.936 -1.3308  0.1586  0.9681
   35DOPE   C39 4487   5.390   1.978  13.018 -0.1929  0.2377 -0.0125
   35DOPE   H9X 4488   5.360   1.872  13.015  1.1625 -0.1555 -0.2839
   35DOPE  C310 4489   5.469   2.009  13.129 -0.0500  0.2107 -0.2362
   35DOPE  H10X 4490   5.492   1.924  13.195 -1.6223 -2.1834 -2.6053
   35DOPE  C311 4491   5.519   2.144  13.173  0.3239 -0.6504  0.2725
   35DOPE  H11X 4492   5.629   2.130  13.177  0.1258 -3.4200 -1.3888
   35DOPE  H11Y 4493   5.490   2.227  13.105 -0.3580  2.3856  3.8990
   35DOPE  C312 4494   5.493   2.192  13.320  1.1173 -0.3482  0.2124
   35DOPE  H12X 4495   5.385   2.190  13.343  1.2362 -2.6561  0.8900
   35DOPE  H12Y 4496   5.530   2.295  13.334 -1.3236  0.6502 -0.2797
   35DOPE  C313 4497   5.551   2.099  13.428  0.1238 -0.1521  0.0820
   35DOPE  H13X 4498   5.511   1.996  13.411  0.0695 -0.3617  1.4214
   35DOPE  H13Y 4499   5.661   2.102  13.410 -0.1584  1.4753 -1.7086
   35DOPE  C314 4500   5.497   2.159  13.562  0.8942 -0.6815  0.1458
   35DOPE  H14X 4501   5.387   2.149  13.563  0.7673  0.4072 -1.0653
   35DOPE  H14Y 4502   5.522   2.267  13.567 -2.3045  0.2333 -1.4734
   35DOPE  C315 4503   5.568   2.095  13.687  0.1271  0.0494  0.2670
   35DOPE  H15X 4504   5.506   2.124  13.775  0.0104  1.0497 -0.1288
   35DOPE  H15Y 4505   5.665   2.147  13.701 -0.5780  1.5183 -0.1113
   35DOPE  C316 4506   5.598   1.947  13.692 -0.2957 -0.0215 -0.6708
   35DOPE  H16X 4507   5.658   1.920  13.602  0.6946  1.3455 -0.4487
   35DOPE  H16Y 4508   5.507   1.884  13.703  0.1115 -0.4882  0.0881
   35DOPE  C317 4509   5.685   1.915  13.815  0.5266 -0.1718  0.0005
   35DOPE  H17X 4510   5.790   1.939  13.786 -0.1403  2.3073 -0.6382
   35DOPE  H17Y 4511   5.648   1.975  13.901 -3.9229 -0.1170 -1.6994
   35DOPE  C318 4512   5.667   1.763  13.858 -0.1900 -0.2219  0.1662
   35DOPE  H18X 4513   5.745   1.735  13.932  1.2881  2.2288 -0.3512
   35DOPE  H18Y 4514   5.567   1.738  13.901 -0.7386  0.9777 -0.3565
   35DOPE  H18Z 4515   5.685   1.705  13.766  1.3465 -0.1170  0.3804
   36DOPE     N 4516   5.853   4.304  11.196 -0.1392 -1.2347  0.3023
   36DOPE   HN1 4517   5.921   4.376  11.227  0.1747 -1.1185 -0.6367
   36DOPE   HN2 4518   5.885   4.267  11.104  0.3698  0.1360 -0.0924
   36DOPE   HN3 4519   5.758   4.348  11.198  0.4001 -0.0655  1.3251
   36DOPE   C12 4520   5.864   4.199  11.303  0.0811 -0.5399  0.3970
   36DOPE  H12A 4521   5.907   4.105  11.263  2.3390  1.3297 -1.9083
   36DOPE  H12B 4522   5.759   4.185  11.337 -0.4414  1.1794 -0.4339
   36DOPE   C11 4523   5.945   4.261  11.419  0.2151  0.0018  0.5798
   36DOPE  H11A 4524   6.050   4.286  11.391 -0.1195  2.0841  0.9787
   36DOPE  H11B 4525   5.944   4.183  11.497 -0.9421 -1.3031 -0.6816
   36DOPE     P 4526   5.935   4.452  11.588  0.4800  0.0679 -0.1453
   36DOPE   O13 4527   5.827   4.544  11.638  0.8488  0.0361 -1.2176
   36DOPE   O14 4528   6.055   4.520  11.547  0.0488  0.0992  0.0147
   36DOPE   O11 4529   5.977   4.355  11.705 -0.0346  0.4041 -0.6174
   36DOPE   O12 4530   5.876   4.372  11.476 -0.6797 -0.4190 -1.0117
   36DOPE    C1 4531   5.881   4.260  11.748 -0.0691  0.5910  0.1207
   36DOPE    HA 4532   5.845   4.190  11.669 -0.1545 -0.0586  0.7221
   36DOPE    HB 4533   5.784   4.308  11.771 -1.0242 -1.3343  0.3397
   36DOPE    C2 4534   5.935   4.176  11.867 -0.3696 -0.1849 -0.2841
   36DOPE    HS 4535   5.843   4.128  11.907  0.1960 -2.1089 -1.1796
   36DOPE   O21 4536   6.005   4.246  11.974  0.0632 -0.1926 -0.7222
   36DOPE   C21 4537   5.944   4.327  12.042 -0.4235 -0.0784 -0.1189
   36DOPE   O22 4538   5.824   4.354  12.043 -0.0220 -0.1844  0.2215
   36DOPE   C22 4539   6.048   4.375  12.152  0.6032 -0.3069 -0.1242
   36DOPE   H2R 4540   6.051   4.486  12.143 -1.5349 -0.1880  0.1788
   36DOPE   H2S 4541   6.145   4.329  12.124  0.8196  0.5418 -0.7865
   36DOPE    C3 4542   6.021   4.053  11.816 -0.2646 -0.4296  0.8293
   36DOPE    HX 4543   6.105   4.105  11.766  1.5591 -2.1009  2.0185
   36DOPE    HY 4544   5.966   3.987  11.745  0.2102  0.0168  0.0404
   36DOPE   O31 4545   6.059   3.972  11.931  0.3139  0.2918  0.4156
   36DOPE   C31 4546   6.145   3.874  11.891  0.1746 -0.4322 -0.4695
   36DOPE   O32 4547   6.197   3.867  11.781 -0.3121  0.1413 -0.0408
   36DOPE   C32 4548   6.188   3.779  11.996  0.2646 -0.0496 -0.3018
   36DOPE   H2X 4549   6.126   3.688  11.981  0.6045 -0.4264  0.4942
   36DOPE   H2Y 4550   6.289   3.741  11.968  1.2289  0.2380  2.4359
   36DOPE   C23 4551   5.998   4.332  12.286 -0.0820  0.7587 -0.0191
   36DOPE   H3R 4552   5.895   4.370  12.306  0.6785  1.9012  1.9839
   36DOPE   H3S 4553   6.061   4.380  12.364 -0.2163  0.9481 -0.0256
   36DOPE   C24 4554   6.005   4.182  12.299 -1.1846 -0.0562  0.4829
   36DOPE   H4R 4555   6.104   4.143  12.265 -0.4466  1.2216  1.0964
   36DOPE   H4S 4556   5.929   4.136  12.232 -0.1912 -0.2533 -0.5482
   36DOPE   C25 4557   5.973   4.130  12.442  0.0420  0.0137 -0.2227
   36DOPE   H5R 4558   5.941   4.023  12.447  1.4668 -0.4157  0.2381
   36DOPE   H5S 4559   5.884   4.191  12.468  1.4141  2.9425 -1.9521
   36DOPE   C26 4560   6.089   4.148  12.540 -0.2494 -0.2676 -0.1077
   36DOPE   H6R 4561   6.135   4.249  12.548 -1.5449  0.3178  0.2715
   36DOPE   H6S 4562   6.169   4.076  12.512  0.6143  0.0391  1.4413
   36DOPE   C27 4563   6.040   4.117  12.686 -0.5276 -0.6409  0.4949
   36DOPE   H7R 4564   5.995   4.015  12.680 -1.8392 -0.0480 -0.2602
   36DOPE   H7S 4565   5.948   4.176  12.707  0.0842  1.0610 -1.3100
   36DOPE   C28 4566   6.153   4.113  12.795  0.4242  0.3985  0.3623
   36DOPE   H8R 4567   6.188   4.216  12.821 -1.4887  0.5435  2.7361
   36DOPE   H8S 4568   6.248   4.067  12.759 -0.8884 -2.4111  0.2595
   36DOPE   C29 4569   6.111   4.044  12.918 -0.2338  0.1128  0.6127
   36DOPE   H9R 4570   6.034   3.968  12.898  0.9284 -0.7921 -0.6124
   36DOPE  C210 4571   6.142   4.082  13.043 -0.5632 -0.0139  0.2293
   36DOPE  H10R 4572   6.111   4.012  13.122 -1.6861 -1.8921 -1.7552
   36DOPE  C211 4573   6.238   4.185  13.084  0.0303 -0.0145  0.4242
   36DOPE  H11R 4574   6.199   4.282  13.047 -1.4475 -0.0030  1.8845
   36DOPE  H11S 4575   6.333   4.164  13.029  0.8391  2.4785  0.7283
   36DOPE  C212 4576   6.275   4.189  13.234 -0.1766 -0.1654 -0.5604
   36DOPE  H12R 4577   6.370   4.246  13.246 -0.3767 -0.1759  1.2405
   36DOPE  H12S 4578   6.302   4.088  13.271 -0.5959  0.8749  2.9007
   36DOPE  C213 4579   6.169   4.253  13.326  0.2991  0.1142 -0.0442
   36DOPE  H13R 4580   6.081   4.188  13.312  1.8550 -1.9035 -1.0006
   36DOPE  H13S 4581   6.149   4.358  13.295  1.6039  0.5044  0.3664
   36DOPE  C214 4582   6.216   4.257  13.472 -0.2721 -0.2547 -0.1487
   36DOPE  H14R 4583   6.168   4.345  13.522  0.9477  0.3370  0.0166
   36DOPE  H14S 4584   6.327   4.266  13.476 -0.2360 -1.0039  0.8601
   36DOPE  C215 4585   6.161   4.135  13.550 -0.5190 -0.0416  0.8524
   36DOPE  H15R 4586   6.182   4.043  13.491 -0.1870 -0.0228  0.9383
   36DOPE  H15S 4587   6.054   4.147  13.578 -0.8694  0.7550 -0.7026
   36DOPE  C216 4588   6.243   4.110  13.681 -0.4552  0.4102  0.2987
   36DOPE  H16R 4589   6.190   4.166  13.761 -1.9861 -0.3259 -0.1520
   36DOPE  H16S 4590   6.347   4.145  13.668 -0.5876  0.7100  0.0339
   36DOPE  C217 4591   6.243   3.959  13.717 -0.6473  0.4882  0.4984
   36DOPE  H17R 4592   6.312   3.946  13.803 -0.6245  0.7469  0.5194
   36DOPE  H17S 4593   6.287   3.893  13.639 -1.2458  1.9637 -1.1593
   36DOPE  C218 4594   6.107   3.893  13.749 -0.8074 -0.0266  0.0122
   36DOPE  H18R 4595   6.046   3.891  13.656  0.9146  0.1687 -1.1716
   36DOPE  H18S 4596   6.068   3.954  13.833 -0.9078 -0.4707  0.2928
   36DOPE  H18T 4597   6.135   3.791  13.783  1.3944  1.0409  1.6120
   36DOPE   C33 4598   6.190   3.842  12.137 -0.2633  0.4280  0.0241
   36DOPE   H3X 4599   6.084   3.855  12.168 -1.0451  1.1511 -2.6874
   36DOPE   H3Y 4600   6.240   3.941  12.137 -0.2844  0.4422 -0.5612
   36DOPE   C34 4601   6.248   3.750  12.245 -0.0124 -0.7568  0.4970
   36DOPE   H4X 4602   6.194   3.654  12.254 -1.7163  0.3753  4.3046
   36DOPE   H4Y 4603   6.354   3.724  12.223 -0.1051 -0.2356 -0.6333
   36DOPE   C35 4604   6.233   3.811  12.386 -0.0545 -0.1766 -0.1836
   36DOPE   H5X 4605   6.126   3.831  12.407 -0.4758 -1.3236 -1.1373
   36DOPE   H5Y 4606   6.293   3.905  12.392  1.0224 -0.7889 -0.9515
   36DOPE   C36 4607   6.290   3.724  12.500 -0.0449  0.6330 -0.4831
   36DOPE   H6X 4608   6.392   3.688  12.475 -0.2618 -0.7255  0.4228
   36DOPE   H6Y 4609   6.216   3.641  12.504 -0.1237  0.6986 -0.5989
   36DOPE   C37 4610   6.284   3.794  12.636 -0.8152 -0.0267 -0.1177
   36DOPE   H7X 4611   6.343   3.888  12.625 -2.1720  0.9274  0.4152
   36DOPE   H7Y 4612   6.181   3.833  12.655 -1.5316 -2.0098  0.2756
   36DOPE   C38 4613   6.341   3.716  12.759  0.9603 -0.1032 -0.4150
   36DOPE   H8X 4614   6.361   3.796  12.833  1.5347 -0.6192  0.0009
   36DOPE   H8Y 4615   6.437   3.670  12.729  0.5168 -1.0458 -0.4318
   36DOPE   C39 4616   6.236   3.621  12.808 -1.1698 -0.1592 -0.2850
   36DOPE   H9X 4617   6.193   3.560  12.727  0.5313  1.0124 -2.1499
   36DOPE  C310 4618   6.202   3.595  12.939 -0.4786 -0.0215  0.0531
   36DOPE  H10X 4619   6.129   3.515  12.960  0.2524 -0.2220  2.1304
   36DOPE  C311 4620   6.255   3.654  13.069  0.7048 -0.2875 -0.3057
   36DOPE  H11X 4621   6.320   3.581  13.122  1.1761 -0.3073 -0.9000
   36DOPE  H11Y 4622   6.315   3.745  13.051 -0.3010  0.2225 -1.2290
   36DOPE  C312 4623   6.143   3.672  13.172 -0.1997  0.2725 -0.4140
   36DOPE  H12X 4624   6.090   3.577  13.197  1.2261 -0.2077  0.8920
   36DOPE  H12Y 4625   6.066   3.733  13.120  0.1963 -0.7245 -2.2189
   36DOPE  C313 4626   6.173   3.754  13.295 -0.5941 -0.0738  0.6335
   36DOPE  H13X 4627   6.235   3.838  13.259 -0.3483 -0.5641 -0.1056
   36DOPE  H13Y 4628   6.082   3.797  13.342 -1.7922 -3.6834  1.9809
   36DOPE  C314 4629   6.268   3.694  13.397 -0.7903 -0.3989 -0.4777
   36DOPE  H14X 4630   6.331   3.771  13.445 -1.1827  0.7881 -1.7803
   36DOPE  H14Y 4631   6.338   3.630  13.338  1.5217  2.1575 -0.7304
   36DOPE  C315 4632   6.201   3.589  13.491  0.0949 -0.4999  0.0116
   36DOPE  H15X 4633   6.143   3.517  13.430 -3.0284  0.4702  1.6357
   36DOPE  H15Y 4634   6.131   3.642  13.558  0.8871  0.6047 -0.0146
   36DOPE  C316 4635   6.300   3.517  13.576  0.8128  0.5905 -0.6443
   36DOPE  H16X 4636   6.338   3.587  13.653 -2.3469  1.4156  0.3118
   36DOPE  H16Y 4637   6.383   3.475  13.514  1.6617  0.4483  0.5622
   36DOPE  C317 4638   6.239   3.402  13.655  0.3659 -0.0999 -0.0252
   36DOPE  H17X 4639   6.161   3.359  13.589  3.8704 -2.3736 -2.9991
   36DOPE  H17Y 4640   6.309   3.319  13.674 -0.4665 -1.1370 -1.3262
   36DOPE  C318 4641   6.179   3.447  13.791  0.6212  0.8726  0.7718
   36DOPE  H18X 4642   6.141   3.362  13.853  0.7779  0.5914  0.4848
   36DOPE  H18Y 4643   6.254   3.502  13.851  0.9585  1.5084 -0.2116
   36DOPE  H18Z 4644   6.100   3.524  13.777 -1.2113 -0.6259  2.2087
   37DOPE     N 4645   4.297   3.315  12.006 -0.3054  0.2561 -0.3044
   37DOPE   HN1 4646   4.275   3.403  12.057 -2.9852  0.6361 -1.9027
   37DOPE   HN2 4647   4.214   3.252  12.007 -0.0284 -0.1407  1.8842
   37DOPE   HN3 4648   4.356   3.270  12.078  0.7959  0.3412 -1.1327
   37DOPE   C12 4649   4.379   3.314  11.880  0.0479 -0.5872 -0.4787
   37DOPE  H12A 4650   4.479   3.352  11.908  0.4051 -2.3637  0.8185
   37DOPE  H12B 4651   4.327   3.374  11.802  1.7294  0.9075 -0.5073
   37DOPE   C11 4652   4.382   3.174  11.813  0.3551 -0.2545  0.5304
   37DOPE  H11A 4653   4.427   3.184  11.712  1.0809 -0.3911  0.8327
   37DOPE  H11B 4654   4.276   3.149  11.790  0.0334  1.7474 -0.4444
   37DOPE     P 4655   4.527   2.963  11.874 -0.0779 -0.2227 -0.0238
   37DOPE   O13 4656   4.640   3.006  11.788  0.7512 -0.0401 -0.3284
   37DOPE   O14 4657   4.438   2.861  11.817 -0.1571  0.4348  0.1033
   37DOPE   O11 4658   4.577   2.900  12.012 -0.0300 -0.9703  0.0840
   37DOPE   O12 4659   4.444   3.091  11.912  0.6922 -0.5523  0.1600
   37DOPE    C1 4660   4.563   2.962  12.137 -0.4347 -0.4440  0.0640
   37DOPE    HA 4661   4.588   3.070  12.129 -1.0747 -0.4307 -2.7543
   37DOPE    HB 4662   4.633   2.909  12.205 -1.3047  0.0561  1.3911
   37DOPE    C2 4663   4.433   2.935  12.209  0.1033 -0.8502  0.1443
   37DOPE    HS 4664   4.346   2.967  12.147 -2.7613 -2.8325  2.8283
   37DOPE   O21 4665   4.423   3.014  12.330 -0.3368  0.5200 -0.1404
   37DOPE   C21 4666   4.431   3.147  12.323 -0.7923 -0.2890 -0.1614
   37DOPE   O22 4667   4.428   3.212  12.217  0.5750 -0.4371 -0.3366
   37DOPE   C22 4668   4.441   3.200  12.473 -0.4902 -0.5432  0.2005
   37DOPE   H2R 4669   4.349   3.258  12.498 -1.0513  0.1808 -3.0137
   37DOPE   H2S 4670   4.521   3.277  12.469 -0.5201 -0.3516  2.4692
   37DOPE    C3 4671   4.400   2.789  12.252  0.2784  0.4146 -0.1583
   37DOPE    HX 4672   4.383   2.741  12.153 -1.1172 -2.0737  1.1760
   37DOPE    HY 4673   4.315   2.795  12.323 -0.2242 -0.0001 -0.7090
   37DOPE   O31 4674   4.519   2.728  12.308  0.2646  0.1494  0.1759
   37DOPE   C31 4675   4.495   2.596  12.333  0.5165  0.2605 -0.1367
   37DOPE   O32 4676   4.390   2.546  12.298  0.1259  0.3678  0.0059
   37DOPE   C32 4677   4.598   2.536  12.417 -0.9833 -0.1436 -0.0900
   37DOPE   H2X 4678   4.643   2.448  12.366  0.5760  2.9156 -4.7177
   37DOPE   H2Y 4679   4.686   2.602  12.434 -0.8463 -0.5445  0.8220
   37DOPE   C23 4680   4.484   3.095  12.584  0.0022 -0.3135  0.4597
   37DOPE   H3R 4681   4.571   3.038  12.545  1.0999  1.2665  0.4951
   37DOPE   H3S 4682   4.396   3.030  12.601  0.5549 -0.5857  2.6324
   37DOPE   C24 4683   4.535   3.163  12.714  0.4395  0.1892  0.8965
   37DOPE   H4R 4684   4.616   3.232  12.683  0.0148  0.7901  1.1114
   37DOPE   H4S 4685   4.577   3.081  12.777  0.7842 -0.7773 -0.5598
   37DOPE   C25 4686   4.431   3.247  12.782  0.1254 -0.6205  0.1343
   37DOPE   H5R 4687   4.339   3.187  12.771  0.1068 -0.1831 -2.9235
   37DOPE   H5S 4688   4.417   3.342  12.726 -1.3503 -0.0254  1.4419
   37DOPE   C26 4689   4.451   3.272  12.936  0.4212  0.2916  1.0127
   37DOPE   H6R 4690   4.350   3.304  12.972 -1.1033 -1.4441 -1.3673
   37DOPE   H6S 4691   4.514   3.363  12.948  1.4831  0.1386 -2.2931
   37DOPE   C27 4692   4.508   3.157  13.013  0.2502  0.1984  0.1603
   37DOPE   H7R 4693   4.614   3.145  12.982  0.2008  1.9012 -0.7947
   37DOPE   H7S 4694   4.465   3.062  12.974  1.6745 -0.4521  0.1303
   37DOPE   C28 4695   4.516   3.182  13.162  0.0514  0.6554  0.7540
   37DOPE   H8R 4696   4.578   3.269  13.195 -0.6167  1.7734 -0.8468
   37DOPE   H8S 4697   4.570   3.095  13.205  2.4515  1.8591  0.3728
   37DOPE   C29 4698   4.376   3.201  13.220 -0.2082  0.7674 -0.0239
   37DOPE   H9R 4699   4.289   3.165  13.164  0.0833 -0.1209  0.0840
   37DOPE  C210 4700   4.345   3.269  13.330 -0.3383  0.2334  0.2338
   37DOPE  H10R 4701   4.241   3.285  13.362 -0.7055 -2.0682  0.2991
   37DOPE  C211 4702   4.449   3.345  13.416  0.4786 -0.2118  0.0030
   37DOPE  H11R 4703   4.537   3.382  13.359  0.4391 -0.3469 -0.1471
   37DOPE  H11S 4704   4.497   3.282  13.495 -0.4860  0.0482  0.8175
   37DOPE  C212 4705   4.394   3.471  13.481  0.3226 -0.8888  0.3746
   37DOPE  H12R 4706   4.309   3.451  13.551  0.9200 -0.8451  1.1251
   37DOPE  H12S 4707   4.344   3.529  13.400  1.6724  0.2603  0.3216
   37DOPE  C213 4708   4.504   3.544  13.562  0.0351 -0.5635 -0.1643
   37DOPE  H13R 4709   4.585   3.559  13.489  0.6495 -2.8367 -0.0136
   37DOPE  H13S 4710   4.539   3.480  13.646 -0.3056 -0.5084  0.0232
   37DOPE  C214 4711   4.458   3.681  13.614  0.2011 -0.4924  0.0253
   37DOPE  H14R 4712   4.374   3.661  13.684 -0.5259  1.5773 -0.1910
   37DOPE  H14S 4713   4.432   3.734  13.520  0.9433 -0.6558 -0.2789
   37DOPE  C215 4714   4.563   3.766  13.686 -0.2709  0.2997  0.5266
   37DOPE  H15R 4715   4.563   3.867  13.640  0.0808  0.7386  1.4686
   37DOPE  H15S 4716   4.660   3.716  13.668  0.1130  0.3778  2.2159
   37DOPE  C216 4717   4.533   3.778  13.835 -0.2724 -0.6622  0.4682
   37DOPE  H16R 4718   4.508   3.684  13.888 -0.2167  0.6463  2.9680
   37DOPE  H16S 4719   4.442   3.842  13.836  1.8506  2.6821 -1.0290
   37DOPE  C217 4720   4.643   3.858  13.909  0.6049 -0.5322 -0.0124
   37DOPE  H17R 4721   4.635   3.965  13.879 -1.2865 -0.1820  1.5984
   37DOPE  H17S 4722   4.742   3.810  13.888  0.1029 -0.9460 -1.5581
   37DOPE  C218 4723   4.636   3.852  14.066 -0.5089 -0.2818 -0.3100
   37DOPE  H18R 4724   4.711   3.922  14.108  1.3202 -0.5225 -2.9598
   37DOPE  H18S 4725   4.667   3.755  14.110  0.0169  1.0007  2.3258
   37DOPE  H18T 4726   4.531   3.864  14.100 -0.6615 -0.8395 -0.5817
   37DOPE   C33 4727   4.543   2.513  12.561 -0.1425  0.9275  0.0623
   37DOPE   H3X 4728   4.458   2.443  12.561 -0.6419  1.4885  1.6048
   37DOPE   H3Y 4729   4.503   2.610  12.599 -1.4819  0.8770 -1.1385
   37DOPE   C34 4730   4.650   2.469  12.657 -0.3590  0.5276 -0.3692
   37DOPE   H4X 4731   4.689   2.378  12.606 -0.6826  0.8106 -1.1422
   37DOPE   H4Y 4732   4.726   2.548  12.645  1.1950 -1.1082 -2.0003
   37DOPE   C35 4733   4.589   2.449  12.800  0.1274 -0.0232 -0.2442
   37DOPE   H5X 4734   4.523   2.361  12.794  1.1577 -0.7399 -2.3892
   37DOPE   H5Y 4735   4.530   2.539  12.826  1.5129  0.7830  0.2129
   37DOPE   C36 4736   4.697   2.419  12.911  0.5704 -0.6733  0.4032
   37DOPE   H6X 4737   4.742   2.517  12.936  0.0065  0.0988 -1.4528
   37DOPE   H6Y 4738   4.778   2.353  12.874 -0.4201 -2.2026  0.8465
   37DOPE   C37 4739   4.640   2.349  13.039 -0.3643 -0.4210 -0.6780
   37DOPE   H7X 4740   4.556   2.409  13.078 -0.2355  0.5734 -1.8548
   37DOPE   H7Y 4741   4.593   2.253  13.010 -0.6517  0.0410 -1.8096
   37DOPE   C38 4742   4.741   2.327  13.151 -0.0986 -0.2954 -0.2583
   37DOPE   H8X 4743   4.835   2.297  13.100 -0.7373  0.5198 -1.9754
   37DOPE   H8Y 4744   4.701   2.250  13.221  0.3779 -0.5943 -0.3130
   37DOPE   C39 4745   4.773   2.445  13.234  0.7177  0.1475  0.0717
   37DOPE   H9X 4746   4.782   2.539  13.178  1.3880  1.0246  1.5952
   37DOPE  C310 4747   4.756   2.465  13.371  0.2556  0.2234 -0.1042
   37DOPE  H10X 4748   4.769   2.569  13.404 -1.6310  0.7288 -0.8077
   37DOPE  C311 4749   4.713   2.360  13.471 -0.4978  0.5020  0.3958
   37DOPE  H11X 4750   4.744   2.260  13.434  1.9624  1.4966 -0.4581
   37DOPE  H11Y 4751   4.774   2.359  13.563 -0.5598  0.9167  0.4432
   37DOPE  C312 4752   4.564   2.358  13.493  0.0539  0.4064 -0.0717
   37DOPE  H12X 4753   4.525   2.258  13.520 -0.2323  0.5401  0.0192
   37DOPE  H12Y 4754   4.506   2.378  13.400  0.0028 -3.0611 -0.9229
   37DOPE  C313 4755   4.519   2.454  13.610  0.0556 -0.1078 -0.1341
   37DOPE  H13X 4756   4.556   2.558  13.603 -1.6792  1.0024  3.8144
   37DOPE  H13Y 4757   4.408   2.462  13.609 -0.2528 -3.2458 -0.0178
   37DOPE  C314 4758   4.553   2.405  13.752  0.2164 -1.1521  0.0644
   37DOPE  H14X 4759   4.664   2.401  13.756  0.2945  0.0554 -0.5119
   37DOPE  H14Y 4760   4.507   2.306  13.773  1.0536 -1.3246  1.1226
   37DOPE  C315 4761   4.497   2.496  13.862 -0.5604 -0.0494  0.1851
   37DOPE  H15X 4762   4.543   2.597  13.862 -1.5029  0.3993  1.3438
   37DOPE  H15Y 4763   4.525   2.446  13.957  1.0359  0.3379 -0.0684
   37DOPE  C316 4764   4.345   2.522  13.854 -0.1768 -0.0384  0.0332
   37DOPE  H16X 4765   4.285   2.431  13.836 -3.5088  1.7388  1.2932
   37DOPE  H16Y 4766   4.335   2.591  13.767  0.8239 -1.4704 -1.2791
   37DOPE  C317 4767   4.289   2.592  13.981  0.0747 -0.3797  0.2597
   37DOPE  H17X 4768   4.358   2.678  13.998  2.2776 -2.0707  0.2536
   37DOPE  H17Y 4769   4.191   2.641  13.964  0.2309  0.7523  2.3412
   37DOPE  C318 4770   4.271   2.493  14.092  0.2505 -0.4055  0.0519
   37DOPE  H18X 4771   4.368   2.444  14.117  1.7771  2.4147  0.0638
   37DOPE  H18Y 4772   4.237   2.539  14.187 -0.5548  1.4038 -1.0638
   37DOPE  H18Z 4773   4.198   2.416  14.058  0.1645  0.0317 -0.7614
   38DOPE     N 4774   6.013   5.904  11.917  0.3809 -0.7206  0.0923
   38DOPE   HN1 4775   5.983   5.887  12.015  1.8374 -0.6232  0.5846
   38DOPE   HN2 4776   5.956   5.837  11.861 -1.0001  0.5992 -0.1576
   38DOPE   HN3 4777   6.114   5.880  11.914  0.5795  0.1534 -0.5769
   38DOPE   C12 4778   5.981   6.048  11.888 -0.5896 -0.0996  0.1772
   38DOPE  H12A 4779   6.053   6.086  11.813  0.3144 -0.5346  0.8052
   38DOPE  H12B 4780   5.997   6.110  11.979 -0.6028  1.5791 -0.9242
   38DOPE   C11 4781   5.846   6.069  11.821  0.4769  0.1855  0.1897
   38DOPE  H11A 4782   5.830   5.989  11.746  1.1071  1.0016 -0.8400
   38DOPE  H11B 4783   5.862   6.164  11.764 -1.6632  0.4254 -0.0955
   38DOPE     P 4784   5.702   6.222  11.977  0.0900  0.6054  0.0373
   38DOPE   O13 4785   5.661   6.305  11.859  0.4365 -0.7148 -0.9547
   38DOPE   O14 4786   5.810   6.271  12.070  0.0226 -0.3572  0.8250
   38DOPE   O11 4787   5.568   6.206  12.057 -0.7078 -0.5127 -0.1147
   38DOPE   O12 4788   5.734   6.079  11.914  0.0132 -0.2099 -0.0791
   38DOPE    C1 4789   5.563   6.095  12.150  0.0411 -0.2735  0.5813
   38DOPE    HA 4790   5.633   6.114  12.233  0.5953 -0.7655  0.2322
   38DOPE    HB 4791   5.579   5.995  12.104 -1.3676  0.3475 -1.3772
   38DOPE    C2 4792   5.424   6.077  12.224 -0.0451 -0.9225 -0.4459
   38DOPE    HS 4793   5.363   6.009  12.160  1.5156 -2.6075 -0.2389
   38DOPE   O21 4794   5.368   6.204  12.255 -0.3068  0.2486 -0.4716
   38DOPE   C21 4795   5.237   6.209  12.280  0.2491 -0.4372  0.9054
   38DOPE   O22 4796   5.161   6.118  12.276  0.0691  0.6587 -0.2160
   38DOPE   C22 4797   5.183   6.354  12.320 -0.4620  0.8004 -0.9181
   38DOPE   H2R 4798   5.074   6.342  12.341 -0.2688 -1.6135 -1.0246
   38DOPE   H2S 4799   5.197   6.420  12.231  0.6705 -0.2770 -1.5626
   38DOPE    C3 4800   5.442   5.998  12.358 -0.1541 -0.5011 -0.2721
   38DOPE    HX 4801   5.466   5.895  12.324 -1.3902 -0.9663  0.1961
   38DOPE    HY 4802   5.352   6.000  12.424  0.4208  4.1473  0.6717
   38DOPE   O31 4803   5.552   6.046  12.442 -0.5799 -0.2026 -0.3614
   38DOPE   C31 4804   5.600   5.961  12.535 -0.0057  0.9560  0.7608
   38DOPE   O32 4805   5.560   5.847  12.554  0.2896  0.0125  1.1218
   38DOPE   C32 4806   5.704   6.033  12.617  0.2990 -0.3211  0.1366
   38DOPE   H2X 4807   5.720   5.975  12.711  0.1174 -0.7263 -0.0770
   38DOPE   H2Y 4808   5.798   6.033  12.559  0.4912 -2.0272  0.4025
   38DOPE   C23 4809   5.249   6.427  12.440 -0.1433  0.4267 -0.2687
   38DOPE   H3R 4810   5.201   6.527  12.431 -1.0196 -0.1920 -3.9200
   38DOPE   H3S 4811   5.355   6.443  12.413 -0.3224 -1.8970 -2.7892
   38DOPE   C24 4812   5.235   6.355  12.577 -0.4318 -0.1953  0.6447
   38DOPE   H4R 4813   5.131   6.319  12.588 -0.0933 -0.6246  2.7229
   38DOPE   H4S 4814   5.254   6.432  12.655  1.5477 -3.1458  3.2948
   38DOPE   C25 4815   5.329   6.236  12.605 -0.5832 -0.8107 -0.0030
   38DOPE   H5R 4816   5.434   6.273  12.598 -1.5200  2.0722 -0.2998
   38DOPE   H5S 4817   5.304   6.166  12.522 -0.7169  0.2609 -0.8986
   38DOPE   C26 4818   5.300   6.155  12.735 -0.4483 -0.1681 -0.0136
   38DOPE   H6R 4819   5.385   6.085  12.742 -0.2937 -0.1341 -1.3264
   38DOPE   H6S 4820   5.224   6.074  12.728  0.8969 -1.4855  0.2594
   38DOPE   C27 4821   5.289   6.245  12.852  0.0731  0.1657  0.1864
   38DOPE   H7R 4822   5.201   6.313  12.842  0.2317  0.4677  0.7859
   38DOPE   H7S 4823   5.382   6.305  12.849  0.0130  0.2822  0.5459
   38DOPE   C28 4824   5.302   6.169  12.981  0.1811  0.2783 -0.0856
   38DOPE   H8R 4825   5.333   6.242  13.059 -1.3396  0.3643  0.4833
   38DOPE   H8S 4826   5.378   6.088  12.976 -0.0322 -0.1635  2.5058
   38DOPE   C29 4827   5.170   6.112  13.028 -0.1979  0.6703 -0.5839
   38DOPE   H9R 4828   5.104   6.059  12.958  1.6827 -2.1179 -0.3918
   38DOPE  C210 4829   5.127   6.105  13.155  0.3017 -0.4151  0.2674
   38DOPE  H10R 4830   5.036   6.050  13.181 -0.6004  0.3331 -1.1884
   38DOPE  C211 4831   5.191   6.161  13.275  0.0522 -0.4753  0.4069
   38DOPE  H11R 4832   5.107   6.187  13.343  0.2305 -0.6711  0.7029
   38DOPE  H11S 4833   5.240   6.258  13.252 -0.6716 -0.4122 -1.0337
   38DOPE  C212 4834   5.280   6.051  13.347 -0.4064  0.1000  0.1190
   38DOPE  H12R 4835   5.330   6.108  13.428 -1.3476  0.7070  0.2828
   38DOPE  H12S 4836   5.352   5.999  13.279  0.6760 -0.0874  1.3613
   38DOPE  C213 4837   5.188   5.940  13.410  0.4706 -0.1973 -0.1831
   38DOPE  H13R 4838   5.115   5.900  13.336  1.1627  2.7913 -2.6884
   38DOPE  H13S 4839   5.133   5.986  13.494 -0.0434 -0.3702 -0.4185
   38DOPE  C214 4840   5.258   5.825  13.486  0.5063 -0.0146 -0.0470
   38DOPE  H14R 4841   5.288   5.749  13.410 -2.1265 -1.3217  0.1220
   38DOPE  H14S 4842   5.187   5.779  13.558 -0.1344  0.1993 -0.5436
   38DOPE  C215 4843   5.387   5.873  13.556 -0.1259  0.0125  0.6168
   38DOPE  H15R 4844   5.363   5.971  13.603 -1.7655  1.3588 -2.7162
   38DOPE  H15S 4845   5.463   5.897  13.479 -0.5587 -1.4606 -0.3042
   38DOPE  C216 4846   5.439   5.775  13.662 -0.3086  0.0364 -0.2662
   38DOPE  H16R 4847   5.492   5.692  13.611 -0.6831  0.5241 -1.4744
   38DOPE  H16S 4848   5.362   5.727  13.726 -0.9513 -0.3796 -1.3242
   38DOPE  C217 4849   5.540   5.828  13.762 -0.0153  0.1603  0.5293
   38DOPE  H17R 4850   5.567   5.752  13.839 -2.3606 -0.3729  0.9165
   38DOPE  H17S 4851   5.482   5.891  13.833 -0.0681  0.1896  0.4596
   38DOPE  C218 4852   5.670   5.888  13.696  0.1383 -0.3913  0.0682
   38DOPE  H18R 4853   5.730   5.812  13.641  0.3938 -0.8300  0.9341
   38DOPE  H18S 4854   5.736   5.934  13.772 -1.0042  2.0593 -0.3339
   38DOPE  H18T 4855   5.641   5.976  13.636  0.2225 -0.1170  0.4246
   38DOPE   C33 4856   5.668   6.179  12.656 -0.6887 -0.0167  0.4567
   38DOPE   H3X 4857   5.579   6.161  12.721  1.2135 -0.6244  3.0763
   38DOPE   H3Y 4858   5.651   6.239  12.565 -0.6820 -1.7792 -0.7593
   38DOPE   C34 4859   5.778   6.254  12.735  0.1591 -0.1410  0.5388
   38DOPE   H4X 4860   5.865   6.276  12.669 -2.7313  0.8266 -3.3164
   38DOPE   H4Y 4861   5.737   6.356  12.752 -1.1197 -0.1148 -2.1153
   38DOPE   C35 4862   5.822   6.184  12.870  0.5416 -0.4818  0.3241
   38DOPE   H5X 4863   5.900   6.252  12.911  0.7514 -0.5426  0.0294
   38DOPE   H5Y 4864   5.854   6.082  12.839  2.4435  0.3767 -0.7124
   38DOPE   C36 4865   5.701   6.178  12.975  0.1685 -0.2956  0.2997
   38DOPE   H6X 4866   5.620   6.115  12.932  0.9843 -1.8916  1.0167
   38DOPE   H6Y 4867   5.660   6.277  13.003  1.8727  0.6640 -0.4006
   38DOPE   C37 4868   5.751   6.119  13.104  0.2230  0.4183 -0.2844
   38DOPE   H7X 4869   5.787   6.014  13.103 -1.3527 -0.1539 -0.2616
   38DOPE   H7Y 4870   5.840   6.177  13.137  0.5804  0.6249 -1.5893
   38DOPE   C38 4871   5.649   6.122  13.226  0.6359  0.1085  0.1832
   38DOPE   H8X 4872   5.692   6.046  13.294  1.5483  0.0412 -0.4520
   38DOPE   H8Y 4873   5.551   6.081  13.195 -1.8810  5.4863 -0.0908
   38DOPE   C39 4874   5.638   6.257  13.290  0.6778 -0.1751 -0.0196
   38DOPE   H9X 4875   5.580   6.332  13.236 -1.9862 -2.0819  0.0289
   38DOPE  C310 4876   5.695   6.296  13.409 -0.0995 -0.2997 -0.1092
   38DOPE  H10X 4877   5.692   6.396  13.454  2.6977 -1.4530  3.0355
   38DOPE  C311 4878   5.778   6.207  13.496  0.6044 -0.1265 -0.7991
   38DOPE  H11X 4879   5.731   6.204  13.597 -0.7855 -1.7262 -1.4464
   38DOPE  H11Y 4880   5.774   6.099  13.468  0.0247 -0.2474 -0.2788
   38DOPE  C312 4881   5.922   6.243  13.533 -0.0358  0.3742 -0.0559
   38DOPE  H12X 4882   5.926   6.350  13.564 -0.2759  0.4510 -0.2876
   38DOPE  H12Y 4883   5.987   6.225  13.445 -0.8218 -0.9557 -0.3831
   38DOPE  C313 4884   5.983   6.157  13.646 -0.0559  0.4076 -0.0031
   38DOPE  H13X 4885   5.947   6.053  13.660  1.2049 -0.4206 -2.3563
   38DOPE  H13Y 4886   6.084   6.135  13.607 -0.5619 -2.5303  0.0944
   38DOPE  C314 4887   6.002   6.226  13.776  0.2700 -0.3450  0.0151
   38DOPE  H14X 4888   5.906   6.269  13.811 -0.0499 -0.3651 -0.8123
   38DOPE  H14Y 4889   6.056   6.320  13.749 -1.1306  0.0642 -1.5790
   38DOPE  C315 4890   6.083   6.157  13.884 -0.2905 -0.2570  0.7861
   38DOPE  H15X 4891   6.027   6.073  13.931 -0.6380  0.0748  0.9688
   38DOPE  H15Y 4892   6.101   6.237  13.959  1.3638 -0.1075  0.2686
   38DOPE  C316 4893   6.221   6.096  13.842  0.1356 -0.3465  0.9176
   38DOPE  H16X 4894   6.212   6.020  13.761  1.2319 -0.3416  0.7686
   38DOPE  H16Y 4895   6.271   6.049  13.929 -1.2092  1.0930  2.5341
   38DOPE  C317 4896   6.329   6.191  13.781 -0.2820 -0.0357  0.2270
   38DOPE  H17X 4897   6.415   6.137  13.737 -0.6187 -0.1413 -0.3131
   38DOPE  H17Y 4898   6.280   6.252  13.701  2.1378  1.0764 -0.4875
   38DOPE  C318 4899   6.388   6.281  13.884 -0.5367  0.2829 -1.1680
   38DOPE  H18X 4900   6.458   6.348  13.829  0.9729 -1.1272 -1.0283
   38DOPE  H18Y 4901   6.306   6.340  13.931 -0.9611 -1.0791 -0.1287
   38DOPE  H18Z 4902   6.438   6.232  13.970  1.8090  0.2533 -2.4570
   39DOPE     N 4903   3.377   3.385  12.722  0.4014  0.1397 -0.1002
   39DOPE   HN1 4904   3.387   3.444  12.637 -0.1887  0.0115 -0.2645
   39DOPE   HN2 4905   3.382   3.285  12.693  0.0308 -0.2112  1.0008
   39DOPE   HN3 4906   3.285   3.405  12.766  0.5924 -0.0443  0.3961
   39DOPE   C12 4907   3.483   3.398  12.824  0.0234  0.2523 -0.4003
   39DOPE  H12A 4908   3.482   3.497  12.874 -0.5269 -0.4967  1.1083
   39DOPE  H12B 4909   3.584   3.381  12.781 -0.2040 -1.8268 -0.2228
   39DOPE   C11 4910   3.456   3.296  12.933  0.3522 -0.5005  0.8943
   39DOPE  H11A 4911   3.534   3.307  13.011  2.0992 -0.0914 -0.8173
   39DOPE  H11B 4912   3.454   3.191  12.894 -0.1179 -0.3638  0.5429
   39DOPE     P 4913   3.223   3.212  13.040 -0.0567  0.1541 -0.0368
   39DOPE   O13 4914   3.230   3.105  12.937 -0.1212 -0.0510  0.1441
   39DOPE   O14 4915   3.095   3.282  13.061  0.0234  0.4240 -0.4215
   39DOPE   O11 4916   3.294   3.172  13.174  0.0075 -0.1594 -0.1068
   39DOPE   O12 4917   3.328   3.325  12.995 -0.3868 -0.3526  0.3190
   39DOPE    C1 4918   3.342   3.041  13.203 -0.1868  0.3378 -0.0256
   39DOPE    HA 4919   3.399   2.999  13.118 -3.0151 -0.3663 -1.7046
   39DOPE    HB 4920   3.258   2.973  13.230 -0.9677  0.7254 -1.3879
   39DOPE    C2 4921   3.448   3.042  13.324  0.1312  0.4483 -0.3407
   39DOPE    HS 4922   3.498   2.942  13.323  1.3853  1.0483  0.0566
   39DOPE   O21 4923   3.388   3.073  13.450 -0.2727  0.4372  0.3256
   39DOPE   C21 4924   3.446   3.017  13.557  0.3622  0.3739 -0.6874
   39DOPE   O22 4925   3.542   2.944  13.550 -0.9621  0.3583  0.4215
   39DOPE   C22 4926   3.364   3.057  13.671 -0.2825  0.5817 -0.3873
   39DOPE   H2R 4927   3.324   2.965  13.719  0.3311  0.7723  0.5359
   39DOPE   H2S 4928   3.280   3.121  13.636 -0.2299  1.0881  0.3698
   39DOPE    C3 4929   3.559   3.151  13.293  0.0719 -0.0535 -0.4312
   39DOPE    HX 4930   3.511   3.251  13.289  0.2783  0.0201 -1.4395
   39DOPE    HY 4931   3.591   3.131  13.188  0.5083 -0.2746 -0.2606
   39DOPE   O31 4932   3.664   3.166  13.392 -0.3778 -0.3658 -0.1938
   39DOPE   C31 4933   3.759   3.080  13.384 -0.2904  0.1618  0.1988
   39DOPE   O32 4934   3.779   3.007  13.291 -0.0953 -0.2332 -0.5374
   39DOPE   C32 4935   3.848   3.088  13.514  0.3756 -0.5412  0.7866
   39DOPE   H2X 4936   3.808   3.017  13.589 -0.9787 -0.7077 -0.0765
   39DOPE   H2Y 4937   3.949   3.057  13.480 -0.1268 -0.2257 -1.0918
   39DOPE   C23 4938   3.428   3.152  13.780  0.2296 -0.0672  0.5180
   39DOPE   H3R 4939   3.338   3.181  13.837 -2.0610 -2.3478 -1.7084
   39DOPE   H3S 4940   3.477   3.242  13.739 -4.1210  2.1717 -0.3102
   39DOPE   C24 4941   3.538   3.088  13.861 -0.2360  0.0410  0.3400
   39DOPE   H4R 4942   3.602   3.035  13.786 -0.7808  2.4372 -1.9698
   39DOPE   H4S 4943   3.507   3.011  13.935 -1.7697  0.1288 -0.1730
   39DOPE   C25 4944   3.622   3.183  13.950  0.4071 -0.5620  0.2589
   39DOPE   H5R 4945   3.690   3.250  13.894  1.1847 -1.7576 -0.2733
   39DOPE   H5S 4946   3.687   3.108  14.000 -1.2736 -2.0639  0.2875
   39DOPE   C26 4947   3.532   3.265  14.036  0.0859 -0.7135 -0.2229
   39DOPE   H6R 4948   3.443   3.209  14.072 -0.7000  0.1378 -0.7878
   39DOPE   H6S 4949   3.483   3.349  13.983  0.5375 -0.8124 -0.8080
   39DOPE   C27 4950   3.604   3.330  14.151 -0.6372  0.2793 -0.0227
   39DOPE   H7R 4951   3.658   3.254  14.211  0.0290 -0.1838 -1.1696
   39DOPE   H7S 4952   3.530   3.381  14.216  0.1201  0.8495  0.4032
   39DOPE   C28 4953   3.713   3.442  14.121  0.3370  0.8086 -0.7022
   39DOPE   H8R 4954   3.654   3.499  14.046 -0.5624 -1.4021 -1.7525
   39DOPE   H8S 4955   3.784   3.394  14.050 -0.4313  1.1826 -1.7497
   39DOPE   C29 4956   3.764   3.509  14.243  0.2081  0.4088  0.3053
   39DOPE   H9R 4957   3.705   3.593  14.283 -1.8391 -0.6990 -0.1871
   39DOPE  C210 4958   3.870   3.474  14.313  0.2948  0.7299  0.2200
   39DOPE  H10R 4959   3.901   3.536  14.398 -1.1045 -1.5124  2.4911
   39DOPE  C211 4960   3.964   3.364  14.274 -0.1426  0.2287 -0.0137
   39DOPE  H11R 4961   4.058   3.407  14.234 -0.2804 -0.9936 -1.7430
   39DOPE  H11S 4962   3.923   3.312  14.185  1.0833  0.3576 -0.6768
   39DOPE  C212 4963   3.983   3.263  14.387  0.2538  0.7014 -0.8824
   39DOPE  H12R 4964   4.043   3.178  14.347 -0.2427 -0.7386  1.2239
   39DOPE  H12S 4965   3.880   3.229  14.410 -0.2132  1.1806 -2.1782
   39DOPE  C213 4966   4.039   3.315  14.518  0.4368 -0.1198  0.2694
   39DOPE  H13R 4967   3.955   3.359  14.576 -0.9434 -1.3122 -0.7689
   39DOPE  H13S 4968   4.117   3.394  14.509 -1.0540  1.2806 -1.1125
   39DOPE  C214 4969   4.122   3.206  14.598 -0.8060  0.0760  0.2698
   39DOPE  H14R 4970   4.195   3.246  14.672  0.1583 -2.6425  0.8905
   39DOPE  H14S 4971   4.184   3.163  14.517 -2.4331 -2.4729  0.2854
   39DOPE  C215 4972   4.030   3.105  14.676 -0.3857  0.2888  0.1731
   39DOPE  H15R 4973   3.981   3.042  14.599 -0.8955  0.8726  0.0126
   39DOPE  H15S 4974   3.951   3.162  14.730 -0.5291 -0.3431  0.6380
   39DOPE  C216 4975   4.102   3.016  14.778 -0.1330 -0.9359 -0.0580
   39DOPE  H16R 4976   4.036   2.965  14.851  0.1361 -1.0522  0.1069
   39DOPE  H16S 4977   4.154   3.083  14.850  0.3456 -0.7854 -0.5322
   39DOPE  C217 4978   4.215   2.933  14.721 -0.1073 -0.8254 -0.3783
   39DOPE  H17R 4979   4.289   2.927  14.803 -0.2477 -0.0789 -0.1900
   39DOPE  H17S 4980   4.280   2.971  14.639  1.6775 -1.5641  0.6304
   39DOPE  C218 4981   4.160   2.799  14.687  0.4776 -0.2450 -0.3098
   39DOPE  H18R 4982   4.070   2.806  14.622 -0.0891 -0.5715  0.4146
   39DOPE  H18S 4983   4.117   2.747  14.776  0.9051 -1.5368 -0.8375
   39DOPE  H18T 4984   4.243   2.733  14.655 -0.7908 -2.4661  0.6899
   39DOPE   C33 4985   3.848   3.224  13.582 -0.1987 -0.0870  0.2523
   39DOPE   H3X 4986   3.749   3.251  13.624  1.0336  1.3315  2.4634
   39DOPE   H3Y 4987   3.870   3.306  13.511 -0.4209 -1.3730 -1.3539
   39DOPE   C34 4988   3.942   3.238  13.696 -0.4987  0.3281 -0.1532
   39DOPE   H4X 4989   3.919   3.151  13.762 -1.4497 -0.6278 -1.6791
   39DOPE   H4Y 4990   4.045   3.216  13.660 -1.4174 -0.8039 -2.3472
   39DOPE   C35 4991   3.923   3.370  13.779 -0.0625  0.5101  0.0644
   39DOPE   H5X 4992   3.828   3.379  13.836  0.5959  0.0024  1.2709
   39DOPE   H5Y 4993   3.917   3.464  13.720  0.5910  2.5381  3.0329
   39DOPE   C36 4994   4.038   3.400  13.875  0.2156  0.2758 -0.0639
   39DOPE   H6X 4995   4.056   3.303  13.926 -1.9556  0.1893  0.6101
   39DOPE   H6Y 4996   4.000   3.480  13.942 -0.7482  0.0657 -0.3433
   39DOPE   C37 4997   4.168   3.461  13.813  1.0977  0.1680  0.3080
   39DOPE   H7X 4998   4.210   3.376  13.755  0.8526  0.4023 -0.2186
   39DOPE   H7Y 4999   4.135   3.537  13.739  2.0350  0.7542  0.4815
   39DOPE   C38 5000   4.261   3.510  13.927 -0.8518 -0.0299 -0.0664
   39DOPE   H8X 5001   4.359   3.519  13.876  0.2682 -1.3811  1.7221
   39DOPE   H8Y 5002   4.279   3.426  13.998  0.4336  1.9950  2.1578
   39DOPE   C39 5003   4.234   3.631  14.007 -0.4825 -0.0624  0.0408
   39DOPE   H9X 5004   4.226   3.720  13.943 -0.7401 -0.6213 -0.7161
   39DOPE  C310 5005   4.256   3.652  14.142 -0.0042 -0.2406  0.5493
   39DOPE  H10X 5006   4.249   3.758  14.171  0.1727  0.2253 -1.0434
   39DOPE  C311 5007   4.297   3.555  14.246  0.4073 -0.6234 -0.0642
   39DOPE  H11X 5008   4.228   3.542  14.332  2.3519  0.7302  1.8076
   39DOPE  H11Y 5009   4.299   3.448  14.214 -0.1692 -0.3562 -1.0200
   39DOPE  C312 5010   4.439   3.602  14.300 -0.0090  0.2208  0.1447
   39DOPE  H12X 5011   4.427   3.708  14.333  1.4270  0.9998 -1.6340
   39DOPE  H12Y 5012   4.511   3.596  14.216  1.4807  0.5713  1.3538
   39DOPE  C313 5013   4.475   3.505  14.412  0.0333  0.3824  0.1661
   39DOPE  H13X 5014   4.397   3.510  14.491  0.1669  0.5407  0.2895
   39DOPE  H13Y 5015   4.464   3.398  14.386 -1.8516  0.3064  1.1550
   39DOPE  C314 5016   4.608   3.535  14.490 -1.0663  0.1576 -0.1373
   39DOPE  H14X 5017   4.619   3.455  14.566 -2.2156 -0.4648 -0.6010
   39DOPE  H14Y 5018   4.588   3.620  14.560  0.3459 -0.9712  1.7226
   39DOPE  C315 5019   4.732   3.552  14.405 -0.1845 -0.5525  0.0497
   39DOPE  H15X 5020   4.731   3.639  14.336  0.8243 -1.2737 -0.9096
   39DOPE  H15Y 5021   4.758   3.460  14.348 -1.6572 -0.7689 -0.3121
   39DOPE  C316 5022   4.863   3.578  14.491  0.0737 -0.7966  0.3794
   39DOPE  H16X 5023   4.954   3.593  14.429  1.2409 -0.3414  2.1279
   39DOPE  H16Y 5024   4.884   3.491  14.557  0.3612 -1.1378 -0.1472
   39DOPE  C317 5025   4.849   3.707  14.583  0.5519 -0.4155 -0.4236
   39DOPE  H17X 5026   4.824   3.795  14.520 -0.3515  0.2452  0.8306
   39DOPE  H17Y 5027   4.767   3.693  14.656  1.3597  0.9274  0.8116
   39DOPE  C318 5028   4.972   3.720  14.663  0.3304 -0.1434 -0.5904
   39DOPE  H18X 5029   5.060   3.747  14.601  1.4534  0.1992  1.0951
   39DOPE  H18Y 5030   4.953   3.799  14.738 -1.1993  1.2196 -2.3130
   39DOPE  H18Z 5031   4.983   3.624  14.718  0.1398 -1.6126 -2.9444
   40DOPE     N 5032   3.664   5.313  12.305 -0.2191  0.7175  0.3480
   40DOPE   HN1 5033   3.767   5.321  12.320 -0.0142 -1.1607  0.2100
   40DOPE   HN2 5034   3.661   5.225  12.249 -0.8701  0.3588  0.9377
   40DOPE   HN3 5035   3.630   5.396  12.252  0.6634  1.2889  0.6388
   40DOPE   C12 5036   3.586   5.313  12.429 -0.0030  0.0869  0.2874
   40DOPE  H12A 5037   3.478   5.315  12.401  0.0745  1.5676  0.0333
   40DOPE  H12B 5038   3.614   5.404  12.485  0.7387  0.2522 -0.3401
   40DOPE   C11 5039   3.624   5.200  12.516  0.1989  0.0115  0.0714
   40DOPE  H11A 5040   3.556   5.193  12.603  0.2520  0.6648  0.1743
   40DOPE  H11B 5041   3.727   5.224  12.550  1.1266 -0.0087 -2.5061
   40DOPE     P 5042   3.739   4.984  12.409  0.0861 -0.1753  0.0502
   40DOPE   O13 5043   3.831   5.066  12.333  0.9251  0.9396  0.3213
   40DOPE   O14 5044   3.684   4.857  12.349  0.2674 -0.1390  0.3062
   40DOPE   O11 5045   3.804   4.949  12.548 -0.5752 -0.5903 -0.3278
   40DOPE   O12 5046   3.614   5.075  12.446  0.2479 -0.0220 -0.1539
   40DOPE    C1 5047   3.722   4.899  12.653  0.1378  0.2488 -0.0854
   40DOPE    HA 5048   3.707   4.789  12.648  1.5987  0.0033  0.5427
   40DOPE    HB 5049   3.619   4.940  12.648 -0.2783 -0.3350  2.5752
   40DOPE    C2 5050   3.787   4.936  12.792  0.0467  0.0554  0.1318
   40DOPE    HS 5051   3.896   4.919  12.782 -0.1252 -0.1097 -2.1871
   40DOPE   O21 5052   3.725   4.852  12.891 -0.3912  0.4785  0.1373
   40DOPE   C21 5053   3.787   4.858  13.006 -0.0830 -0.3031 -0.1572
   40DOPE   O22 5054   3.901   4.896  13.025 -0.0158 -0.0487 -0.5312
   40DOPE   C22 5055   3.696   4.795  13.111 -0.4066 -0.5544  0.4384
   40DOPE   H2R 5056   3.679   4.688  13.086  0.5175 -0.8272  0.9366
   40DOPE   H2S 5057   3.600   4.851  13.101 -0.0746  0.7326  3.3129
   40DOPE    C3 5058   3.762   5.084  12.826 -0.1155 -0.7967 -0.3735
   40DOPE    HX 5059   3.820   5.146  12.753 -1.2676  1.6351  0.6739
   40DOPE    HY 5060   3.813   5.108  12.921 -0.7719  2.4370 -0.7178
   40DOPE   O31 5061   3.625   5.119  12.803 -0.0074  0.4908  0.3992
   40DOPE   C31 5062   3.564   5.162  12.911 -0.5913  0.7858  0.4300
   40DOPE   O32 5063   3.611   5.169  13.024  0.5775 -0.3490  0.0456
   40DOPE   C32 5064   3.415   5.198  12.872 -0.1958 -0.6139  0.1238
   40DOPE   H2X 5065   3.417   5.282  12.799 -0.9075 -2.1854 -1.8138
   40DOPE   H2Y 5066   3.376   5.104  12.827  0.7793 -1.1387  0.3446
   40DOPE   C23 5067   3.737   4.808  13.257 -0.6210  0.2326 -0.1117
   40DOPE   H3R 5068   3.760   4.913  13.282 -0.0689  0.1060 -0.0774
   40DOPE   H3S 5069   3.829   4.752  13.283 -1.3582  0.0829  2.4075
   40DOPE   C24 5070   3.616   4.754  13.333  0.0652 -0.9465 -0.0283
   40DOPE   H4R 5071   3.610   4.643  13.322 -1.1718 -0.9553  0.6006
   40DOPE   H4S 5072   3.526   4.807  13.295  0.8262  0.8647  0.6112
   40DOPE   C25 5073   3.616   4.788  13.483 -0.1144  0.5536  0.2983
   40DOPE   H5R 5074   3.610   4.899  13.486 -0.3649  0.5471  0.1037
   40DOPE   H5S 5075   3.708   4.741  13.525  1.0933  1.9719 -0.6660
   40DOPE   C26 5076   3.502   4.721  13.560 -0.4501  0.4070 -0.2515
   40DOPE   H6R 5077   3.506   4.612  13.542 -2.4691  0.1656  0.4678
   40DOPE   H6S 5078   3.401   4.759  13.532 -1.5475 -1.4443  1.0001
   40DOPE   C27 5079   3.526   4.738  13.709  0.2919 -0.6299 -0.8914
   40DOPE   H7R 5080   3.518   4.842  13.749  0.5251 -1.2462  0.8260
   40DOPE   H7S 5081   3.624   4.694  13.737  0.1559 -0.2117  0.2914
   40DOPE   C28 5082   3.415   4.660  13.791 -0.6281  0.0195 -1.0191
   40DOPE   H8R 5083   3.463   4.640  13.889  0.5652 -0.0050 -1.5875
   40DOPE   H8S 5084   3.417   4.566  13.733 -1.2677 -0.4329 -0.3199
   40DOPE   C29 5085   3.277   4.705  13.798  0.3703  0.4126 -0.0039
   40DOPE   H9R 5086   3.234   4.744  13.705  2.3184  0.2116 -1.0447
   40DOPE  C210 5087   3.191   4.720  13.905 -0.7303 -0.2729  0.1522
   40DOPE  H10R 5088   3.084   4.737  13.889 -0.8194  0.4546  1.3923
   40DOPE  C211 5089   3.232   4.713  14.054  0.3841 -0.0515  0.2367
   40DOPE  H11R 5090   3.192   4.810  14.091 -0.8280 -0.6078  0.4413
   40DOPE  H11S 5091   3.343   4.718  14.058  0.4783 -1.7884  0.5040
   40DOPE  C212 5092   3.171   4.598  14.123 -0.4102  0.9314 -0.2191
   40DOPE  H12R 5093   3.218   4.588  14.224  1.7073  1.5579 -1.0797
   40DOPE  H12S 5094   3.199   4.508  14.064  1.0259  1.0123  0.2848
   40DOPE  C213 5095   3.016   4.607  14.149 -0.4114  0.2204 -0.1997
   40DOPE  H13R 5096   2.986   4.502  14.168 -2.1772  0.6127 -0.6017
   40DOPE  H13S 5097   2.971   4.637  14.052  1.3676  1.0692 -0.8101
   40DOPE  C214 5098   2.961   4.697  14.259 -0.1254 -0.5203  0.5606
   40DOPE  H14R 5099   2.996   4.803  14.261  0.1434 -0.6120  1.2759
   40DOPE  H14S 5100   2.996   4.651  14.354  0.2700 -0.0348  0.6581
   40DOPE  C215 5101   2.808   4.698  14.280 -1.0553 -0.4810 -0.6282
   40DOPE  H15R 5102   2.804   4.768  14.366  0.6206 -1.3836  0.2264
   40DOPE  H15S 5103   2.777   4.598  14.318  0.0205 -0.7108 -0.3183
   40DOPE  C216 5104   2.729   4.731  14.154  0.1827  0.3055 -0.1457
   40DOPE  H16R 5105   2.624   4.751  14.185  0.1484 -0.1147  0.0125
   40DOPE  H16S 5106   2.753   4.653  14.078  2.8948 -1.0427  1.9487
   40DOPE  C217 5107   2.766   4.861  14.077 -0.6333  0.0138  0.4677
   40DOPE  H17R 5108   2.848   4.838  14.006 -0.1046  3.1225 -0.1043
   40DOPE  H17S 5109   2.799   4.937  14.151  0.6859 -0.8162  0.7536
   40DOPE  C218 5110   2.644   4.939  14.012 -0.3686  0.0176 -0.5747
   40DOPE  H18R 5111   2.616   4.875  13.925 -0.1757 -2.4837  1.1009
   40DOPE  H18S 5112   2.683   5.034  13.969  1.0128 -1.3748 -2.5681
   40DOPE  H18T 5113   2.566   4.946  14.091 -0.3714 -2.3564 -0.3082
   40DOPE   C33 5114   3.328   5.243  12.989  0.3356  0.1836 -0.6538
   40DOPE   H3X 5115   3.369   5.338  13.031 -0.0807 -0.7407  2.0307
   40DOPE   H3Y 5116   3.326   5.166  13.069 -1.6128 -0.1097 -0.9510
   40DOPE   C34 5117   3.183   5.266  12.949  0.2156 -0.7350 -0.1162
   40DOPE   H4X 5118   3.187   5.343  12.869  1.9416  0.3926  0.9767
   40DOPE   H4Y 5119   3.143   5.168  12.915  1.2281 -1.1646 -0.1361
   40DOPE   C35 5120   3.100   5.319  13.060 -0.9557  0.4831  0.5323
   40DOPE   H5X 5121   3.085   5.243  13.140 -0.2165  1.2268  1.3921
   40DOPE   H5Y 5122   3.001   5.327  13.011  0.2812  0.4271 -2.1893
   40DOPE   C36 5123   3.146   5.454  13.110 -0.4543 -0.1038  0.1711
   40DOPE   H6X 5124   3.175   5.512  13.019 -2.1854  1.8524  0.7792
   40DOPE   H6Y 5125   3.230   5.438  13.181 -0.2355  0.6996  0.1138
   40DOPE   C37 5126   3.039   5.537  13.182 -0.1398  0.5047  0.9547
   40DOPE   H7X 5127   3.077   5.634  13.220 -0.5380  0.8616  0.4514
   40DOPE   H7Y 5128   2.965   5.571  13.107  0.8800  0.3094 -0.1654
   40DOPE   C38 5129   2.976   5.462  13.298  0.1585 -0.9117  0.0842
   40DOPE   H8X 5130   2.935   5.365  13.261  0.8036 -1.2144  0.1496
   40DOPE   H8Y 5131   2.885   5.514  13.336  1.3933 -0.5618  2.7933
   40DOPE   C39 5132   3.060   5.434  13.423 -0.1411  0.5335 -0.5271
   40DOPE   H9X 5133   3.104   5.334  13.421 -0.7657  0.2521 -1.3162
   40DOPE  C310 5134   3.071   5.510  13.531 -0.4603 -0.1050 -0.5217
   40DOPE  H10X 5135   3.138   5.481  13.614 -0.6276 -1.3987 -0.8269
   40DOPE  C311 5136   3.015   5.644  13.558 -0.3976 -0.8165 -0.5557
   40DOPE  H11X 5137   3.093   5.721  13.538 -3.1757  2.8188  1.3263
   40DOPE  H11Y 5138   2.927   5.671  13.496 -0.5650  0.4083  0.1690
   40DOPE  C312 5139   2.950   5.656  13.697 -0.1960 -0.2620 -0.3954
   40DOPE  H12X 5140   2.878   5.575  13.720 -0.7945 -0.0213 -1.3816
   40DOPE  H12Y 5141   2.897   5.754  13.700  0.6812  0.2186  1.9882
   40DOPE  C313 5142   3.036   5.674  13.818 -0.6530  0.1257 -0.1590
   40DOPE  H13X 5143   3.076   5.573  13.840 -0.3538 -0.1311 -1.7610
   40DOPE  H13Y 5144   3.130   5.731  13.802  0.3432 -0.3214  3.2337
   40DOPE  C314 5145   2.954   5.731  13.939 -0.5899  0.2842  0.2136
   40DOPE  H14X 5146   2.875   5.656  13.960 -2.3099  1.3966 -1.8012
   40DOPE  H14Y 5147   2.898   5.819  13.900 -4.0236 -0.9145  2.0321
   40DOPE  C315 5148   3.048   5.773  14.052  0.4847 -0.0185 -0.4462
   40DOPE  H15X 5149   3.154   5.785  14.021  0.4646  0.3219 -0.3861
   40DOPE  H15Y 5150   3.046   5.699  14.134  0.7537  1.8784  1.3455
   40DOPE  C316 5151   3.004   5.906  14.112  0.2259  0.3241  0.3558
   40DOPE  H16X 5152   2.993   5.983  14.033 -0.3138  1.3109  1.3604
   40DOPE  H16Y 5153   3.082   5.933  14.187  0.6656 -1.0371  0.4124
   40DOPE  C317 5154   2.871   5.896  14.198 -0.2029 -0.0186 -0.3848
   40DOPE  H17X 5155   2.798   5.849  14.130  1.1224 -1.7814 -0.6426
   40DOPE  H17Y 5156   2.875   5.831  14.288 -3.6492 -0.0669 -0.1438
   40DOPE  C318 5157   2.813   6.023  14.242  0.0452  0.2032  0.0997
   40DOPE  H18X 5158   2.793   6.094  14.159 -0.5144 -0.3436 -0.2430
   40DOPE  H18Y 5159   2.725   6.002  14.307 -0.4625 -1.2375 -0.9977
   40DOPE  H18Z 5160   2.890   6.062  14.312 -1.5572 -0.6002  2.4507
   41DOPE     N 5161   1.906   4.963  12.150  0.0086 -0.6647  0.1390
   41DOPE   HN1 5162   2.010   4.968  12.147  0.2423 -3.8457 -0.0099
   41DOPE   HN2 5163   1.873   4.899  12.075 -4.4112  1.6491 -0.2335
   41DOPE   HN3 5164   1.867   5.059  12.137  1.9275 -0.0296 -1.4495
   41DOPE   C12 5165   1.855   4.893  12.271  0.1419 -0.4879 -0.3150
   41DOPE  H12A 5166   1.745   4.895  12.262  0.1501  2.0881 -0.6498
   41DOPE  H12B 5167   1.894   4.946  12.362  0.6258  0.8154 -1.2472
   41DOPE   C11 5168   1.929   4.757  12.269  0.3414 -0.2619 -0.4094
   41DOPE  H11A 5169   1.913   4.699  12.363  0.6834  0.3484  0.0297
   41DOPE  H11B 5170   2.039   4.764  12.259  0.5641  0.2902  1.9168
   41DOPE     P 5171   1.741   4.597  12.172 -0.4507  0.4622  0.3625
   41DOPE   O13 5172   1.747   4.480  12.087  0.3190  0.4368 -0.2857
   41DOPE   O14 5173   1.622   4.685  12.156 -0.5168  0.0047  0.0561
   41DOPE   O11 5174   1.740   4.543  12.317 -0.2056  0.1382 -0.1658
   41DOPE   O12 5175   1.872   4.685  12.155 -0.3157  0.1723  0.0126
   41DOPE    C1 5176   1.804   4.427  12.370 -0.0574 -0.1688 -0.2964
   41DOPE    HA 5177   1.906   4.402  12.333 -0.4471 -1.2539 -0.6638
   41DOPE    HB 5178   1.736   4.342  12.350 -2.2635  1.0017  1.7356
   41DOPE    C2 5179   1.811   4.443  12.523  0.1319 -0.5686 -0.2235
   41DOPE    HS 5180   1.803   4.338  12.557 -1.2723 -0.7208 -0.9407
   41DOPE   O21 5181   1.695   4.510  12.576 -0.3169 -0.5449 -0.2162
   41DOPE   C21 5182   1.575   4.461  12.555  0.5517  0.6713  0.2756
   41DOPE   O22 5183   1.560   4.341  12.526  0.3054  0.3940 -0.4607
   41DOPE   C22 5184   1.467   4.561  12.591 -0.0033 -0.8909 -0.1032
   41DOPE   H2R 5185   1.472   4.628  12.503  4.3775  0.4729  0.9142
   41DOPE   H2S 5186   1.508   4.642  12.656 -0.3917 -0.4434 -0.4076
   41DOPE    C3 5187   1.937   4.507  12.588 -0.1962  0.2309  0.2042
   41DOPE    HX 5188   1.921   4.531  12.695  0.5387  2.1022 -0.0614
   41DOPE    HY 5189   1.949   4.610  12.550 -0.2867  0.7648  1.5615
   41DOPE   O31 5190   2.053   4.419  12.568 -0.0745  0.0709 -0.7787
   41DOPE   C31 5191   2.150   4.474  12.498 -0.1815  0.3415  0.0843
   41DOPE   O32 5192   2.156   4.591  12.465  0.2824 -0.4304  0.1379
   41DOPE   C32 5193   2.257   4.378  12.458  0.0905 -0.2208 -0.1680
   41DOPE   H2X 5194   2.206   4.290  12.414 -0.1686 -0.7272  1.1081
   41DOPE   H2Y 5195   2.309   4.434  12.377 -0.2051 -2.0391 -1.6754
   41DOPE   C23 5196   1.325   4.507  12.624  0.1553 -0.2812  0.3475
   41DOPE   H3R 5197   1.296   4.448  12.534 -0.9218  0.4807  0.1875
   41DOPE   H3S 5198   1.244   4.583  12.632 -0.8392 -1.0495 -1.7702
   41DOPE   C24 5199   1.332   4.429  12.757  0.3772  0.4939 -0.1603
   41DOPE   H4R 5200   1.416   4.357  12.764 -1.1995 -1.4740 -0.3296
   41DOPE   H4S 5201   1.239   4.368  12.751  0.7810 -0.0417 -1.2576
   41DOPE   C25 5202   1.317   4.528  12.874 -0.2035 -0.1712 -0.3523
   41DOPE   H5R 5203   1.259   4.614  12.834 -0.6416 -0.7240 -0.9360
   41DOPE   H5S 5204   1.416   4.552  12.916 -0.9006  0.5802  0.9274
   41DOPE   C26 5205   1.244   4.478  12.999 -0.1199  0.8978  0.4996
   41DOPE   H6R 5206   1.279   4.376  13.026 -1.3985  0.6311  1.2297
   41DOPE   H6S 5207   1.136   4.463  12.982 -0.0187  0.4720  0.2102
   41DOPE   C27 5208   1.268   4.559  13.122  0.0063 -0.4264  0.5114
   41DOPE   H7R 5209   1.252   4.667  13.101  0.0028 -0.8183 -1.7391
   41DOPE   H7S 5210   1.371   4.547  13.164  0.8048  2.6645 -0.2959
   41DOPE   C28 5211   1.163   4.521  13.237 -0.0964 -0.0077 -0.0890
   41DOPE   H8R 5212   1.059   4.528  13.198 -0.6035  0.0584  1.2245
   41DOPE   H8S 5213   1.171   4.596  13.318 -0.1237 -0.2602  0.1455
   41DOPE   C29 5214   1.182   4.386  13.298  0.0048 -0.5394  0.9907
   41DOPE   H9R 5215   1.260   4.330  13.244  0.4118  0.3928  0.6086
   41DOPE  C210 5216   1.121   4.348  13.412 -0.0868 -0.1739  0.4006
   41DOPE  H10R 5217   1.139   4.246  13.450 -1.5294 -0.9891 -0.9701
   41DOPE  C211 5218   1.024   4.435  13.491  0.7270  0.1527  0.1702
   41DOPE  H11R 5219   0.931   4.459  13.435  0.9214 -1.4313 -0.8752
   41DOPE  H11S 5220   1.075   4.532  13.514 -0.8425  0.7337  1.4186
   41DOPE  C212 5221   1.003   4.379  13.634 -0.1334 -0.9393 -0.2240
   41DOPE  H12R 5222   1.103   4.375  13.682 -0.0384 -0.9042 -0.4214
   41DOPE  H12S 5223   0.969   4.274  13.622  0.4065 -1.1658  0.1732
   41DOPE  C213 5224   0.914   4.468  13.726  0.5321 -0.1510 -0.6037
   41DOPE  H13R 5225   0.811   4.461  13.686  0.2792  1.3501 -0.2422
   41DOPE  H13S 5226   0.935   4.576  13.717 -1.5378  0.2549 -0.9923
   41DOPE  C214 5227   0.932   4.436  13.879  0.3585  0.2962  0.0892
   41DOPE  H14R 5228   1.041   4.435  13.898  0.4324 -1.1179 -0.2238
   41DOPE  H14S 5229   0.906   4.328  13.887  0.4518  0.3029  0.5187
   41DOPE  C215 5230   0.844   4.526  13.963 -0.2801 -0.4746 -0.0872
   41DOPE  H15R 5231   0.741   4.507  13.927 -0.1362 -1.1573 -0.1385
   41DOPE  H15S 5232   0.866   4.634  13.944  0.9824 -0.6401  0.3383
   41DOPE  C216 5233   0.844   4.498  14.115 -0.4386 -0.0470 -0.0366
   41DOPE  H16R 5234   0.838   4.389  14.134 -0.7653  0.3519  2.5910
   41DOPE  H16S 5235   0.757   4.553  14.158  1.0192  1.2751  1.3607
   41DOPE  C217 5236   0.980   4.552  14.182  0.1323 -0.5851  0.8355
   41DOPE  H17R 5237   0.979   4.659  14.149  0.8953 -0.5515  0.8885
   41DOPE  H17S 5238   1.059   4.501  14.123 -1.4269 -2.1589  0.0288
   41DOPE  C218 5239   1.003   4.545  14.330 -0.5226 -0.3435  0.2445
   41DOPE  H18R 5240   1.035   4.442  14.355 -1.8206 -1.4680 -2.3899
   41DOPE  H18S 5241   0.912   4.556  14.393  0.9540  1.9575  2.1413
   41DOPE  H18T 5242   1.089   4.612  14.351 -0.5732  0.8930 -2.9262
   41DOPE   C33 5243   2.361   4.357  12.571  0.2470 -0.5052 -0.3813
   41DOPE   H3X 5244   2.422   4.266  12.553 -0.7163 -1.3332  0.4150
   41DOPE   H3Y 5245   2.314   4.343  12.671  0.1247  3.0118  0.2007
   41DOPE   C34 5246   2.468   4.471  12.572  0.2557  0.4003  0.5068
   41DOPE   H4X 5247   2.562   4.424  12.608  1.0809  1.6301 -0.0034
   41DOPE   H4Y 5248   2.482   4.505  12.468 -2.0706  0.8755  0.3114
   41DOPE   C35 5249   2.452   4.589  12.661 -0.5116  0.5631  0.1214
   41DOPE   H5X 5250   2.372   4.650  12.616 -0.6628  0.7655  0.6590
   41DOPE   H5Y 5251   2.548   4.645  12.658 -0.6750  0.7952 -0.8846
   41DOPE   C36 5252   2.426   4.545  12.807  0.4206 -0.3940  0.4577
   41DOPE   H6X 5253   2.475   4.621  12.871 -2.4657  1.1108  1.0435
   41DOPE   H6Y 5254   2.477   4.450  12.837  2.0602 -0.1610 -1.3422
   41DOPE   C37 5255   2.279   4.543  12.835  1.0463 -0.1286 -0.4076
   41DOPE   H7X 5256   2.238   4.640  12.799  0.6560  0.2439  0.9769
   41DOPE   H7Y 5257   2.223   4.460  12.788  1.1845 -0.0266 -0.7553
   41DOPE   C38 5258   2.256   4.529  12.983  0.4102 -0.5586 -0.4524
   41DOPE   H8X 5259   2.313   4.607  13.039 -0.3638  0.0935 -0.5532
   41DOPE   H8Y 5260   2.278   4.427  13.021 -2.3516 -0.5137  1.5779
   41DOPE   C39 5261   2.112   4.559  13.019  0.3756  0.2544  0.4114
   41DOPE   H9X 5262   2.062   4.619  12.942 -0.7508  0.2239  1.1034
   41DOPE  C310 5263   2.060   4.546  13.145 -0.2234  0.1076  0.5319
   41DOPE  H10X 5264   1.953   4.566  13.161 -0.9398 -3.0030  0.2503
   41DOPE  C311 5265   2.132   4.497  13.266  0.5123 -0.4757  0.0165
   41DOPE  H11X 5266   2.096   4.392  13.275 -2.1114  0.2766 -0.7725
   41DOPE  H11Y 5267   2.242   4.501  13.252  0.3362  0.2566 -1.4500
   41DOPE  C312 5268   2.088   4.569  13.400  0.4036 -0.2977  0.1759
   41DOPE  H12X 5269   1.982   4.541  13.411  0.4349 -0.6407 -0.4009
   41DOPE  H12Y 5270   2.089   4.680  13.392  0.5176 -0.3752 -1.1325
   41DOPE  C313 5271   2.162   4.505  13.512 -0.4762 -0.1988  0.1918
   41DOPE  H13X 5272   2.172   4.396  13.496  1.3597  0.0946 -0.9105
   41DOPE  H13Y 5273   2.262   4.548  13.492 -1.3828  1.8342 -0.2972
   41DOPE  C314 5274   2.125   4.549  13.655 -0.5752  0.1496  0.5827
   41DOPE  H14X 5275   2.141   4.659  13.660 -1.4407  0.3479 -0.3760
   41DOPE  H14Y 5276   2.194   4.501  13.727  1.1515  1.7394  0.0654
   41DOPE  C315 5277   1.979   4.528  13.691 -0.4308  0.0929  0.5731
   41DOPE  H15X 5278   1.949   4.424  13.666 -1.4570  0.9180 -1.9250
   41DOPE  H15Y 5279   1.914   4.600  13.637  1.5600  0.7618 -1.0383
   41DOPE  C316 5280   1.974   4.546  13.842 -1.3265  0.3311  0.7245
   41DOPE  H16X 5281   1.992   4.655  13.856  1.7454  0.3963 -2.4435
   41DOPE  H16Y 5282   2.058   4.504  13.902 -1.9118  0.0781  1.3820
   41DOPE  C317 5283   1.845   4.484  13.894  0.0186  0.1399 -0.3978
   41DOPE  H17X 5284   1.765   4.540  13.842 -0.3783 -0.9854 -1.0343
   41DOPE  H17Y 5285   1.845   4.375  13.870  1.0425  0.4250 -1.8320
   41DOPE  C318 5286   1.835   4.499  14.045  0.6429  0.0971  0.2339
   41DOPE  H18X 5287   1.836   4.607  14.071  1.1746  0.2015 -0.2099
   41DOPE  H18Y 5288   1.746   4.442  14.079  0.9274 -0.3907  0.1665
   41DOPE  H18Z 5289   1.926   4.459  14.094 -0.6766 -0.4057  2.4100
   42DOPE     N 5290   1.589   3.586  11.971  0.4273 -0.0647  0.2279
   42DOPE   HN1 5291   1.500   3.550  11.934 -0.1428  0.9369  0.5795
   42DOPE   HN2 5292   1.665   3.550  11.910  1.1932  0.4324  0.8553
   42DOPE   HN3 5293   1.600   3.541  12.064  1.8269  1.3794  0.8116
   42DOPE   C12 5294   1.590   3.737  11.994 -0.3526  0.4852 -0.0493
   42DOPE  H12A 5295   1.498   3.780  11.949  0.0690  2.5514  0.9162
   42DOPE  H12B 5296   1.676   3.770  11.932 -1.7644 -0.5027 -2.6888
   42DOPE   C11 5297   1.607   3.771  12.137  0.8541  0.0873  0.1339
   42DOPE  H11A 5298   1.530   3.730  12.205 -0.2373  0.3734 -0.8900
   42DOPE  H11B 5299   1.584   3.880  12.148  3.6738  0.7254  0.4086
   42DOPE     P 5300   1.776   3.610  12.253  0.3559  0.2688 -0.6758
   42DOPE   O13 5301   1.911   3.586  12.204  0.3199  0.5658 -0.5003
   42DOPE   O14 5302   1.672   3.509  12.211  0.8004  0.1097 -0.4174
   42DOPE   O11 5303   1.764   3.633  12.407 -0.6632 -0.0059 -0.3972
   42DOPE   O12 5304   1.736   3.750  12.193 -0.1622 -0.0411  0.0888
   42DOPE    C1 5305   1.867   3.722  12.461 -0.1617 -0.9224  0.4930
   42DOPE    HA 5306   1.897   3.798  12.387 -1.1539  0.1474  1.1554
   42DOPE    HB 5307   1.959   3.677  12.504  0.3919 -0.7838 -0.5175
   42DOPE    C2 5308   1.820   3.804  12.579  0.6945 -0.1923 -0.4086
   42DOPE    HS 5309   1.904   3.863  12.621 -0.0259  0.6179 -0.0839
   42DOPE   O21 5310   1.756   3.719  12.679 -0.6121 -0.2050 -0.7751
   42DOPE   C21 5311   1.836   3.667  12.769 -0.1026  0.1521  0.6401
   42DOPE   O22 5312   1.956   3.691  12.786 -0.5167 -0.3641 -0.5546
   42DOPE   C22 5313   1.752   3.573  12.861  0.4666  0.0754  0.0126
   42DOPE   H2R 5314   1.803   3.475  12.852  0.7717 -0.1893  3.2569
   42DOPE   H2S 5315   1.647   3.559  12.828  1.3033  1.3957 -3.6259
   42DOPE    C3 5316   1.710   3.902  12.534 -0.0271  0.4107 -0.2377
   42DOPE    HX 5317   1.627   3.844  12.489 -0.2256 -0.8949  1.6913
   42DOPE    HY 5318   1.750   3.966  12.452 -0.9678  0.9036 -0.3312
   42DOPE   O31 5319   1.659   3.983  12.640  0.1099  0.2555 -0.2450
   42DOPE   C31 5320   1.739   4.086  12.664  0.1207  0.5990 -0.2789
   42DOPE   O32 5321   1.844   4.111  12.611  0.0338 -0.4470  0.0619
   42DOPE   C32 5322   1.675   4.161  12.771 -0.2882 -0.5341 -0.5811
   42DOPE   H2X 5323   1.729   4.258  12.771  0.0668 -0.6722 -2.8001
   42DOPE   H2Y 5324   1.572   4.187  12.738 -1.1536 -0.7548  1.7710
   42DOPE   C23 5325   1.757   3.612  13.013  0.4832 -0.4647  0.3681
   42DOPE   H3R 5326   1.703   3.708  13.029 -0.2256 -1.1049  2.1891
   42DOPE   H3S 5327   1.865   3.623  13.038  0.2178  1.0312  0.9696
   42DOPE   C24 5328   1.706   3.508  13.117  0.0056 -0.8413 -0.4589
   42DOPE   H4R 5329   1.762   3.413  13.102 -1.4417 -1.8157  0.0704
   42DOPE   H4S 5330   1.602   3.482  13.087 -0.6145  0.0243  0.8318
   42DOPE   C25 5331   1.716   3.557  13.260 -0.6071  0.0402 -0.7136
   42DOPE   H5R 5332   1.650   3.642  13.287  0.5132  0.6864  0.1172
   42DOPE   H5S 5333   1.817   3.601  13.277 -1.6819  2.4052 -0.0904
   42DOPE   C26 5334   1.687   3.445  13.367  0.4184 -0.5831  0.5071
   42DOPE   H6R 5335   1.745   3.355  13.337 -2.5986 -2.0099 -1.5544
   42DOPE   H6S 5336   1.582   3.412  13.350 -0.7244  1.7362  2.4974
   42DOPE   C27 5337   1.708   3.484  13.514 -0.3668  0.0811  0.1678
   42DOPE   H7R 5338   1.802   3.543  13.510 -0.8378  0.8568  0.2003
   42DOPE   H7S 5339   1.714   3.397  13.583 -0.8873  1.0944  1.5594
   42DOPE   C28 5340   1.599   3.568  13.583 -0.4166  0.0174 -0.1777
   42DOPE   H8R 5341   1.510   3.502  13.580  0.1804 -0.8616  0.8148
   42DOPE   H8S 5342   1.575   3.655  13.517 -2.8936  0.4391  1.1548
   42DOPE   C29 5343   1.641   3.601  13.723 -0.0150  0.0521  0.1837
   42DOPE   H9R 5344   1.742   3.568  13.751  0.7170  0.6531 -1.6122
   42DOPE  C210 5345   1.564   3.653  13.819 -0.2933 -0.0995  0.7189
   42DOPE  H10R 5346   1.600   3.654  13.923 -0.6440  0.1724  0.8408
   42DOPE  C211 5347   1.425   3.700  13.800 -0.8436 -0.1512  0.9779
   42DOPE  H11R 5348   1.387   3.692  13.696  0.5079  2.6699  0.1573
   42DOPE  H11S 5349   1.426   3.811  13.802  2.0961 -0.0584 -0.2799
   42DOPE  C212 5350   1.322   3.644  13.905  0.3842  0.7458  0.5362
   42DOPE  H12R 5351   1.223   3.690  13.883  0.4368  1.2903  1.3655
   42DOPE  H12S 5352   1.343   3.681  14.008 -1.0378  0.5736  0.9126
   42DOPE  C213 5353   1.311   3.489  13.911  0.4676 -0.2908 -0.0913
   42DOPE  H13R 5354   1.409   3.459  13.955  1.4585  2.0523 -0.5083
   42DOPE  H13S 5355   1.309   3.458  13.804 -1.0727  0.9698 -0.4724
   42DOPE  C214 5356   1.183   3.435  13.987  0.2517  0.5495 -0.0234
   42DOPE  H14R 5357   1.096   3.472  13.928 -0.2529 -0.5238  0.0281
   42DOPE  H14S 5358   1.178   3.485  14.086  1.1622 -1.2230  0.9559
   42DOPE  C215 5359   1.196   3.286  14.006 -0.3061 -0.7025 -0.6131
   42DOPE  H15R 5360   1.292   3.254  14.050 -1.1445 -1.3251  0.8374
   42DOPE  H15S 5361   1.192   3.234  13.907  0.0405  1.2874 -1.7312
   42DOPE  C216 5362   1.086   3.235  14.103  0.1098  0.3956 -0.8327
   42DOPE  H16R 5363   0.987   3.255  14.057 -1.0469  0.0116  1.3584
   42DOPE  H16S 5364   1.081   3.288  14.201 -0.5744 -1.1986  0.0247
   42DOPE  C217 5365   1.097   3.086  14.143  0.9321 -0.3023 -0.6826
   42DOPE  H17R 5366   1.180   3.084  14.216 -1.3719 -1.6817  2.0714
   42DOPE  H17S 5367   1.143   3.024  14.063 -1.4661  0.8580 -3.1152
   42DOPE  C218 5368   0.979   3.020  14.221 -0.5362  0.1643 -0.0379
   42DOPE  H18R 5369   0.951   3.081  14.310  3.0344 -0.1126  1.4804
   42DOPE  H18S 5370   1.022   2.924  14.257  2.8777  1.8718  0.9808
   42DOPE  H18T 5371   0.892   3.007  14.154 -1.2754  1.5712  0.6089
   42DOPE   C33 5372   1.691   4.100  12.909  0.0125 -0.3595  0.1643
   42DOPE   H3X 5373   1.798   4.087  12.938 -0.2850  0.0866  1.5509
   42DOPE   H3Y 5374   1.636   4.003  12.911 -0.4157 -0.1206  0.0863
   42DOPE   C34 5375   1.620   4.192  13.015  0.2880 -0.1112 -0.2080
   42DOPE   H4X 5376   1.509   4.189  13.011  0.1103  0.8626  2.4120
   42DOPE   H4Y 5377   1.633   4.140  13.113 -1.5466 -0.7730 -0.2824
   42DOPE   C35 5378   1.685   4.326  13.031  0.4618  0.0417  0.6421
   42DOPE   H5X 5379   1.676   4.391  12.942  0.4804  0.8354  1.2148
   42DOPE   H5Y 5380   1.795   4.308  13.034  0.6070  0.6801 -0.4338
   42DOPE   C36 5381   1.637   4.401  13.144 -0.2839 -0.0203 -0.7221
   42DOPE   H6X 5382   1.527   4.411  13.147 -0.2188  0.5172  0.2160
   42DOPE   H6Y 5383   1.677   4.505  13.133  0.5892 -0.4080 -1.4136
   42DOPE   C37 5384   1.699   4.352  13.279 -0.2430 -0.2663  0.7308
   42DOPE   H7X 5385   1.666   4.248  13.302 -0.0210  0.1771  3.2973
   42DOPE   H7Y 5386   1.809   4.352  13.259 -0.4242 -1.4396 -0.4637
   42DOPE   C38 5387   1.682   4.436  13.403  0.0096 -0.5004  0.1702
   42DOPE   H8X 5388   1.723   4.538  13.385 -1.7579  0.3568  0.7778
   42DOPE   H8Y 5389   1.732   4.387  13.489 -0.8218  0.2755  1.1220
   42DOPE   C39 5390   1.536   4.450  13.433  0.3621 -1.1097 -0.7066
   42DOPE   H9X 5391   1.476   4.494  13.353  0.2678  0.6353  0.2804
   42DOPE  C310 5392   1.476   4.453  13.555  0.2126 -0.0040 -0.1210
   42DOPE  H10X 5393   1.366   4.449  13.549  0.3172 -3.1402 -3.6088
   42DOPE  C311 5394   1.535   4.432  13.690 -0.1215 -0.4119  0.2807
   42DOPE  H11X 5395   1.495   4.334  13.725 -0.0916 -0.8646 -0.9041
   42DOPE  H11Y 5396   1.643   4.410  13.679  0.0294  0.8621 -0.9250
   42DOPE  C312 5397   1.491   4.531  13.799 -0.4638 -0.0249 -1.0487
   42DOPE  H12X 5398   1.548   4.627  13.807  0.9428 -0.9122  0.3722
   42DOPE  H12Y 5399   1.500   4.476  13.895 -0.1364  1.3114 -0.2837
   42DOPE  C313 5400   1.346   4.580  13.791 -0.4485  0.2296  0.3265
   42DOPE  H13X 5401   1.332   4.639  13.697  1.2076 -1.9934 -1.4129
   42DOPE  H13Y 5402   1.282   4.490  13.780  1.8379 -1.2275 -2.7635
   42DOPE  C314 5403   1.290   4.666  13.910  0.5041  0.4279 -0.5339
   42DOPE  H14X 5404   1.361   4.745  13.942 -0.1700  0.5360  0.7661
   42DOPE  H14Y 5405   1.266   4.606  14.001 -2.4376  2.2647  0.0550
   42DOPE  C315 5406   1.155   4.728  13.864  0.2523 -0.2429 -0.0656
   42DOPE  H15X 5407   1.067   4.661  13.860 -0.3239  0.5391 -1.9124
   42DOPE  H15Y 5408   1.173   4.774  13.764  0.7300 -1.8720 -0.7632
   42DOPE  C316 5409   1.116   4.839  13.959  0.4916  0.0997 -0.5912
   42DOPE  H16X 5410   1.127   4.809  14.065 -2.9093 -0.2821 -0.2321
   42DOPE  H16Y 5411   1.007   4.857  13.941  0.2173 -1.6194 -0.8346
   42DOPE  C317 5412   1.203   4.965  13.934  0.0992 -0.6154 -0.4488
   42DOPE  H17X 5413   1.312   4.947  13.944 -0.0416 -0.9651  0.6252
   42DOPE  H17Y 5414   1.180   4.993  13.829 -1.8764  0.5128  0.2182
   42DOPE  C318 5415   1.170   5.076  14.028  0.1307 -0.5573 -0.3026
   42DOPE  H18X 5416   1.202   5.052  14.131  0.7749 -1.4280 -0.6861
   42DOPE  H18Y 5417   1.236   5.161  14.001 -1.0709  1.0606  1.6773
   42DOPE  H18Z 5418   1.067   5.116  14.022  0.2473 -0.1854  0.1626
   43DOPE     N 5419   2.914   3.465  13.043  1.1286  0.5655  0.2893
   43DOPE   HN1 5420   2.907   3.525  13.127  1.1306 -0.9639  1.4178
   43DOPE   HN2 5421   3.001   3.408  13.044 -0.0112 -1.5787 -3.0541
   43DOPE   HN3 5422   2.918   3.526  12.959  1.6239 -2.2987 -1.9696
   43DOPE   C12 5423   2.794   3.365  13.030  0.5050 -0.1003 -1.0959
   43DOPE  H12A 5424   2.791   3.312  13.128 -1.1011  2.4496  0.3415
   43DOPE  H12B 5425   2.822   3.299  12.945 -1.8683 -0.5411 -1.6023
   43DOPE   C11 5426   2.652   3.425  13.003 -0.2691 -0.1521 -0.1652
   43DOPE  H11A 5427   2.618   3.484  13.090  3.5696  0.0966  1.3764
   43DOPE  H11B 5428   2.571   3.349  12.998 -3.0696  2.4576  2.2256
   43DOPE     P 5429   2.611   3.456  12.746 -0.1061 -0.1053 -0.1740
   43DOPE   O13 5430   2.673   3.326  12.717 -0.6019 -0.6040 -0.3699
   43DOPE   O14 5431   2.616   3.560  12.645  0.8233 -0.1976  0.7426
   43DOPE   O11 5432   2.455   3.423  12.776  0.6977  0.4944  0.4189
   43DOPE   O12 5433   2.658   3.508  12.887 -0.5744 -0.5393  0.0891
   43DOPE    C1 5434   2.365   3.510  12.853  0.6068  0.2189 -0.1091
   43DOPE    HA 5435   2.276   3.533  12.791  1.4722 -2.0757 -2.3938
   43DOPE    HB 5436   2.413   3.603  12.890 -1.3231  1.4791 -0.6036
   43DOPE    C2 5437   2.310   3.442  12.981 -0.7174  0.2960 -0.3670
   43DOPE    HS 5438   2.377   3.480  13.061  0.8206 -4.9095  1.2229
   43DOPE   O21 5439   2.325   3.300  12.978  0.5997 -0.1087  0.2074
   43DOPE   C21 5440   2.338   3.245  13.100  0.7528  0.6506  1.0295
   43DOPE   O22 5441   2.321   3.302  13.206  0.2093 -0.1792 -0.4746
   43DOPE   C22 5442   2.386   3.098  13.087 -0.1349  0.3320 -0.7056
   43DOPE   H2R 5443   2.496   3.102  13.075 -0.0206 -1.1338 -0.3678
   43DOPE   H2S 5444   2.338   3.054  12.997  0.0316 -1.3554 -0.0034
   43DOPE    C3 5445   2.161   3.484  13.001 -0.0774  0.3933 -0.5160
   43DOPE    HX 5446   2.087   3.408  12.968 -1.3524  1.7762 -0.9184
   43DOPE    HY 5447   2.134   3.571  12.938 -0.4000 -0.8465 -2.1438
   43DOPE   O31 5448   2.126   3.511  13.135  0.2504  0.3350 -0.2202
   43DOPE   C31 5449   2.168   3.615  13.193 -0.3333  0.5603 -0.1971
   43DOPE   O32 5450   2.233   3.709  13.135  0.3922  0.2237 -0.6966
   43DOPE   C32 5451   2.135   3.605  13.336 -0.6123  0.1393  0.7290
   43DOPE   H2X 5452   2.026   3.594  13.353 -1.0621  1.3062 -1.0731
   43DOPE   H2Y 5453   2.174   3.505  13.364 -0.5738  0.0382  0.3206
   43DOPE   C23 5454   2.337   3.024  13.211 -0.3306  0.3895  0.9559
   43DOPE   H3R 5455   2.226   3.021  13.222 -0.2576 -1.4814  1.5414
   43DOPE   H3S 5456   2.382   3.070  13.301 -0.3413 -0.9015  1.6529
   43DOPE   C24 5457   2.382   2.878  13.199  0.8173 -0.5381 -0.6891
   43DOPE   H4R 5458   2.338   2.830  13.110  0.5690 -0.1291 -0.7891
   43DOPE   H4S 5459   2.339   2.831  13.290  0.7353  0.8293  0.0171
   43DOPE   C25 5460   2.525   2.840  13.221 -0.2101 -0.3214 -0.0905
   43DOPE   H5R 5461   2.563   2.860  13.324 -3.1196  1.7743  0.7034
   43DOPE   H5S 5462   2.601   2.889  13.156 -0.3543 -2.6438 -2.1516
   43DOPE   C26 5463   2.550   2.687  13.190  0.3052  0.3542 -0.1968
   43DOPE   H6R 5464   2.652   2.673  13.148  0.7178  1.4153  0.4088
   43DOPE   H6S 5465   2.482   2.659  13.107  0.3571  1.6452 -0.6980
   43DOPE   C27 5466   2.531   2.587  13.307 -0.6289  0.7028 -0.6555
   43DOPE   H7R 5467   2.585   2.494  13.280  2.2440  1.2471  2.4250
   43DOPE   H7S 5468   2.420   2.576  13.311 -0.6153  0.6419 -0.3573
   43DOPE   C28 5469   2.572   2.618  13.453 -0.7161  0.3149 -0.0149
   43DOPE   H8R 5470   2.493   2.682  13.497  0.0068  2.6604 -1.8802
   43DOPE   H8S 5471   2.667   2.675  13.465 -0.3292 -0.0965 -1.0204
   43DOPE   C29 5472   2.588   2.486  13.523 -0.2659  0.2755  0.4114
   43DOPE   H9R 5473   2.663   2.415  13.486 -1.0546 -0.0919 -0.5367
   43DOPE  C210 5474   2.524   2.446  13.632  0.6605  1.1604 -0.7344
   43DOPE  H10R 5475   2.547   2.344  13.667  0.5890  1.0200 -1.0928
   43DOPE  C211 5476   2.423   2.523  13.714 -0.0478 -0.5366 -0.2273
   43DOPE  H11R 5477   2.374   2.608  13.664 -0.6619 -0.6475  0.1788
   43DOPE  H11S 5478   2.463   2.555  13.813 -0.1528  0.9508 -0.6508
   43DOPE  C212 5479   2.309   2.428  13.747  0.6147 -0.1281  0.4612
   43DOPE  H12R 5480   2.333   2.330  13.793 -0.4036 -2.4476 -3.4708
   43DOPE  H12S 5481   2.271   2.408  13.645  1.8823 -0.8373  0.1039
   43DOPE  C213 5482   2.205   2.498  13.833  0.4141 -0.0452 -0.2960
   43DOPE  H13R 5483   2.169   2.594  13.790  0.2614  1.1616  2.3609
   43DOPE  H13S 5484   2.242   2.541  13.929 -2.7260  3.0468 -0.2564
   43DOPE  C214 5485   2.080   2.416  13.858  0.8289 -0.5374 -0.7825
   43DOPE  H14R 5486   2.034   2.374  13.766 -2.1509 -2.4061  1.3902
   43DOPE  H14S 5487   2.011   2.489  13.906  0.9123 -1.7801  1.3481
   43DOPE  C215 5488   2.098   2.300  13.956 -0.0407 -0.3975  0.1590
   43DOPE  H15R 5489   2.144   2.338  14.050  1.0194 -0.4359 -0.3423
   43DOPE  H15S 5490   2.172   2.227  13.919 -1.8701 -1.5983 -1.3211
   43DOPE  C216 5491   1.970   2.228  13.998  0.7129 -0.2018 -0.3876
   43DOPE  H16R 5492   1.910   2.186  13.914 -1.1457 -1.9414  1.6893
   43DOPE  H16S 5493   1.902   2.300  14.050  0.9223  0.5425 -1.1124
   43DOPE  C217 5494   2.001   2.118  14.098 -1.0316  0.3062 -1.5284
   43DOPE  H17R 5495   2.067   2.043  14.049 -1.4098 -0.1229 -1.3809
   43DOPE  H17S 5496   1.903   2.071  14.119  0.0994 -1.4772  0.1497
   43DOPE  C218 5497   2.084   2.155  14.228 -0.2945 -0.1357 -0.2228
   43DOPE  H18R 5498   2.102   2.062  14.285 -0.9350 -0.4981 -0.5971
   43DOPE  H18S 5499   2.034   2.221  14.302  1.9896 -0.1081  1.4092
   43DOPE  H18T 5500   2.185   2.189  14.197 -0.2369 -0.5736 -0.5248
   43DOPE   C33 5501   2.200   3.713  13.422  0.3402  0.4606 -0.1272
   43DOPE   H3X 5502   2.187   3.814  13.377 -1.8906  0.2754 -0.0171
   43DOPE   H3Y 5503   2.305   3.687  13.449  0.3891  1.9806  1.3177
   43DOPE   C34 5504   2.119   3.731  13.549  1.0214 -0.4880  0.7559
   43DOPE   H4X 5505   2.154   3.828  13.590  1.2577 -0.8518  1.4233
   43DOPE   H4Y 5506   2.016   3.748  13.511  1.7404 -0.5077 -1.3446
   43DOPE   C35 5507   2.137   3.624  13.652  0.0953  0.8834 -0.5869
   43DOPE   H5X 5508   2.246   3.618  13.674 -0.1262 -0.7046  0.2164
   43DOPE   H5Y 5509   2.112   3.528  13.604  2.8055  0.0645 -0.5690
   43DOPE   C36 5510   2.056   3.642  13.776 -0.3808 -0.4256  0.2544
   43DOPE   H6X 5511   1.952   3.666  13.745 -0.2887 -0.0410  0.2430
   43DOPE   H6Y 5512   2.102   3.729  13.826  0.0341  0.5385 -1.7130
   43DOPE   C37 5513   2.040   3.517  13.857 -0.2195 -0.1905 -0.0824
   43DOPE   H7X 5514   2.017   3.434  13.786  0.8973  0.9371 -1.8317
   43DOPE   H7Y 5515   2.141   3.490  13.895  0.5845  1.1937 -1.1436
   43DOPE   C38 5516   1.944   3.526  13.980 -0.7353  0.0973  0.0240
   43DOPE   H8X 5517   1.846   3.568  13.949 -0.0720  1.0121 -0.9515
   43DOPE   H8Y 5518   1.992   3.590  14.057 -2.1182 -0.4161  1.3526
   43DOPE   C39 5519   1.939   3.386  14.035 -0.1913 -0.3013 -0.2871
   43DOPE   H9X 5520   2.036   3.354  14.076  0.4492  0.7563 -0.9317
   43DOPE  C310 5521   1.831   3.308  14.056  0.9918 -0.5190 -0.8652
   43DOPE  H10X 5522   1.844   3.207  14.096 -1.0423 -0.1675  0.8554
   43DOPE  C311 5523   1.689   3.327  13.999  0.2642 -0.9547  0.1747
   43DOPE  H11X 5524   1.649   3.424  14.035 -1.6991 -1.6559  0.0064
   43DOPE  H11Y 5525   1.708   3.337  13.890 -1.8418 -2.2076 -0.3674
   43DOPE  C312 5526   1.583   3.228  14.037  0.0612 -0.2887  0.6392
   43DOPE  H12X 5527   1.489   3.257  13.985  0.9385 -0.9940 -1.4537
   43DOPE  H12Y 5528   1.571   3.232  14.147 -0.4364 -1.1356  0.6267
   43DOPE  C313 5529   1.618   3.080  13.990 -0.7392 -0.3565 -0.3740
   43DOPE  H13X 5530   1.592   3.072  13.882 -3.7801 -2.6006  0.3885
   43DOPE  H13Y 5531   1.726   3.063  14.008 -1.1238 -2.1792  0.3562
   43DOPE  C314 5532   1.537   2.969  14.046 -0.2424  0.2254 -0.2878
   43DOPE  H14X 5533   1.577   2.877  13.998 -0.7817  0.4042 -1.1025
   43DOPE  H14Y 5534   1.435   2.975  14.003 -0.2098 -1.5639 -0.6724
   43DOPE  C315 5535   1.532   2.955  14.198 -0.5137 -0.2818 -0.7105
   43DOPE  H15X 5536   1.457   2.875  14.211  0.4726 -1.1408 -0.1013
   43DOPE  H15Y 5537   1.478   3.040  14.244  1.4756 -0.0371  1.3651
   43DOPE  C316 5538   1.660   2.927  14.276 -0.8896 -0.2873 -0.5665
   43DOPE  H16X 5539   1.741   3.000  14.255  1.0903 -0.8478  3.9805
   43DOPE  H16Y 5540   1.695   2.831  14.234 -1.3968 -0.5205 -0.4745
   43DOPE  C317 5541   1.637   2.941  14.430  0.0630  0.5467  0.1288
   43DOPE  H17X 5542   1.732   2.917  14.481 -0.2255 -1.3471 -0.1514
   43DOPE  H17Y 5543   1.606   3.045  14.454  0.8755  0.1497  3.3419
   43DOPE  C318 5544   1.527   2.862  14.495 -0.4768 -0.2661  0.5227
   43DOPE  H18X 5545   1.541   2.855  14.605 -0.9071  0.0679  0.6015
   43DOPE  H18Y 5546   1.429   2.914  14.491  1.4786  3.7595  0.8323
   43DOPE  H18Z 5547   1.517   2.756  14.461  1.7610 -0.5521  0.6074
   44DOPE     N 5548   2.727   1.105  11.751  0.0175  0.7536  0.0013
   44DOPE   HN1 5549   2.717   1.005  11.779  2.2248  0.4510 -0.1584
   44DOPE   HN2 5550   2.630   1.138  11.729 -0.4275 -1.2594 -1.3362
   44DOPE   HN3 5551   2.785   1.105  11.665  0.6062  0.2445  0.3955
   44DOPE   C12 5552   2.809   1.184  11.853 -0.5805  0.0157  0.1045
   44DOPE  H12A 5553   2.747   1.193  11.945 -0.1928 -0.9378  0.4830
   44DOPE  H12B 5554   2.818   1.282  11.803 -0.7915 -0.9461 -1.9003
   44DOPE   C11 5555   2.951   1.124  11.874  0.5824  0.9238 -0.1071
   44DOPE  H11A 5556   2.986   1.177  11.966  3.7163  0.7899 -1.1065
   44DOPE  H11B 5557   3.016   1.145  11.786 -1.0270 -0.5608 -1.7304
   44DOPE     P 5558   3.066   0.901  11.960 -0.3089 -0.0412 -0.0547
   44DOPE   O13 5559   3.196   0.954  11.905 -0.2622 -0.1649  0.0569
   44DOPE   O14 5560   3.038   0.760  11.954 -0.2827  0.0017  0.5633
   44DOPE   O11 5561   3.059   0.953  12.120  0.1246  0.5226  0.4739
   44DOPE   O12 5562   2.944   0.981  11.898  0.1312 -0.5180 -0.0144
   44DOPE    C1 5563   3.102   0.852  12.215 -0.4055  0.0503  0.4700
   44DOPE    HA 5564   3.206   0.820  12.195  1.0196  2.2792  3.5121
   44DOPE    HB 5565   3.031   0.766  12.219 -1.2977  0.7842  0.6232
   44DOPE    C2 5566   3.119   0.904  12.364  0.2304 -0.2437  0.0385
   44DOPE    HS 5567   3.173   0.825  12.421 -1.0359  1.2061  3.5100
   44DOPE   O21 5568   2.985   0.932  12.432 -0.6669  0.3118  0.5701
   44DOPE   C21 5569   2.936   0.821  12.491  0.1364  0.0316 -1.1167
   44DOPE   O22 5570   2.979   0.708  12.474 -0.5207  0.1428  0.1741
   44DOPE   C22 5571   2.831   0.860  12.595  0.3278 -0.0867 -0.1738
   44DOPE   H2R 5572   2.729   0.834  12.559  0.0797 -0.4691  0.7671
   44DOPE   H2S 5573   2.835   0.970  12.607 -0.8202  0.1722 -1.8163
   44DOPE    C3 5574   3.202   1.031  12.369 -0.3950 -0.7722 -0.2452
   44DOPE    HX 5575   3.161   1.119  12.315  3.1758  0.1337 -1.8160
   44DOPE    HY 5576   3.293   1.005  12.310 -0.3263  0.6894 -0.8286
   44DOPE   O31 5577   3.230   1.068  12.512  0.3798  0.7704 -0.3290
   44DOPE   C31 5578   3.325   1.153  12.529  0.4282 -0.2911  0.2018
   44DOPE   O32 5579   3.379   1.217  12.441  0.6774 -0.1714 -0.0502
   44DOPE   C32 5580   3.372   1.152  12.673  0.1523  0.2181  0.3708
   44DOPE   H2X 5581   3.440   1.066  12.685 -0.6185 -0.9434 -2.7229
   44DOPE   H2Y 5582   3.430   1.244  12.699 -0.5651  0.6710  0.4210
   44DOPE   C23 5583   2.869   0.790  12.728  0.1746  0.6666 -0.1451
   44DOPE   H3R 5584   2.888   0.680  12.733  1.3652  0.8700  0.2549
   44DOPE   H3S 5585   2.785   0.806  12.799 -0.1202 -2.5038  0.3853
   44DOPE   C24 5586   2.989   0.853  12.790  0.3552  0.3291 -0.4530
   44DOPE   H4R 5587   2.959   0.945  12.843  1.1043  0.2542  0.1170
   44DOPE   H4S 5588   3.059   0.881  12.708  1.7496 -2.4266 -0.3169
   44DOPE   C25 5589   3.060   0.764  12.896 -0.1691 -0.2276  0.4678
   44DOPE   H5R 5590   3.157   0.815  12.915 -0.7347  1.1699 -0.2268
   44DOPE   H5S 5591   3.084   0.658  12.873  2.1384 -0.0178  1.6112
   44DOPE   C26 5592   2.986   0.762  13.032  0.2229 -0.8254  0.6003
   44DOPE   H6R 5593   2.880   0.729  13.026  0.1080 -0.3086 -0.4971
   44DOPE   H6S 5594   2.985   0.864  13.075  0.4214 -0.6205  0.1267
   44DOPE   C27 5595   3.063   0.687  13.146  0.0750  0.1339 -0.0154
   44DOPE   H7R 5596   3.167   0.726  13.147  0.8853 -1.5816 -3.2178
   44DOPE   H7S 5597   3.058   0.579  13.125 -0.7630 -0.4340  2.7098
   44DOPE   C28 5598   3.005   0.720  13.287  0.1434  0.6937 -0.2044
   44DOPE   H8R 5599   2.896   0.722  13.264 -0.1499  2.0054  1.1342
   44DOPE   H8S 5600   3.027   0.825  13.314 -1.1145  0.7018  0.9276
   44DOPE   C29 5601   3.044   0.617  13.385  0.1334  0.3903  0.0605
   44DOPE   H9R 5602   3.053   0.514  13.349 -0.7318  0.5825 -0.7369
   44DOPE  C210 5603   3.095   0.643  13.509 -0.1624 -0.0585  0.3366
   44DOPE  H10R 5604   3.131   0.556  13.566 -0.3429 -1.0816 -1.0611
   44DOPE  C211 5605   3.078   0.775  13.572  0.6150 -1.1285  0.2498
   44DOPE  H11R 5606   2.990   0.828  13.531  0.1923 -2.6510 -0.9160
   44DOPE  H11S 5607   3.161   0.845  13.549 -1.4010  1.3233  0.0170
   44DOPE  C212 5608   3.079   0.756  13.719  0.3497 -0.0571 -0.2585
   44DOPE  H12R 5609   3.075   0.859  13.760 -2.5537 -0.9245  2.0419
   44DOPE  H12S 5610   3.178   0.710  13.740 -0.7294 -3.5186 -1.9567
   44DOPE  C213 5611   2.965   0.681  13.794  0.0192 -0.1009 -0.1515
   44DOPE  H13R 5612   2.969   0.571  13.776  0.3237 -0.3922  1.5284
   44DOPE  H13S 5613   2.877   0.736  13.755 -0.2640 -0.5781 -0.2029
   44DOPE  C214 5614   2.977   0.701  13.951  0.3364 -0.5225 -0.5892
   44DOPE  H14R 5615   2.884   0.659  13.995 -0.7935  2.0615 -0.3089
   44DOPE  H14S 5616   2.995   0.808  13.976  0.5073 -0.8175  0.5921
   44DOPE  C215 5617   3.094   0.617  14.012  0.1920  0.3686  0.2243
   44DOPE  H15R 5618   3.176   0.654  13.947 -2.8540  2.6079 -2.7114
   44DOPE  H15S 5619   3.070   0.510  13.995 -1.9037  0.4647  1.9980
   44DOPE  C216 5620   3.109   0.621  14.159  0.4321 -0.1442 -0.5869
   44DOPE  H16R 5621   3.009   0.614  14.205  0.7014  1.0852  0.2227
   44DOPE  H16S 5622   3.150   0.715  14.203  0.2306  0.9359 -2.5498
   44DOPE  C217 5623   3.201   0.510  14.206  0.5138 -0.5740  0.3056
   44DOPE  H17R 5624   3.173   0.408  14.172 -1.1298  0.9035 -3.3259
   44DOPE  H17S 5625   3.197   0.508  14.317 -0.7209 -0.4224  0.2872
   44DOPE  C218 5626   3.348   0.530  14.158 -0.6074 -0.1046  0.4802
   44DOPE  H18R 5627   3.421   0.479  14.225  0.6110 -0.6159 -1.1676
   44DOPE  H18S 5628   3.367   0.639  14.153 -0.2109 -0.0678  2.0570
   44DOPE  H18T 5629   3.365   0.488  14.057 -1.0544 -0.4605  0.5515
   44DOPE   C33 5630   3.259   1.129  12.770 -0.3221  0.1254  0.0219
   44DOPE   H3X 5631   3.207   1.031  12.766  1.3286 -0.7771  0.0137
   44DOPE   H3Y 5632   3.177   1.202  12.757 -1.3387 -0.9718  0.0800
   44DOPE   C34 5633   3.324   1.131  12.912  0.1226 -0.4379  0.9907
   44DOPE   H4X 5634   3.361   1.028  12.933  3.6407  0.5590  0.3373
   44DOPE   H4Y 5635   3.414   1.196  12.903  1.4982 -2.4702 -1.1148
   44DOPE   C35 5636   3.224   1.186  13.017  0.0911  0.6134 -0.3557
   44DOPE   H5X 5637   3.125   1.142  12.994  0.3351 -0.0959 -0.0858
   44DOPE   H5Y 5638   3.224   1.296  13.001  0.5043  0.8191  0.9890
   44DOPE   C36 5639   3.263   1.159  13.166 -0.4201  0.1228 -0.1280
   44DOPE   H6X 5640   3.372   1.180  13.176 -0.0722 -0.3539 -2.3719
   44DOPE   H6Y 5641   3.264   1.048  13.176  1.7225  0.1150  0.0862
   44DOPE   C37 5642   3.175   1.236  13.274 -0.2413  0.1351  0.3735
   44DOPE   H7X 5643   3.208   1.342  13.266  0.8962 -0.2904 -1.1406
   44DOPE   H7Y 5644   3.072   1.234  13.233 -0.8090  3.2340  1.4215
   44DOPE   C38 5645   3.174   1.181  13.416  0.3241 -0.5471 -0.5982
   44DOPE   H8X 5646   3.273   1.203  13.461 -0.7634  2.2303  0.6401
   44DOPE   H8Y 5647   3.166   1.071  13.400 -1.0532 -0.5985  0.2671
   44DOPE   C39 5648   3.059   1.233  13.497 -0.4821 -0.0373  0.0841
   44DOPE   H9X 5649   2.962   1.197  13.460 -0.7835 -0.7479  1.5108
   44DOPE  C310 5650   3.064   1.331  13.595  0.1410  0.2489  0.0961
   44DOPE  H10X 5651   2.965   1.350  13.640 -1.2610 -2.9935 -1.2890
   44DOPE  C311 5652   3.180   1.400  13.650  0.0402 -0.6446 -0.2237
   44DOPE  H11X 5653   3.193   1.375  13.757 -0.9701 -2.0893 -0.4098
   44DOPE  H11Y 5654   3.270   1.357  13.602 -0.2561 -0.4332 -0.9979
   44DOPE  C312 5655   3.181   1.559  13.635  0.3690  1.2890  0.3145
   44DOPE  H12X 5656   3.093   1.603  13.686 -0.4260  0.2774 -0.1598
   44DOPE  H12Y 5657   3.155   1.572  13.528 -0.8097  2.4724  0.7137
   44DOPE  C313 5658   3.303   1.622  13.694  0.0854 -0.1056  0.4228
   44DOPE  H13X 5659   3.330   1.583  13.794  1.9520  1.5831  0.6513
   44DOPE  H13Y 5660   3.385   1.589  13.627 -0.1453 -0.4383  0.3010
   44DOPE  C314 5661   3.308   1.779  13.700 -0.2355 -0.1483 -0.2672
   44DOPE  H14X 5662   3.234   1.806  13.622  0.2835  2.6098  0.0821
   44DOPE  H14Y 5663   3.407   1.814  13.662  0.6268 -2.1947 -0.0329
   44DOPE  C315 5664   3.272   1.843  13.835 -0.1345  0.6659 -0.0039
   44DOPE  H15X 5665   3.287   1.952  13.823 -0.5307  0.9854  2.0835
   44DOPE  H15Y 5666   3.343   1.805  13.911 -0.2022 -1.4891 -0.9308
   44DOPE  C316 5667   3.129   1.836  13.889  0.4200 -0.0370  0.5495
   44DOPE  H16X 5668   3.107   1.728  13.873  2.5418 -0.5767  0.8981
   44DOPE  H16Y 5669   3.047   1.883  13.830 -0.0393 -1.9338 -0.4297
   44DOPE  C317 5670   3.134   1.854  14.043  0.4029  0.1285 -0.2174
   44DOPE  H17X 5671   3.217   1.791  14.082 -1.9714 -1.9154  1.9093
   44DOPE  H17Y 5672   3.144   1.963  14.063  1.6299  0.0224 -0.1845
   44DOPE  C318 5673   3.000   1.800  14.105  0.3489 -0.2348  0.1064
   44DOPE  H18X 5674   2.984   1.705  14.050  0.2854 -0.5857  0.7119
   44DOPE  H18Y 5675   3.014   1.781  14.214  1.6418  1.0738  0.2024
   44DOPE  H18Z 5676   2.919   1.872  14.087 -1.4322 -1.6512  1.9441
   45DOPE     N 5677   4.407   0.721  11.704 -0.6435 -0.8885 -0.6991
   45DOPE   HN1 5678   4.356   0.686  11.621 -2.8934  2.5304 -0.9137
   45DOPE   HN2 5679   4.433   0.816  11.674  0.8319 -2.3640 -4.7474
   45DOPE   HN3 5680   4.497   0.668  11.711  0.8537  1.6353  1.3139
   45DOPE   C12 5681   4.325   0.713  11.829  0.2471  0.0131 -1.0327
   45DOPE  H12A 5682   4.218   0.729  11.802 -0.1084 -0.9719 -0.2930
   45DOPE  H12B 5683   4.362   0.788  11.902 -1.4610 -0.9872  1.0100
   45DOPE   C11 5684   4.347   0.571  11.889 -0.2763  0.0291 -0.2459
   45DOPE  H11A 5685   4.296   0.560  11.987 -4.0338 -1.1308 -2.1696
   45DOPE  H11B 5686   4.454   0.566  11.919 -0.5630 -0.7585  0.6976
   45DOPE     P 5687   4.313   0.317  11.850  0.0381 -0.1454  0.0394
   45DOPE   O13 5688   4.453   0.294  11.881  0.2765  0.1705  0.5551
   45DOPE   O14 5689   4.249   0.236  11.746  0.5705 -0.1202  0.1509
   45DOPE   O11 5690   4.232   0.306  11.985  0.2642 -0.2091 -0.3400
   45DOPE   O12 5691   4.292   0.466  11.814 -0.5622 -0.3117  0.2523
   45DOPE    C1 5692   4.089   0.283  11.995  0.3681 -0.1966  0.4315
   45DOPE    HA 5693   4.062   0.231  12.089 -2.3939  0.6299  0.1946
   45DOPE    HB 5694   4.043   0.235  11.905  0.2184  1.4181 -0.3803
   45DOPE    C2 5695   4.012   0.422  12.017 -0.3090  0.8564  0.0147
   45DOPE    HS 5696   4.055   0.489  11.939 -0.1368  0.8564  0.1102
   45DOPE   O21 5697   4.041   0.470  12.152  0.5982 -0.4692 -0.4223
   45DOPE   C21 5698   4.056   0.597  12.159 -0.4405 -0.9851 -0.3508
   45DOPE   O22 5699   4.089   0.668  12.062  0.0483  0.3650  0.5148
   45DOPE   C22 5700   4.033   0.646  12.301  0.5147 -0.1987 -0.6118
   45DOPE   H2R 5701   4.097   0.588  12.370  0.4890  2.1682  1.5479
   45DOPE   H2S 5702   3.928   0.625  12.329  0.4671 -2.3545 -2.1684
   45DOPE    C3 5703   3.857   0.404  11.997  0.2843 -0.3819 -0.4995
   45DOPE    HX 5704   3.837   0.355  11.899  2.5170 -1.2501 -0.5690
   45DOPE    HY 5705   3.813   0.506  11.997  0.5961 -0.2228  0.9710
   45DOPE   O31 5706   3.803   0.318  12.102  0.4232 -0.1463 -0.2785
   45DOPE   C31 5707   3.728   0.371  12.190 -0.8768 -0.2603  0.1990
   45DOPE   O32 5708   3.668   0.478  12.186  0.3971  0.2248 -0.4432
   45DOPE   C32 5709   3.706   0.273  12.301 -0.4702 -0.4489  0.1479
   45DOPE   H2X 5710   3.658   0.181  12.261  2.0656 -1.3987 -0.9149
   45DOPE   H2Y 5711   3.809   0.243  12.330 -1.4377 -5.3398 -0.5910
   45DOPE   C23 5712   4.065   0.794  12.341 -0.6985  0.2104 -0.2665
   45DOPE   H3R 5713   4.021   0.861  12.264  1.3612  0.7120 -1.0828
   45DOPE   H3S 5714   4.174   0.816  12.335 -1.0061  1.4925 -1.6883
   45DOPE   C24 5715   4.002   0.845  12.470 -0.0408  0.3741  0.3835
   45DOPE   H4R 5716   3.978   0.754  12.528 -1.1889  0.5193  0.1623
   45DOPE   H4S 5717   3.907   0.897  12.445 -0.0761  0.7874  1.3262
   45DOPE   C25 5718   4.083   0.943  12.560  0.1152  0.8710 -0.4365
   45DOPE   H5R 5719   4.101   1.030  12.494 -0.2324  1.9074  0.7780
   45DOPE   H5S 5720   4.177   0.886  12.581 -1.7059 -1.8909  0.8595
   45DOPE   C26 5721   4.034   0.983  12.703 -0.9987  1.0250 -0.2285
   45DOPE   H6R 5722   3.924   0.993  12.691 -1.0310 -0.4479 -1.6240
   45DOPE   H6S 5723   4.076   1.083  12.723  0.7711  0.5145 -1.1649
   45DOPE   C27 5724   4.073   0.894  12.815 -0.9889  0.6766 -0.4492
   45DOPE   H7R 5725   4.183   0.911  12.823 -1.0992  0.8630  0.7821
   45DOPE   H7S 5726   4.034   0.790  12.805 -0.1151  0.0423  2.0691
   45DOPE   C28 5727   4.020   0.936  12.953  0.0924 -0.1512  1.1096
   45DOPE   H8R 5728   3.913   0.943  12.923  0.3371 -0.1752  0.1971
   45DOPE   H8S 5729   4.045   1.041  12.977  0.6346  0.7325 -2.6984
   45DOPE   C29 5730   4.045   0.844  13.067 -0.4972 -0.0513 -0.5406
   45DOPE   H9R 5731   4.084   0.742  13.054 -0.6727 -0.5430  2.3017
   45DOPE  C210 5732   4.042   0.889  13.193  0.7653  0.1525  0.2206
   45DOPE  H10R 5733   4.068   0.822  13.276 -0.3853 -0.4809  0.0953
   45DOPE  C211 5734   4.005   1.037  13.232 -0.5299  0.0635 -0.7127
   45DOPE  H11R 5735   3.943   1.043  13.324 -0.1523  0.3102 -0.4761
   45DOPE  H11S 5736   3.945   1.092  13.156 -1.4658 -0.0325 -0.0686
   45DOPE  C212 5737   4.120   1.123  13.282 -0.2838 -0.6779 -0.1728
   45DOPE  H12R 5738   4.089   1.228  13.305  1.5038 -0.2229  0.3205
   45DOPE  H12S 5739   4.183   1.146  13.193  0.2626  1.6185  0.7259
   45DOPE  C213 5740   4.203   1.067  13.395 -0.0710 -0.3648  0.2036
   45DOPE  H13R 5741   4.286   1.134  13.425 -0.0099 -0.7897  1.0024
   45DOPE  H13S 5742   4.249   0.970  13.367 -0.0854 -1.4780  3.6111
   45DOPE  C214 5743   4.128   1.055  13.530  0.0627  0.2996 -0.3966
   45DOPE  H14R 5744   4.059   0.968  13.525  1.3090 -0.9690  2.5696
   45DOPE  H14S 5745   4.061   1.143  13.542  0.6606  0.5943  0.9724
   45DOPE  C215 5746   4.218   1.037  13.652 -0.1181 -0.7646 -0.5783
   45DOPE  H15R 5747   4.281   1.127  13.671 -0.5369 -1.0060  2.4549
   45DOPE  H15S 5748   4.287   0.955  13.627 -0.3425 -0.9229 -0.6855
   45DOPE  C216 5749   4.133   0.998  13.773 -0.3182 -0.6883 -0.3860
   45DOPE  H16R 5750   4.213   0.975  13.847  1.5832  1.8376 -1.5004
   45DOPE  H16S 5751   4.061   0.916  13.752 -1.4401 -0.2222  1.4210
   45DOPE  C217 5752   4.051   1.117  13.829 -0.0133  0.9926 -0.8885
   45DOPE  H17R 5753   3.979   1.139  13.748 -2.1271 -1.6363  0.1111
   45DOPE  H17S 5754   4.117   1.206  13.831  2.4582 -0.7478 -0.7691
   45DOPE  C218 5755   3.979   1.102  13.970 -0.3700  0.2943  0.0129
   45DOPE  H18R 5756   4.039   1.050  14.047 -0.9352  0.1127  0.3320
   45DOPE  H18S 5757   3.884   1.046  13.967 -0.6584  0.8102 -1.0627
   45DOPE  H18T 5758   3.960   1.206  14.007 -2.0722  0.8973 -2.3442
   45DOPE   C33 5759   3.623   0.316  12.426  0.7175 -0.0010 -0.6972
   45DOPE   H3X 5760   3.516   0.326  12.399  0.5621  0.5986  0.1032
   45DOPE   H3Y 5761   3.657   0.412  12.471  2.9204 -1.3698  0.8119
   45DOPE   C34 5762   3.642   0.214  12.540  0.0049  0.7378 -0.5692
   45DOPE   H4X 5763   3.548   0.206  12.600  0.3534 -0.1226 -0.1250
   45DOPE   H4Y 5764   3.667   0.111  12.505  1.7746  0.4838  1.2651
   45DOPE   C35 5765   3.760   0.263  12.626 -0.3815  0.5946 -0.2009
   45DOPE   H5X 5766   3.830   0.318  12.559  3.2684  1.4760  3.8987
   45DOPE   H5Y 5767   3.820   0.183  12.674  0.5809  0.9510 -0.7781
   45DOPE   C36 5768   3.729   0.365  12.734 -0.2825 -0.1469 -0.4152
   45DOPE   H6X 5769   3.672   0.317  12.816  1.4796  0.4022  1.1836
   45DOPE   H6Y 5770   3.672   0.446  12.683  0.1719 -0.2406 -1.0913
   45DOPE   C37 5771   3.857   0.423  12.797  0.2178 -0.1609 -0.7237
   45DOPE   H7X 5772   3.928   0.340  12.818  0.6550 -0.3571 -2.7698
   45DOPE   H7Y 5773   3.900   0.493  12.722 -0.8016  2.1367  0.7200
   45DOPE   C38 5774   3.839   0.497  12.932  0.0679 -0.3479  0.0827
   45DOPE   H8X 5775   3.748   0.561  12.927 -0.0312 -0.3515  1.5348
   45DOPE   H8Y 5776   3.923   0.567  12.948 -0.0201 -0.3251  0.4560
   45DOPE   C39 5777   3.816   0.398  13.042  0.5095  0.3919 -0.0810
   45DOPE   H9X 5778   3.769   0.301  13.019 -2.3220  1.4856  0.5426
   45DOPE  C310 5779   3.845   0.419  13.173 -0.5370 -0.6156 -0.4631
   45DOPE  H10X 5780   3.809   0.353  13.254 -0.0029  0.9842  1.1392
   45DOPE  C311 5781   3.873   0.558  13.227 -0.3595  0.2748 -0.5102
   45DOPE  H11X 5782   3.983   0.573  13.213 -0.2540 -0.4356 -0.4790
   45DOPE  H11Y 5783   3.812   0.637  13.179  0.4711  2.2230  1.4650
   45DOPE  C312 5784   3.832   0.576  13.377  0.3447 -0.3799 -0.3783
   45DOPE  H12X 5785   3.723   0.561  13.392 -0.0686  1.6918 -0.9240
   45DOPE  H12Y 5786   3.842   0.678  13.419 -1.0238 -0.9198  1.3604
   45DOPE  C313 5787   3.918   0.492  13.467 -0.1659  1.0395  0.4655
   45DOPE  H13X 5788   3.919   0.389  13.426  0.9923  1.5195 -0.8211
   45DOPE  H13Y 5789   4.020   0.536  13.459 -0.8487  2.7239  0.6071
   45DOPE  C314 5790   3.894   0.480  13.623 -0.0742 -0.6652  0.0201
   45DOPE  H14X 5791   3.964   0.404  13.663 -1.8083 -2.0056  0.6437
   45DOPE  H14Y 5792   3.797   0.429  13.642  0.4221 -2.4534 -1.9005
   45DOPE  C315 5793   3.899   0.610  13.705  0.5891 -0.6080 -0.0126
   45DOPE  H15X 5794   3.819   0.680  13.672  0.7724 -0.7630 -0.8038
   45DOPE  H15Y 5795   3.995   0.657  13.677  0.0356 -0.7754 -2.3790
   45DOPE  C316 5796   3.893   0.596  13.857  0.1516  0.3131  0.4318
   45DOPE  H16X 5797   3.980   0.544  13.901  0.2780 -0.5358 -0.7854
   45DOPE  H16Y 5798   3.792   0.558  13.885  0.1974  0.1351  0.3547
   45DOPE  C317 5799   3.887   0.732  13.932  0.0416 -0.1434 -0.6793
   45DOPE  H17X 5800   3.969   0.799  13.898 -0.3670 -0.4871 -2.4487
   45DOPE  H17Y 5801   3.788   0.778  13.908 -0.8095 -1.6297 -0.1825
   45DOPE  C318 5802   3.895   0.707  14.081  0.4340  0.4069 -0.4163
   45DOPE  H18X 5803   3.997   0.701  14.124 -1.2463 -1.8379  3.8842
   45DOPE  H18Y 5804   3.836   0.772  14.150  2.0598  0.4146  1.0286
   45DOPE  H18Z 5805   3.855   0.605  14.100 -0.6236  0.5420 -1.7446
   46DOPE     N 5806   3.900   5.835  12.456 -0.2172  0.2274 -0.2462
   46DOPE   HN1 5807   3.912   5.773  12.373  3.3290 -0.4418  0.6064
   46DOPE   HN2 5808   3.916   5.764  12.531 -0.8010  0.0991 -0.2365
   46DOPE   HN3 5809   3.800   5.864  12.464  0.3142  1.8405  1.2077
   46DOPE   C12 5810   3.991   5.952  12.458 -0.4143  0.6687  0.0131
   46DOPE  H12A 5811   3.996   5.991  12.561  1.9061  0.3485  0.0798
   46DOPE  H12B 5812   3.941   6.029  12.395  1.0081  0.7013 -1.1377
   46DOPE   C11 5813   4.126   5.911  12.422  0.2741 -0.1293  0.2830
   46DOPE  H11A 5814   4.172   5.845  12.499  0.8691 -0.3498 -0.2487
   46DOPE  H11B 5815   4.194   5.999  12.422  0.5302 -0.2292 -2.7322
   46DOPE     P 5816   4.165   5.885  12.164  0.3157 -0.3184 -0.1839
   46DOPE   O13 5817   4.041   5.896  12.095 -0.2964  0.0238 -0.3412
   46DOPE   O14 5818   4.272   5.812  12.099  0.6558  0.0463 -0.0500
   46DOPE   O11 5819   4.210   6.037  12.204 -0.6550 -0.2078 -0.1756
   46DOPE   O12 5820   4.134   5.825  12.303 -0.0374  0.0850 -0.1038
   46DOPE    C1 5821   4.172   6.139  12.117 -0.5302 -0.6397 -0.1999
   46DOPE    HA 5822   4.132   6.102  12.020  0.9910 -1.0828 -0.6752
   46DOPE    HB 5823   4.263   6.197  12.092 -2.1241  2.1490  0.0213
   46DOPE    C2 5824   4.065   6.226  12.189 -0.0645  0.2562  0.1107
   46DOPE    HS 5825   4.082   6.334  12.170  0.6183  0.7552  3.0288
   46DOPE   O21 5826   4.063   6.208  12.331  0.1279  0.0931 -0.2718
   46DOPE   C21 5827   4.157   6.291  12.388  0.1018  0.3131  0.1131
   46DOPE   O22 5828   4.237   6.367  12.334  0.7725  0.4152  0.0278
   46DOPE   C22 5829   4.139   6.280  12.537 -0.1882 -0.0689 -0.0096
   46DOPE   H2R 5830   4.155   6.174  12.565 -0.7286 -0.4562 -1.1352
   46DOPE   H2S 5831   4.035   6.317  12.551 -0.0011  1.3981 -2.0032
   46DOPE    C3 5832   3.921   6.212  12.141  0.0031  0.6580  0.2632
   46DOPE    HX 5833   3.898   6.106  12.164  1.6496  0.3753  0.7447
   46DOPE    HY 5834   3.907   6.223  12.032  2.3983 -1.7038 -0.3725
   46DOPE   O31 5835   3.841   6.307  12.212  0.4725  0.9017 -0.0390
   46DOPE   C31 5836   3.707   6.286  12.204 -0.5591 -0.4830  0.3145
   46DOPE   O32 5837   3.652   6.207  12.125 -0.4676 -0.3226  0.4517
   46DOPE   C32 5838   3.634   6.378  12.300 -0.1940  0.1565 -0.0662
   46DOPE   H2X 5839   3.687   6.475  12.316 -3.5900  1.6313  3.8179
   46DOPE   H2Y 5840   3.541   6.401  12.245 -0.7063 -0.7684  0.3979
   46DOPE   C23 5841   4.238   6.371  12.604  0.2899  0.5360  0.3250
   46DOPE   H3R 5842   4.188   6.471  12.606  0.3784  0.5692  1.4876
   46DOPE   H3S 5843   4.335   6.389  12.554  0.0264 -1.3990 -0.9952
   46DOPE   C24 5844   4.253   6.338  12.754  0.1393 -0.2111 -0.4358
   46DOPE   H4R 5845   4.333   6.261  12.758  0.1410 -0.1547  1.2257
   46DOPE   H4S 5846   4.157   6.288  12.778 -0.1092  0.0174 -0.9214
   46DOPE   C25 5847   4.288   6.451  12.849  0.0726 -0.2225 -0.0843
   46DOPE   H5R 5848   4.224   6.541  12.836 -0.4303 -0.6321 -0.4923
   46DOPE   H5S 5849   4.385   6.502  12.834  0.3394 -0.2485  1.3621
   46DOPE   C26 5850   4.270   6.418  13.002  0.5362 -0.1875 -0.6072
   46DOPE   H6R 5851   4.185   6.346  13.005 -0.6659  1.2025  1.3840
   46DOPE   H6S 5852   4.224   6.505  13.054 -0.5636  0.0316 -1.8902
   46DOPE   C27 5853   4.393   6.370  13.087  0.2644  0.3524 -0.0061
   46DOPE   H7R 5854   4.455   6.461  13.104  0.1344  0.4996 -0.3122
   46DOPE   H7S 5855   4.447   6.297  13.024 -0.9500  0.6487 -1.4419
   46DOPE   C28 5856   4.356   6.298  13.218  0.3741  0.7377 -0.0264
   46DOPE   H8R 5857   4.303   6.204  13.193  1.6335 -0.6313  2.1665
   46DOPE   H8S 5858   4.299   6.381  13.267 -0.3700 -1.1107  2.4302
   46DOPE   C29 5859   4.473   6.265  13.299 -0.5944 -0.2331  0.6538
   46DOPE   H9R 5860   4.527   6.173  13.271  1.3420  0.8061  0.7952
   46DOPE  C210 5861   4.534   6.336  13.403 -0.0334  0.0649  0.2978
   46DOPE  H10R 5862   4.632   6.298  13.437  0.5509  1.0841 -0.2250
   46DOPE  C211 5863   4.492   6.475  13.456  0.0017 -0.2804  0.0191
   46DOPE  H11R 5864   4.436   6.539  13.385  1.0363 -0.5162 -1.0397
   46DOPE  H11S 5865   4.581   6.541  13.461 -1.0230  1.3290 -1.8121
   46DOPE  C212 5866   4.419   6.454  13.593 -0.5054 -0.1624  0.3827
   46DOPE  H12R 5867   4.327   6.395  13.576  0.3228 -0.8701 -2.0260
   46DOPE  H12S 5868   4.400   6.559  13.626  0.1767  0.4092 -0.9670
   46DOPE  C213 5869   4.513   6.391  13.694  0.6910 -0.2185  0.4441
   46DOPE  H13R 5870   4.607   6.448  13.711 -0.0406  0.4169  2.6662
   46DOPE  H13S 5871   4.551   6.289  13.670  0.8858  0.0097 -0.2408
   46DOPE  C214 5872   4.459   6.368  13.837 -0.2506 -0.0559  0.2804
   46DOPE  H14R 5873   4.364   6.311  13.837  0.2041 -0.8209  0.6553
   46DOPE  H14S 5874   4.453   6.471  13.879  1.7497 -0.3595  1.4534
   46DOPE  C215 5875   4.562   6.290  13.920  0.6298 -0.0638  0.3421
   46DOPE  H15R 5876   4.658   6.345  13.910  0.1934  0.8068  0.8461
   46DOPE  H15S 5877   4.575   6.191  13.872 -1.2772 -0.2964  0.2307
   46DOPE  C216 5878   4.529   6.278  14.069  0.2646 -0.0800  0.2771
   46DOPE  H16R 5879   4.435   6.220  14.083  0.4103  0.1129  2.5396
   46DOPE  H16S 5880   4.514   6.378  14.114  2.6440 -0.5189  2.2962
   46DOPE  C217 5881   4.658   6.227  14.134  0.0929  0.2998  0.0006
   46DOPE  H17R 5882   4.727   6.307  14.102  1.4521 -0.5871  0.6141
   46DOPE  H17S 5883   4.684   6.132  14.083  1.1340  2.1056 -3.0734
   46DOPE  C218 5884   4.643   6.224  14.283  0.5451 -0.3682  0.6370
   46DOPE  H18R 5885   4.741   6.201  14.331  0.0513 -2.7870  0.6287
   46DOPE  H18S 5886   4.588   6.131  14.310 -0.5062 -0.0158 -0.2637
   46DOPE  H18T 5887   4.579   6.304  14.324 -0.6904 -0.2096 -1.4978
   46DOPE   C33 5888   3.601   6.303  12.428 -0.2787 -0.5068 -1.0150
   46DOPE   H3X 5889   3.702   6.280  12.468  0.3302 -0.8132 -2.6192
   46DOPE   H3Y 5890   3.552   6.204  12.419  1.1690 -1.1636 -2.1242
   46DOPE   C34 5891   3.532   6.390  12.535  0.7316 -0.4493  0.0352
   46DOPE   H4X 5892   3.593   6.481  12.555 -0.2414  0.5738 -1.4419
   46DOPE   H4Y 5893   3.439   6.430  12.489  1.1007 -0.4086 -0.6979
   46DOPE   C35 5894   3.495   6.316  12.662  0.2011  0.0178  0.3214
   46DOPE   H5X 5895   3.584   6.263  12.700  0.4092  1.7444  2.4443
   46DOPE   H5Y 5896   3.422   6.235  12.641  1.7048 -1.9574  2.1893
   46DOPE   C36 5897   3.446   6.412  12.771 -0.6730  1.2009  0.3340
   46DOPE   H6X 5898   3.370   6.478  12.725 -2.7010 -1.5970 -0.5771
   46DOPE   H6Y 5899   3.517   6.487  12.813 -0.2109  1.5888 -1.0962
   46DOPE   C37 5900   3.376   6.335  12.882  0.6589  0.7174  0.0358
   46DOPE   H7X 5901   3.313   6.403  12.944  0.7542  0.9159 -0.0819
   46DOPE   H7Y 5902   3.296   6.271  12.841  1.9503  0.5051 -2.3024
   46DOPE   C38 5903   3.479   6.269  12.975 -0.4997  0.7746  0.2795
   46DOPE   H8X 5904   3.544   6.354  13.006  0.0827 -0.6786  3.3321
   46DOPE   H8Y 5905   3.542   6.195  12.920 -1.3294 -1.7703  2.5419
   46DOPE   C39 5906   3.413   6.203  13.092  0.3561  0.2496 -0.5402
   46DOPE   H9X 5907   3.308   6.177  13.073 -0.9641  1.6309  3.6874
   46DOPE  C310 5908   3.444   6.199  13.223 -0.1463  0.3667 -0.0957
   46DOPE  H10X 5909   3.374   6.170  13.303 -1.4542  1.9757 -0.6025
   46DOPE  C311 5910   3.570   6.256  13.286  0.3511 -0.3658  0.3204
   46DOPE  H11X 5911   3.647   6.293  13.215 -1.1543 -2.2444 -2.4687
   46DOPE  H11Y 5912   3.538   6.337  13.354 -1.5419 -0.7726 -0.0225
   46DOPE  C312 5913   3.648   6.138  13.357  0.1978  0.2211 -0.1783
   46DOPE  H12X 5914   3.721   6.085  13.292  2.0991  1.9626  0.4322
   46DOPE  H12Y 5915   3.573   6.058  13.376  1.7133 -1.7977 -2.1558
   46DOPE  C313 5916   3.704   6.174  13.495 -0.0679 -0.2846  0.0932
   46DOPE  H13X 5917   3.800   6.228  13.481  0.6180 -1.4329  0.2463
   46DOPE  H13Y 5918   3.632   6.243  13.544 -2.4112 -2.7309  0.3219
   46DOPE  C314 5919   3.737   6.054  13.582  0.4114  0.1542 -0.0769
   46DOPE  H14X 5920   3.808   5.986  13.531  0.0740  1.6345 -2.7342
   46DOPE  H14Y 5921   3.645   5.992  13.586  0.1790  0.4177 -1.0356
   46DOPE  C315 5922   3.796   6.101  13.726 -0.1059  0.1692  0.4097
   46DOPE  H15X 5923   3.713   6.161  13.770  0.0353  2.3811 -2.0818
   46DOPE  H15Y 5924   3.876   6.176  13.707 -1.4084  1.2793 -1.0538
   46DOPE  C316 5925   3.853   5.983  13.800  0.4491  0.5163 -0.4692
   46DOPE  H16X 5926   3.923   5.918  13.745 -0.3913 -1.7819  1.0428
   46DOPE  H16Y 5927   3.760   5.932  13.834  1.2119 -0.9529 -0.5517
   46DOPE  C317 5928   3.925   6.033  13.926  0.0015 -0.2327  0.5342
   46DOPE  H17X 5929   4.012   6.087  13.883  0.0733  0.4982  1.5526
   46DOPE  H17Y 5930   3.854   6.099  13.980  2.3480  1.3438  1.9099
   46DOPE  C318 5931   3.978   5.923  14.018 -0.2889  0.0273 -0.0707
   46DOPE  H18X 5932   4.037   5.955  14.106 -0.6002  0.2456  0.0578
   46DOPE  H18Y 5933   3.886   5.862  14.033 -0.2474  0.0267  0.1916
   46DOPE  H18Z 5934   4.052   5.866  13.957  1.6508  0.7721  1.4697
   47DOPE     N 5935   1.764   6.122  12.016 -0.5556  0.4257  0.3231
   47DOPE   HN1 5936   1.749   6.214  11.971 -0.0660 -0.0099 -0.7649
   47DOPE   HN2 5937   1.695   6.118  12.094 -1.6980  1.4106 -0.5970
   47DOPE   HN3 5938   1.862   6.118  12.051  0.4362 -2.2837 -2.3639
   47DOPE   C12 5939   1.750   6.002  11.929  0.6890  0.7105 -0.1112
   47DOPE  H12A 5940   1.800   6.020  11.831 -1.4180 -0.8112 -1.5581
   47DOPE  H12B 5941   1.641   6.005  11.910  0.6512  0.0211 -0.0288
   47DOPE   C11 5942   1.822   5.880  12.001  0.1019  0.4819  0.4862
   47DOPE  H11A 5943   1.801   5.786  11.945  0.8684  0.5634  0.0454
   47DOPE  H11B 5944   1.788   5.864  12.106 -0.1185 -1.8073  0.1247
   47DOPE     P 5945   2.054   5.922  12.117 -0.0666  0.3388 -0.0715
   47DOPE   O13 5946   2.196   5.930  12.080 -0.0616  0.5798 -0.1438
   47DOPE   O14 5947   2.031   5.814  12.220  0.2304  0.1523 -0.0117
   47DOPE   O11 5948   1.997   6.058  12.164  0.4953  0.3191  0.2728
   47DOPE   O12 5949   1.961   5.900  11.992  0.5847 -0.2641 -0.5477
   47DOPE    C1 5950   2.077   6.146  12.247  0.3547  0.2024  0.0671
   47DOPE    HA 5951   2.045   6.247  12.214 -5.4463 -1.3781 -0.1340
   47DOPE    HB 5952   2.186   6.141  12.224  0.3819  1.1404 -0.0526
   47DOPE    C2 5953   2.052   6.129  12.399  0.5151 -0.0322 -0.3103
   47DOPE    HS 5954   2.103   6.214  12.450  3.9232 -1.6121 -0.8148
   47DOPE   O21 5955   2.110   6.005  12.442 -0.5645 -0.5001 -0.4246
   47DOPE   C21 5956   2.237   6.011  12.467  0.3312 -0.0638  0.0923
   47DOPE   O22 5957   2.308   6.108  12.476  0.1836  0.4031  0.4483
   47DOPE   C22 5958   2.290   5.867  12.485  0.5919  0.0223  0.0953
   47DOPE   H2R 5959   2.400   5.884  12.476  0.4563  1.6786  1.0146
   47DOPE   H2S 5960   2.249   5.809  12.400 -0.2925  0.7513  0.0182
   47DOPE    C3 5961   1.899   6.130  12.428  0.1910  0.4449  0.4625
   47DOPE    HX 5962   1.849   6.040  12.386  1.6381  1.0118 -2.7747
   47DOPE    HY 5963   1.863   6.207  12.356  1.6924 -0.3205 -1.1864
   47DOPE   O31 5964   1.863   6.159  12.561  0.1902 -0.0791 -0.8272
   47DOPE   C31 5965   1.824   6.054  12.629 -0.3854 -0.3444  0.4591
   47DOPE   O32 5966   1.794   5.945  12.590 -0.1872  0.1934 -0.6798
   47DOPE   C32 5967   1.819   6.101  12.777  0.2500  0.5757 -0.6747
   47DOPE   H2X 5968   1.925   6.134  12.785  0.9678 -1.5507 -0.6831
   47DOPE   H2Y 5969   1.748   6.185  12.788  1.1725  1.4996 -1.5780
   47DOPE   C23 5970   2.229   5.806  12.612  0.1116  0.1670 -0.1964
   47DOPE   H3R 5971   2.267   5.702  12.617 -1.7004 -0.5312 -0.4663
   47DOPE   H3S 5972   2.121   5.786  12.595  0.3576 -0.2761 -1.3445
   47DOPE   C24 5973   2.284   5.878  12.739  0.5432  0.1805 -0.1016
   47DOPE   H4R 5974   2.267   5.983  12.709 -2.7235 -0.7511 -2.1106
   47DOPE   H4S 5975   2.391   5.857  12.762  0.8243  1.9936  0.3965
   47DOPE   C25 5976   2.207   5.850  12.870 -0.1430  0.8811  0.7467
   47DOPE   H5R 5977   2.200   5.740  12.883  1.7088  0.6926  0.4953
   47DOPE   H5S 5978   2.103   5.884  12.855 -0.3719  0.7722  2.0144
   47DOPE   C26 5979   2.267   5.920  12.991  0.2551  0.5232 -0.1552
   47DOPE   H6R 5980   2.257   6.029  12.974 -3.6843  0.2882 -0.2267
   47DOPE   H6S 5981   2.373   5.889  13.001 -0.5478 -2.1085  1.1609
   47DOPE   C27 5982   2.191   5.875  13.110 -0.0264  0.1219 -0.1273
   47DOPE   H7R 5983   2.208   5.766  13.117  1.6763  0.1655 -2.3458
   47DOPE   H7S 5984   2.082   5.887  13.094  0.2326  1.7715 -0.8901
   47DOPE   C28 5985   2.239   5.948  13.239 -0.2313 -0.3726  0.2717
   47DOPE   H8R 5986   2.205   6.054  13.242 -0.8826 -0.4696 -1.8857
   47DOPE   H8S 5987   2.350   5.940  13.250 -0.4132 -1.5324  1.4732
   47DOPE   C29 5988   2.190   5.873  13.360 -0.3096 -0.5686  0.4359
   47DOPE   H9R 5989   2.179   5.764  13.361 -2.1720 -0.4192  1.7541
   47DOPE  C210 5990   2.142   5.923  13.477  0.5307 -1.0950  0.0520
   47DOPE  H10R 5991   2.098   5.857  13.554  0.7629  0.5868  1.7159
   47DOPE  C211 5992   2.155   6.064  13.516 -0.0527 -0.1764  0.5561
   47DOPE  H11R 5993   2.205   6.124  13.437  1.7228 -1.2178  0.8368
   47DOPE  H11S 5994   2.216   6.061  13.609 -0.2803 -1.6580  0.6861
   47DOPE  C212 5995   2.025   6.134  13.560  0.1541 -0.5883  0.2336
   47DOPE  H12R 5996   1.955   6.143  13.475 -1.1887 -0.7222  1.2931
   47DOPE  H12S 5997   2.036   6.242  13.585 -1.5231 -0.6934  1.6253
   47DOPE  C213 5998   1.961   6.077  13.688 -0.5692  0.3466  0.0457
   47DOPE  H13R 5999   1.947   5.967  13.680  0.5906  0.1999 -0.0173
   47DOPE  H13S 6000   1.857   6.114  13.702 -1.1422 -1.8637  2.4376
   47DOPE  C214 6001   2.029   6.108  13.823 -1.0055  0.1707  0.6106
   47DOPE  H14R 6002   2.037   6.218  13.834  0.4997  0.1652 -0.2323
   47DOPE  H14S 6003   2.129   6.061  13.828 -1.5772 -1.0634  0.8079
   47DOPE  C215 6004   1.964   6.045  13.955 -0.0282  0.1964  0.6527
   47DOPE  H15R 6005   1.963   5.934  13.947 -0.6569  0.1944  0.7153
   47DOPE  H15S 6006   1.858   6.072  13.940 -0.1100 -0.6928 -0.6025
   47DOPE  C216 6007   2.033   6.068  14.089  0.6491  0.1158 -0.0444
   47DOPE  H16R 6008   2.043   6.175  14.118  0.7084  0.1857 -0.3222
   47DOPE  H16S 6009   2.138   6.031  14.082  0.8866  0.7765 -0.1079
   47DOPE  C217 6010   1.961   5.989  14.203 -0.3610 -0.1887  0.1250
   47DOPE  H17R 6011   1.969   5.880  14.183 -1.2306 -0.3346  0.5414
   47DOPE  H17S 6012   1.853   6.016  14.209 -0.6587 -1.6218  2.1355
   47DOPE  C218 6013   2.027   6.014  14.343 -0.1180 -0.1219  0.4635
   47DOPE  H18R 6014   1.995   6.117  14.371 -1.1985  0.0512 -1.2241
   47DOPE  H18S 6015   2.137   6.022  14.335 -0.0552  0.1952  1.5113
   47DOPE  H18T 6016   2.002   5.940  14.422 -1.9007  0.1863  0.2393
   47DOPE   C33 6017   1.776   5.981  12.876 -0.2061 -0.6637  0.5441
   47DOPE   H3X 6018   1.840   5.895  12.846 -0.8855 -0.7504 -0.7400
   47DOPE   H3Y 6019   1.668   5.958  12.862 -0.1010 -0.4602 -0.6951
   47DOPE   C34 6020   1.791   6.018  13.021  0.3784  0.2997  0.0963
   47DOPE   H4X 6021   1.893   6.017  13.065 -1.0131  0.7064  3.6574
   47DOPE   H4Y 6022   1.763   6.125  13.037 -1.7051 -0.1555 -0.2671
   47DOPE   C35 6023   1.711   5.933  13.128 -0.3110  0.1873  0.4951
   47DOPE   H5X 6024   1.741   5.826  13.120 -2.1407 -0.5053  2.1083
   47DOPE   H5Y 6025   1.602   5.946  13.106 -0.9464  0.3442  3.4095
   47DOPE   C36 6026   1.733   5.983  13.272 -0.1931 -0.0686  0.6809
   47DOPE   H6X 6027   1.691   6.083  13.295 -0.7090 -0.2270  0.4559
   47DOPE   H6Y 6028   1.842   5.981  13.290  0.1576 -1.1060 -1.2487
   47DOPE   C37 6029   1.662   5.885  13.372  0.7361 -0.2292  0.4505
   47DOPE   H7X 6030   1.553   5.902  13.354  0.6657  0.6417  1.6062
   47DOPE   H7Y 6031   1.693   5.780  13.355 -0.5314 -0.4779 -0.5274
   47DOPE   C38 6032   1.698   5.913  13.520 -0.5199 -0.7610 -0.2866
   47DOPE   H8X 6033   1.684   6.018  13.552  2.4083 -1.0722  2.4364
   47DOPE   H8Y 6034   1.802   5.877  13.535 -1.5215 -3.8292 -0.0008
   47DOPE   C39 6035   1.602   5.823  13.588  0.0596  0.2874 -0.2894
   47DOPE   H9X 6036   1.590   5.723  13.544  2.1645 -0.5838  0.9723
   47DOPE  C310 6037   1.539   5.838  13.705 -0.3616  0.0038  0.1539
   47DOPE  H10X 6038   1.461   5.765  13.731  0.5752 -1.8076 -1.8195
   47DOPE  C311 6039   1.564   5.950  13.804 -0.4090 -0.0204  0.1785
   47DOPE  H11X 6040   1.636   6.026  13.769 -0.0376  0.7585  2.4322
   47DOPE  H11Y 6041   1.468   6.005  13.815  0.4208  1.7850 -1.2621
   47DOPE  C312 6042   1.616   5.896  13.939  0.2688  0.2007 -0.1667
   47DOPE  H12X 6043   1.650   5.985  13.995 -0.0391  1.2813 -1.6484
   47DOPE  H12Y 6044   1.708   5.834  13.936 -0.3177 -0.6777 -0.8499
   47DOPE  C313 6045   1.520   5.823  14.034  0.2040  0.1023 -0.5197
   47DOPE  H13X 6046   1.430   5.887  14.050 -1.1032 -2.2001  2.2770
   47DOPE  H13Y 6047   1.484   5.725  13.996  0.1764 -0.2349  0.3587
   47DOPE  C314 6048   1.565   5.802  14.178 -0.4106  0.3322 -0.3850
   47DOPE  H14X 6049   1.591   5.900  14.223 -1.3668  0.9098 -1.0323
   47DOPE  H14Y 6050   1.658   5.742  14.179 -0.6050  0.0028 -1.2838
   47DOPE  C315 6051   1.460   5.742  14.274 -0.1446  0.0057 -0.1598
   47DOPE  H15X 6052   1.449   5.637  14.239  0.1378  0.0393 -0.3499
   47DOPE  H15Y 6053   1.362   5.782  14.242 -1.4677 -1.7288  1.4676
   47DOPE  C316 6054   1.494   5.776  14.419  0.1984 -0.0585 -0.8669
   47DOPE  H16X 6055   1.471   5.881  14.444 -0.0205 -0.4893  0.9205
   47DOPE  H16Y 6056   1.597   5.748  14.449  0.2564  0.2328 -0.7997
   47DOPE  C317 6057   1.403   5.713  14.531 -0.3997  0.1623 -0.1897
   47DOPE  H17X 6058   1.433   5.762  14.627 -0.3487  0.1816 -0.2149
   47DOPE  H17Y 6059   1.297   5.740  14.512 -0.3173  1.3663  0.9293
   47DOPE  C318 6060   1.415   5.558  14.556 -0.5280 -0.7289  0.6859
   47DOPE  H18X 6061   1.386   5.502  14.464  0.2679  0.8926 -0.6080
   47DOPE  H18Y 6062   1.522   5.532  14.570 -0.4594 -1.4281 -0.9271
   47DOPE  H18Z 6063   1.354   5.524  14.642 -1.5839  1.0100  0.6682
   48DOPE     N 6064   6.781   3.882  11.743 -0.2810  0.6205 -0.4799
   48DOPE   HN1 6065   6.800   3.983  11.761 -0.3288  0.6177 -0.4102
   48DOPE   HN2 6066   6.796   3.860  11.642 -2.0956 -0.6642 -0.5225
   48DOPE   HN3 6067   6.679   3.869  11.761 -0.7284 -0.1824 -3.1676
   48DOPE   C12 6068   6.863   3.781  11.811 -0.2288  0.0090  0.4518
   48DOPE  H12A 6069   6.831   3.770  11.917  0.8840  1.0103  0.9186
   48DOPE  H12B 6070   6.967   3.821  11.802  0.5460 -2.2385 -1.4899
   48DOPE   C11 6071   6.857   3.652  11.733 -0.2869 -0.0391  0.5233
   48DOPE  H11A 6072   6.921   3.578  11.784  0.0370 -1.4451 -1.7793
   48DOPE  H11B 6073   6.892   3.665  11.628  0.4410 -0.8931  0.6513
   48DOPE     P 6074   6.672   3.493  11.625  0.1076  0.1141  0.1847
   48DOPE   O13 6075   6.752   3.374  11.623  0.1017  0.1439  0.6219
   48DOPE   O14 6076   6.647   3.559  11.489 -0.6279 -0.6767 -0.6050
   48DOPE   O11 6077   6.530   3.461  11.698  0.0980  0.2521  0.8635
   48DOPE   O12 6078   6.724   3.603  11.727 -0.6339  0.2415  0.0768
   48DOPE    C1 6079   6.501   3.361  11.793  0.5872 -0.0482 -0.9325
   48DOPE    HA 6080   6.575   3.278  11.787 -0.6688 -1.3778  0.7938
   48DOPE    HB 6081   6.402   3.316  11.768 -0.6663  2.1118 -0.1706
   48DOPE    C2 6082   6.486   3.413  11.937 -0.6274 -0.0577 -0.6570
   48DOPE    HS 6083   6.436   3.512  11.937  1.5450  1.3362  4.1081
   48DOPE   O21 6084   6.622   3.422  11.990  0.1671 -0.5330  0.2473
   48DOPE   C21 6085   6.658   3.535  12.042 -1.1920  0.0505 -0.1068
   48DOPE   O22 6086   6.591   3.638  12.057  0.5817 -0.6296 -0.2745
   48DOPE   C22 6087   6.810   3.509  12.083  0.1205  0.2608 -0.7856
   48DOPE   H2R 6088   6.859   3.533  11.986 -1.3584 -0.0116 -1.6245
   48DOPE   H2S 6089   6.819   3.402  12.110  0.8690  0.5033 -0.0083
   48DOPE    C3 6090   6.404   3.320  12.033 -0.7818 -0.2100 -0.3372
   48DOPE    HX 6091   6.456   3.221  12.029 -1.6733 -0.6503 -1.6413
   48DOPE    HY 6092   6.299   3.311  11.997 -0.3475  1.3041 -2.1506
   48DOPE   O31 6093   6.387   3.361  12.170 -0.1848 -0.5375 -0.0061
   48DOPE   C31 6094   6.361   3.259  12.260  0.5268  0.3911 -0.6794
   48DOPE   O32 6095   6.345   3.142  12.231  0.0685  0.4918 -0.1869
   48DOPE   C32 6096   6.368   3.314  12.404  0.3384  0.3891 -0.3815
   48DOPE   H2X 6097   6.474   3.343  12.423  0.4673  1.0820 -1.9468
   48DOPE   H2Y 6098   6.303   3.404  12.400 -1.5307 -0.9239 -0.4824
   48DOPE   C23 6099   6.863   3.589  12.209 -0.1070  0.1208  0.7510
   48DOPE   H3R 6100   6.891   3.690  12.174  0.6534  0.2047  1.5783
   48DOPE   H3S 6101   6.964   3.547  12.230  0.5390  0.1641 -1.9224
   48DOPE   C24 6102   6.764   3.587  12.333 -0.6787  0.4813  0.1050
   48DOPE   H4R 6103   6.705   3.494  12.318 -1.0868  0.4388  1.8569
   48DOPE   H4S 6104   6.703   3.680  12.334 -2.1638 -0.3025 -3.1310
   48DOPE   C25 6105   6.836   3.565  12.468 -0.6068 -0.4873  0.3499
   48DOPE   H5R 6106   6.907   3.645  12.498  1.4193 -2.6114  1.6049
   48DOPE   H5S 6107   6.893   3.470  12.455  0.1007  0.0696 -0.7774
   48DOPE   C26 6108   6.738   3.528  12.576 -0.3175  0.3397  0.4864
   48DOPE   H6R 6109   6.652   3.472  12.533  1.1444  0.4136 -2.9134
   48DOPE   H6S 6110   6.693   3.624  12.611  0.3168  0.4926  0.8951
   48DOPE   C27 6111   6.817   3.466  12.692  0.6783  0.3132  1.1221
   48DOPE   H7R 6112   6.919   3.510  12.694  0.9663 -0.2865  0.0977
   48DOPE   H7S 6113   6.832   3.359  12.668  3.3295  0.8110  0.1988
   48DOPE   C28 6114   6.738   3.460  12.825 -0.3959 -0.4131  0.1415
   48DOPE   H8R 6115   6.774   3.369  12.878 -0.9895 -0.2488  0.8511
   48DOPE   H8S 6116   6.631   3.438  12.805 -0.2503 -2.2197  1.1177
   48DOPE   C29 6117   6.754   3.594  12.901 -0.2319  0.1367  0.7351
   48DOPE   H9R 6118   6.753   3.683  12.836 -2.2509 -1.5257 -1.7165
   48DOPE  C210 6119   6.784   3.611  13.030  0.8961  0.1325  0.5806
   48DOPE  H10R 6120   6.807   3.716  13.054 -1.9901  0.8753  0.4700
   48DOPE  C211 6121   6.804   3.508  13.140  0.1361 -0.5709  0.6924
   48DOPE  H11R 6122   6.912   3.515  13.168  0.0008 -0.5208  1.2080
   48DOPE  H11S 6123   6.792   3.405  13.102 -0.0523 -0.1746 -0.3743
   48DOPE  C212 6124   6.720   3.515  13.267  0.4318 -0.1830 -0.1174
   48DOPE  H12R 6125   6.609   3.516  13.263  0.4410  1.5651 -0.8250
   48DOPE  H12S 6126   6.742   3.608  13.324  0.0930  1.2186 -2.1371
   48DOPE  C213 6127   6.751   3.403  13.368  0.1724 -0.0380 -0.1210
   48DOPE  H13R 6128   6.860   3.392  13.383  0.1616  1.1163  1.0470
   48DOPE  H13S 6129   6.716   3.313  13.313 -1.1626  0.3953 -0.0365
   48DOPE  C214 6130   6.678   3.417  13.508 -0.0363  0.9190  0.7320
   48DOPE  H14R 6131   6.578   3.373  13.490  0.1012  1.7026 -2.5243
   48DOPE  H14S 6132   6.670   3.525  13.535  0.2049  1.1782 -0.2243
   48DOPE  C215 6133   6.758   3.353  13.618 -1.0145 -0.1763  0.1256
   48DOPE  H15R 6134   6.853   3.409  13.630  0.3279 -2.3114  0.1899
   48DOPE  H15S 6135   6.789   3.251  13.585  0.3013 -1.0993  3.7633
   48DOPE  C216 6136   6.694   3.338  13.756  0.8929 -0.4699  0.5382
   48DOPE  H16R 6137   6.769   3.312  13.834  1.0678  0.9549  0.8776
   48DOPE  H16S 6138   6.621   3.254  13.752  0.0429  0.3117 -1.7878
   48DOPE  C217 6139   6.623   3.461  13.812 -0.0011  0.2128 -0.7568
   48DOPE  H17R 6140   6.534   3.484  13.750  0.4367  1.3970 -0.9688
   48DOPE  H17S 6141   6.683   3.554  13.802  1.3195 -0.4176  0.8145
   48DOPE  C218 6142   6.571   3.454  13.959 -0.2567  0.6208  0.0912
   48DOPE  H18R 6143   6.519   3.545  13.996 -1.7718 -0.6000  1.0879
   48DOPE  H18S 6144   6.659   3.431  14.022  0.4259  1.7784 -0.4111
   48DOPE  H18T 6145   6.504   3.367  13.974  1.0235 -0.3250  0.4755
   48DOPE   C33 6146   6.334   3.220  12.525 -0.1988 -0.2318 -1.1445
   48DOPE   H3X 6147   6.373   3.116  12.517 -1.7450 -0.8300 -1.3912
   48DOPE   H3Y 6148   6.226   3.200  12.509 -0.7647  1.4317  0.2945
   48DOPE   C34 6149   6.365   3.281  12.666  0.0981 -0.5001  0.5643
   48DOPE   H4X 6150   6.462   3.335  12.669 -0.1854  0.0035  0.7700
   48DOPE   H4Y 6151   6.296   3.359  12.704 -0.7774 -0.6876 -0.5747
   48DOPE   C35 6152   6.381   3.172  12.771  0.1439  0.2001 -0.5543
   48DOPE   H5X 6153   6.460   3.096  12.752 -1.0817 -1.0631 -0.7203
   48DOPE   H5Y 6154   6.284   3.119  12.766  1.6621 -2.7674 -1.2369
   48DOPE   C36 6155   6.398   3.230  12.911 -0.0148  0.6142  0.3773
   48DOPE   H6X 6156   6.303   3.277  12.945  0.1307 -1.0043  3.3570
   48DOPE   H6Y 6157   6.476   3.309  12.908 -1.3397  1.9628  0.3487
   48DOPE   C37 6158   6.442   3.117  13.012 -0.3000 -0.4092  0.9873
   48DOPE   H7X 6159   6.353   3.050  13.023 -1.9170  1.6468  0.9722
   48DOPE   H7Y 6160   6.518   3.060  12.953  0.3812 -0.9200  2.3190
   48DOPE   C38 6161   6.485   3.165  13.145  0.2216  0.7485 -0.2192
   48DOPE   H8X 6162   6.581   3.222  13.146  0.5060  0.7866  6.0441
   48DOPE   H8Y 6163   6.492   3.078  13.213 -0.4465  0.9355  0.0984
   48DOPE   C39 6164   6.382   3.251  13.212  0.3369  0.5459  0.0424
   48DOPE   H9X 6165   6.353   3.344  13.161 -1.9280  1.2483  2.3933
   48DOPE  C310 6166   6.327   3.223  13.339  0.0692  0.4007 -0.3778
   48DOPE  H10X 6167   6.251   3.294  13.376 -0.0337  0.0546  0.0815
   48DOPE  C311 6168   6.356   3.111  13.441 -0.4349 -0.2257  0.3044
   48DOPE  H11X 6169   6.450   3.061  13.409 -0.6989 -2.2550  2.4428
   48DOPE  H11Y 6170   6.390   3.142  13.542  1.6614  0.8464 -0.6525
   48DOPE  C312 6171   6.239   3.020  13.466 -0.3072  0.3338 -0.7905
   48DOPE  H12X 6172   6.286   2.942  13.530  0.5058 -1.4124 -3.3396
   48DOPE  H12Y 6173   6.187   2.985  13.375 -0.8508  0.7786 -0.6563
   48DOPE  C313 6174   6.124   3.077  13.549 -0.2721 -0.7707  0.1397
   48DOPE  H13X 6175   6.166   3.121  13.642 -2.2102  0.7710  0.3563
   48DOPE  H13Y 6176   6.084   3.163  13.491 -0.7431 -1.3192 -0.3488
   48DOPE  C314 6177   6.017   2.977  13.578 -0.1860  0.4231 -0.3529
   48DOPE  H14X 6178   6.008   2.923  13.481 -2.5945 -0.1621  0.1288
   48DOPE  H14Y 6179   5.918   3.026  13.592 -0.0943  1.0440 -1.6737
   48DOPE  C315 6180   6.051   2.873  13.690 -1.2904  0.7428  0.3886
   48DOPE  H15X 6181   6.062   2.933  13.783 -0.0445  1.5074 -0.2285
   48DOPE  H15Y 6182   6.150   2.832  13.662 -1.0962  2.2163 -1.2050
   48DOPE  C316 6183   5.959   2.754  13.699 -0.5981  0.2724 -0.3317
   48DOPE  H16X 6184   5.954   2.712  13.596  0.7436 -0.1589 -0.2360
   48DOPE  H16Y 6185   5.856   2.783  13.729 -0.2727  1.4240 -0.2813
   48DOPE  C317 6186   6.023   2.647  13.781  0.7478 -0.1923 -0.1474
   48DOPE  H17X 6187   5.955   2.559  13.787 -0.2345  0.6405  1.4869
   48DOPE  H17Y 6188   6.121   2.610  13.744  1.1258  1.8351 -1.3427
   48DOPE  C318 6189   6.038   2.692  13.925  0.1593 -0.1540 -0.5219
   48DOPE  H18X 6190   6.107   2.777  13.941  0.3328 -0.2603 -0.7021
   48DOPE  H18Y 6191   5.936   2.700  13.970 -0.1852 -0.3747 -1.2551
   48DOPE  H18Z 6192   6.079   2.604  13.980 -0.5348  1.5079  2.9373
   49DOPE     N 6193   1.327   5.053  12.126  0.8355 -0.2641  0.0531
   49DOPE   HN1 6194   1.316   4.974  12.192  2.8307 -1.2645 -0.7213
   49DOPE   HN2 6195   1.229   5.079  12.104  0.8831 -1.4887 -1.8686
   49DOPE   HN3 6196   1.370   5.023  12.036  1.8889 -1.1123  0.8217
   49DOPE   C12 6197   1.401   5.162  12.186  0.2939 -0.6588  0.1533
   49DOPE  H12A 6198   1.361   5.181  12.288 -1.0759 -1.4555 -0.2068
   49DOPE  H12B 6199   1.386   5.252  12.123  0.6943  0.5416  1.7242
   49DOPE   C11 6200   1.546   5.122  12.195  0.2695 -0.4000 -0.1157
   49DOPE  H11A 6201   1.550   5.015  12.226 -0.6843 -1.4772 -3.3021
   49DOPE  H11B 6202   1.604   5.179  12.271 -1.5053 -0.5482  1.4244
   49DOPE     P 6203   1.707   5.251  12.037  0.1197 -0.2951  0.0358
   49DOPE   O13 6204   1.717   5.275  11.893  0.5347 -0.0318  0.1892
   49DOPE   O14 6205   1.838   5.231  12.108 -0.1530  0.2210  0.1119
   49DOPE   O11 6206   1.629   5.361  12.103 -0.4334 -0.9539  0.2053
   49DOPE   O12 6207   1.617   5.130  12.069  0.2416  0.3954  0.0478
   49DOPE    C1 6208   1.697   5.453  12.190  0.2956 -0.5081 -0.5001
   49DOPE    HA 6209   1.728   5.544  12.135 -0.8314  1.0221  1.2951
   49DOPE    HB 6210   1.781   5.415  12.251 -0.6515  1.7421  2.4239
   49DOPE    C2 6211   1.599   5.512  12.305  0.4859  0.5479 -0.1344
   49DOPE    HS 6212   1.651   5.593  12.360 -0.6301  0.5338  0.9579
   49DOPE   O21 6213   1.565   5.405  12.400 -0.0520 -0.1283 -0.0541
   49DOPE   C21 6214   1.538   5.434  12.526 -0.1863 -0.6678  0.5502
   49DOPE   O22 6215   1.512   5.550  12.565  0.1879  0.0911  0.3882
   49DOPE   C22 6216   1.537   5.299  12.603 -0.0894 -0.2361 -0.2932
   49DOPE   H2R 6217   1.595   5.224  12.546  0.2851 -0.9054  0.9457
   49DOPE   H2S 6218   1.433   5.260  12.606 -0.0554 -0.4098 -1.0967
   49DOPE    C3 6219   1.466   5.566  12.231 -0.4618  1.2867 -0.1097
   49DOPE    HX 6220   1.417   5.477  12.185  4.0228 -0.9551 -1.1577
   49DOPE    HY 6221   1.503   5.629  12.148  0.3065 -1.1497 -1.7221
   49DOPE   O31 6222   1.382   5.630  12.324  0.1486 -0.4058 -1.0609
   49DOPE   C31 6223   1.414   5.757  12.343 -0.0114  0.0542  0.1202
   49DOPE   O32 6224   1.493   5.822  12.279 -0.7656 -0.1792  0.2438
   49DOPE   C32 6225   1.333   5.819  12.461 -0.3597 -0.5748  0.3264
   49DOPE   H2X 6226   1.228   5.822  12.427 -0.0753 -1.3354 -0.6942
   49DOPE   H2Y 6227   1.340   5.742  12.541 -0.7607 -0.3669  0.5632
   49DOPE   C23 6228   1.603   5.323  12.741  0.3294 -0.0595  0.0538
   49DOPE   H3R 6229   1.696   5.383  12.731  0.5757 -0.6515 -1.4885
   49DOPE   H3S 6230   1.643   5.227  12.780  3.8050  1.8920  1.8008
   49DOPE   C24 6231   1.501   5.377  12.837  0.0180 -0.4122 -0.5956
   49DOPE   H4R 6232   1.432   5.293  12.859 -0.3865  0.0315 -0.1198
   49DOPE   H4S 6233   1.438   5.457  12.792 -0.5312 -0.8018 -0.5378
   49DOPE   C25 6234   1.572   5.420  12.966  0.0669 -0.4373  0.3914
   49DOPE   H5R 6235   1.624   5.518  12.959 -2.0192  0.8885  1.8726
   49DOPE   H5S 6236   1.656   5.353  12.996  1.7343  1.3861  0.0190
   49DOPE   C26 6237   1.476   5.439  13.086  0.3225 -0.1257  0.0329
   49DOPE   H6R 6238   1.441   5.337  13.111  0.5521 -0.1102  0.4328
   49DOPE   H6S 6239   1.387   5.496  13.052 -0.3776 -2.0130 -1.4883
   49DOPE   C27 6240   1.546   5.507  13.207  0.9573 -0.2939  0.1285
   49DOPE   H7R 6241   1.583   5.608  13.182 -1.2801  0.5455 -0.0172
   49DOPE   H7S 6242   1.636   5.445  13.227  1.8654 -0.5475 -3.7955
   49DOPE   C28 6243   1.439   5.507  13.322  0.0529  0.3990 -0.1691
   49DOPE   H8R 6244   1.344   5.554  13.289  0.2833  0.3923 -0.8563
   49DOPE   H8S 6245   1.478   5.582  13.394  1.6514 -0.6311  0.1050
   49DOPE   C29 6246   1.431   5.371  13.384 -0.2574  0.0412 -0.5668
   49DOPE   H9R 6247   1.409   5.290  13.313 -1.1376  0.4412 -0.7660
   49DOPE  C210 6248   1.422   5.344  13.515  0.0943  0.5324 -0.5628
   49DOPE  H10R 6249   1.411   5.240  13.549 -2.3100  1.3713  1.5683
   49DOPE  C211 6250   1.424   5.443  13.630  0.4837 -0.2297 -0.8128
   49DOPE  H11R 6251   1.471   5.537  13.593  0.3296 -0.9462 -2.9784
   49DOPE  H11S 6252   1.488   5.400  13.710 -0.2841 -0.7262 -0.4536
   49DOPE  C212 6253   1.282   5.467  13.695  0.3676 -0.0327  0.0392
   49DOPE  H12R 6254   1.214   5.514  13.620 -2.3328  1.7645  3.3566
   49DOPE  H12S 6255   1.299   5.547  13.770  0.9152  0.6720 -0.8146
   49DOPE  C213 6256   1.222   5.355  13.772 -0.3057  0.4746  0.6157
   49DOPE  H13R 6257   1.288   5.327  13.857 -1.0644 -1.6643  0.5453
   49DOPE  H13S 6258   1.220   5.273  13.697  0.9751 -1.0587  2.1906
   49DOPE  C214 6259   1.080   5.375  13.824  0.0271 -0.1544  0.2355
   49DOPE  H14R 6260   1.064   5.467  13.883  1.6232 -0.3103  0.9706
   49DOPE  H14S 6261   1.050   5.292  13.892 -0.5776 -1.5618 -1.6671
   49DOPE  C215 6262   0.963   5.386  13.722 -0.2177 -0.8224 -0.0847
   49DOPE  H15R 6263   0.956   5.282  13.683  3.0338 -0.5124 -1.9049
   49DOPE  H15S 6264   0.997   5.463  13.649 -0.9009  0.8779  1.3200
   49DOPE  C216 6265   0.840   5.443  13.796  0.1851  0.1762  0.4427
   49DOPE  H16R 6266   0.845   5.554  13.799  0.4475  0.2850 -2.2230
   49DOPE  H16S 6267   0.836   5.407  13.901  0.1355 -1.7036 -0.1684
   49DOPE  C217 6268   0.702   5.408  13.726  0.6098  0.3382  0.3992
   49DOPE  H17R 6269   0.725   5.312  13.674  0.0903  0.4675 -0.0725
   49DOPE  H17S 6270   0.685   5.477  13.641  1.3565 -0.8421 -0.7550
   49DOPE  C218 6271   0.579   5.415  13.819  0.1071 -0.1207 -0.1949
   49DOPE  H18R 6272   0.564   5.314  13.864 -0.5815 -1.4700 -3.1946
   49DOPE  H18S 6273   0.489   5.456  13.769  0.5889  0.8663 -0.2799
   49DOPE  H18T 6274   0.601   5.474  13.910  1.3901 -0.8386 -0.0181
   49DOPE   C33 6275   1.401   5.946  12.510  0.3651 -0.6118 -0.1721
   49DOPE   H3X 6276   1.383   6.037  12.449 -0.5103 -0.3929  0.3953
   49DOPE   H3Y 6277   1.508   5.918  12.514  0.2346 -0.9802  1.1146
   49DOPE   C34 6278   1.348   5.979  12.646  0.3979  0.2477 -0.0936
   49DOPE   H4X 6279   1.400   6.066  12.690  0.7736 -0.9572  1.9792
   49DOPE   H4Y 6280   1.238   5.999  12.644  0.5939  1.3610 -0.2583
   49DOPE   C35 6281   1.363   5.873  12.758 -0.0454  0.3947  0.5560
   49DOPE   H5X 6282   1.459   5.817  12.763 -0.2547  0.0674  0.9643
   49DOPE   H5Y 6283   1.283   5.801  12.729  0.0741  0.3462  0.3530
   49DOPE   C36 6284   1.313   5.923  12.895  0.0342 -0.1010  0.0756
   49DOPE   H6X 6285   1.216   5.976  12.888  0.8445  1.2648 -1.8235
   49DOPE   H6Y 6286   1.394   5.986  12.938 -1.1953  0.3633  1.8162
   49DOPE   C37 6287   1.293   5.803  12.995  0.1653 -0.0675  0.5539
   49DOPE   H7X 6288   1.203   5.749  12.958  0.8760 -1.0029  0.1422
   49DOPE   H7Y 6289   1.383   5.738  12.983 -0.3898 -0.7805  0.1788
   49DOPE   C38 6290   1.292   5.867  13.134  0.2103  0.4614 -0.3216
   49DOPE   H8X 6291   1.358   5.956  13.132 -1.4434  1.7748  0.9173
   49DOPE   H8Y 6292   1.338   5.801  13.211  1.8079  0.6606 -1.0642
   49DOPE   C39 6293   1.148   5.905  13.164 -0.3301 -0.0200  0.5624
   49DOPE   H9X 6294   1.108   5.959  13.078 -1.6167 -1.5625  0.1489
   49DOPE  C310 6295   1.085   5.905  13.281  0.3639  0.2686  0.3889
   49DOPE  H10X 6296   0.985   5.949  13.277  0.4816  0.5089 -0.1283
   49DOPE  C311 6297   1.148   5.852  13.411  0.3883 -0.8129 -0.5420
   49DOPE  H11X 6298   1.138   5.741  13.400  0.3197 -0.7267 -1.4379
   49DOPE  H11Y 6299   1.250   5.884  13.437 -0.1263  0.2686  0.2083
   49DOPE  C312 6300   1.041   5.883  13.521 -0.4714 -0.5312  0.2090
   49DOPE  H12X 6301   0.938   5.853  13.493  0.4846 -2.4475 -1.5829
   49DOPE  H12Y 6302   1.053   5.993  13.529 -1.3259 -0.4968  1.1109
   49DOPE  C313 6303   1.084   5.822  13.655  0.0380  0.3885 -0.4764
   49DOPE  H13X 6304   1.089   5.712  13.651  2.1269  0.3570  1.2347
   49DOPE  H13Y 6305   1.182   5.862  13.688  0.1138 -1.1530  1.3079
   49DOPE  C314 6306   1.007   5.871  13.780  0.2486  0.1954 -0.3421
   49DOPE  H14X 6307   0.900   5.848  13.760  0.7335 -1.1520 -1.5288
   49DOPE  H14Y 6308   1.010   5.981  13.794  1.5957  0.0398  0.8920
   49DOPE  C315 6309   1.055   5.795  13.915  0.3331 -0.1141 -0.0185
   49DOPE  H15X 6310   1.158   5.830  13.936  0.6703 -0.3826 -1.1769
   49DOPE  H15Y 6311   1.062   5.688  13.885 -1.0706 -0.0961 -0.5055
   49DOPE  C316 6312   0.958   5.812  14.037  0.3422  0.1799 -0.0155
   49DOPE  H16X 6313   0.858   5.782  14.000 -0.3576  4.0078 -1.6851
   49DOPE  H16Y 6314   0.949   5.919  14.064 -2.8078  0.2775 -1.0203
   49DOPE  C317 6315   1.002   5.735  14.163  0.2344  0.4090 -0.4947
   49DOPE  H17X 6316   1.023   5.627  14.145 -1.2350 -0.5047  2.6154
   49DOPE  H17Y 6317   1.097   5.781  14.197  0.4651 -0.7828  0.5489
   49DOPE  C318 6318   0.916   5.740  14.285 -0.0030 -0.0650  0.5388
   49DOPE  H18X 6319   0.809   5.711  14.275 -0.1259  0.0225  1.4572
   49DOPE  H18Y 6320   0.941   5.666  14.364 -1.8973 -1.6110 -0.2168
   49DOPE  H18Z 6321   0.911   5.842  14.328  1.2922  0.2748 -0.0884
   50DOPE     N 6322   2.835   4.367  12.297  0.1665  0.4133  0.1622
   50DOPE   HN1 6323   2.756   4.311  12.336  0.2960  1.2513  1.6833
   50DOPE   HN2 6324   2.802   4.465  12.291 -3.1164 -0.5215  0.9193
   50DOPE   HN3 6325   2.856   4.334  12.200 -2.0580 -0.5353 -0.0604
   50DOPE   C12 6326   2.937   4.355  12.407 -0.4834 -0.1815  0.4344
   50DOPE  H12A 6327   2.998   4.447  12.408  0.1165 -0.5750  0.8381
   50DOPE  H12B 6328   2.996   4.265  12.379  0.0871 -0.0650  1.2310
   50DOPE   C11 6329   2.871   4.341  12.549  0.1115  0.1655 -0.0242
   50DOPE  H11A 6330   2.805   4.431  12.547  0.9686  0.8002 -0.2351
   50DOPE  H11B 6331   2.940   4.352  12.636  1.2293 -1.0894 -0.7282
   50DOPE     P 6332   2.826   4.108  12.655 -0.0309 -0.2531 -0.0775
   50DOPE   O13 6333   2.969   4.118  12.684  0.3472  0.1695  0.3646
   50DOPE   O14 6334   2.779   3.981  12.595 -0.1627  0.2143 -0.4729
   50DOPE   O11 6335   2.750   4.139  12.788 -0.0773  0.5137 -0.4347
   50DOPE   O12 6336   2.782   4.231  12.563 -0.0027 -0.1335 -0.1706
   50DOPE    C1 6337   2.629   4.212  12.801 -1.1754  0.2468 -0.0265
   50DOPE    HA 6338   2.561   4.200  12.714  0.9534 -1.8513 -1.4965
   50DOPE    HB 6339   2.649   4.321  12.802 -2.2659  0.4821 -1.1238
   50DOPE    C2 6340   2.562   4.157  12.932 -0.4070  0.5938 -0.1208
   50DOPE    HS 6341   2.585   4.049  12.927 -0.0063  0.7163 -2.5879
   50DOPE   O21 6342   2.421   4.190  12.932 -0.0458  0.1714 -0.3302
   50DOPE   C21 6343   2.337   4.090  12.911  0.1424 -0.1175  0.6537
   50DOPE   O22 6344   2.374   3.972  12.909  0.5925 -0.6909  0.4753
   50DOPE   C22 6345   2.201   4.144  12.873  0.1062  0.1661  0.2919
   50DOPE   H2R 6346   2.179   4.125  12.765  0.0466 -0.2188  0.3701
   50DOPE   H2S 6347   2.194   4.254  12.887 -0.3445 -0.0042  1.4359
   50DOPE    C3 6348   2.633   4.228  13.051  0.4267  0.3514  0.3676
   50DOPE    HX 6349   2.619   4.338  13.046  2.1631  0.5440 -1.5221
   50DOPE    HY 6350   2.742   4.216  13.032  0.5456  1.9240 -0.0521
   50DOPE   O31 6351   2.597   4.158  13.171 -0.2381 -0.0659  0.1236
   50DOPE   C31 6352   2.495   4.207  13.238 -0.0207  0.3473  0.4312
   50DOPE   O32 6353   2.420   4.301  13.206 -0.2144  0.7942  0.2785
   50DOPE   C32 6354   2.469   4.120  13.361  0.5350  0.3482 -0.2443
   50DOPE   H2X 6355   2.437   4.021  13.325 -0.2796  0.6747 -0.4264
   50DOPE   H2Y 6356   2.570   4.098  13.403  1.2043  0.6053 -1.6412
   50DOPE   C23 6357   2.093   4.064  12.943  0.0544 -0.6882  0.2741
   50DOPE   H3R 6358   2.113   3.956  12.925  3.1461 -0.1501  0.0378
   50DOPE   H3S 6359   1.994   4.080  12.894  0.3712 -1.6547 -0.7294
   50DOPE   C24 6360   2.090   4.101  13.092 -0.0765  0.7229  0.5254
   50DOPE   H4R 6361   2.087   4.212  13.088 -1.7376  0.6887 -0.4131
   50DOPE   H4S 6362   2.185   4.068  13.139  1.3116  1.6320 -1.5035
   50DOPE   C25 6363   1.962   4.050  13.165 -0.1193 -0.1312 -0.2770
   50DOPE   H5R 6364   1.951   3.943  13.136 -0.7678 -0.0356 -0.4046
   50DOPE   H5S 6365   1.872   4.103  13.128 -0.5051 -0.0933  0.6819
   50DOPE   C26 6366   1.960   4.070  13.317  0.8048 -0.5224  0.0492
   50DOPE   H6R 6367   1.963   4.178  13.339  0.7954  0.4283 -3.8317
   50DOPE   H6S 6368   2.045   4.021  13.369  1.5246  1.2694  0.6215
   50DOPE   C27 6369   1.824   4.005  13.361 -0.0167  0.0387  0.6981
   50DOPE   H7R 6370   1.837   3.901  13.326 -1.1734  0.9044 -2.6387
   50DOPE   H7S 6371   1.741   4.058  13.310 -0.8317 -0.0859  1.8520
   50DOPE   C28 6372   1.802   3.996  13.507 -0.0337  0.6943 -0.6152
   50DOPE   H8R 6373   1.883   3.936  13.552 -1.2749 -1.4708 -1.1468
   50DOPE   H8S 6374   1.707   3.942  13.529 -0.0288  1.3113  1.0743
   50DOPE   C29 6375   1.801   4.121  13.583  0.4285 -0.2867 -0.3057
   50DOPE   H9R 6376   1.844   4.207  13.528  0.3672 -0.3053 -0.3819
   50DOPE  C210 6377   1.744   4.137  13.703 -0.7468 -0.3820  0.5657
   50DOPE  H10R 6378   1.754   4.235  13.751 -1.9391 -0.9007  1.9750
   50DOPE  C211 6379   1.678   4.028  13.780 -0.0277 -0.1407  0.3090
   50DOPE  H11R 6380   1.690   3.928  13.733  1.3288  0.3305 -0.3982
   50DOPE  H11S 6381   1.569   4.048  13.775  0.2259  0.8882 -2.3530
   50DOPE  C212 6382   1.711   4.030  13.934  0.7606  0.1560  0.0252
   50DOPE  H12R 6383   1.821   4.021  13.936  0.5978 -2.4151  1.6918
   50DOPE  H12S 6384   1.679   3.932  13.976 -0.6753  0.1909 -0.8924
   50DOPE  C213 6385   1.663   4.160  14.008 -0.2437  0.6882  0.4034
   50DOPE  H13R 6386   1.558   4.174  13.974 -0.0476  1.1359 -0.0311
   50DOPE  H13S 6387   1.728   4.243  13.974  0.4460  0.6496  1.5859
   50DOPE  C214 6388   1.677   4.139  14.156 -0.1607  0.3827  0.3751
   50DOPE  H14R 6389   1.779   4.124  14.197 -0.3398 -0.6243  0.4813
   50DOPE  H14S 6390   1.640   4.037  14.177  1.6428  0.2362  3.3224
   50DOPE  C215 6391   1.585   4.241  14.226 -0.4591  0.5586 -0.2654
   50DOPE  H15R 6392   1.490   4.238  14.168 -1.3714  0.7654  1.1584
   50DOPE  H15S 6393   1.627   4.344  14.224  0.6530  0.1711  1.3360
   50DOPE  C216 6394   1.553   4.194  14.370  1.1392 -0.2450  0.3045
   50DOPE  H16R 6395   1.624   4.234  14.446 -1.6969  1.6018  2.1640
   50DOPE  H16S 6396   1.544   4.083  14.378  0.0288 -0.1197  1.1237
   50DOPE  C217 6397   1.412   4.246  14.410  0.8392  0.0625  0.3096
   50DOPE  H17R 6398   1.336   4.226  14.332  0.4993  2.2771  0.0043
   50DOPE  H17S 6399   1.412   4.357  14.419 -1.0509 -0.0264  2.1257
   50DOPE  C218 6400   1.364   4.193  14.544  0.6138  0.7021 -0.6996
   50DOPE  H18R 6401   1.440   4.199  14.625 -1.3782  0.2747  1.3040
   50DOPE  H18S 6402   1.330   4.088  14.534  1.1042  0.6311 -1.8439
   50DOPE  H18T 6403   1.285   4.262  14.582  1.3021  0.8391  0.5376
   50DOPE   C33 6404   2.368   4.181  13.461 -0.9294  0.0590 -0.5042
   50DOPE   H3X 6405   2.282   4.223  13.404 -0.6893  0.1931 -0.7649
   50DOPE   H3Y 6406   2.402   4.275  13.510 -1.1147  0.7428 -1.6671
   50DOPE   C34 6407   2.324   4.087  13.574  0.0681 -0.0939 -0.0956
   50DOPE   H4X 6408   2.243   4.033  13.521 -1.5952  1.7357  0.4415
   50DOPE   H4Y 6409   2.403   4.025  13.621  1.7186  2.9430  1.4260
   50DOPE   C35 6410   2.255   4.161  13.692 -0.3790  0.2059 -0.1428
   50DOPE   H5X 6411   2.193   4.246  13.656  1.8496  1.4076 -1.4348
   50DOPE   H5Y 6412   2.338   4.200  13.756  0.1276 -2.3382  0.8528
   50DOPE   C36 6413   2.181   4.058  13.783 -0.3911 -0.2929 -0.3625
   50DOPE   H6X 6414   2.251   3.975  13.808  0.4327  0.9261  1.6852
   50DOPE   H6Y 6415   2.087   4.027  13.733 -0.3364 -2.4266  0.7586
   50DOPE   C37 6416   2.127   4.120  13.920  0.5581  0.5054 -0.0803
   50DOPE   H7X 6417   2.056   4.204  13.904  0.1495  0.4710  1.3923
   50DOPE   H7Y 6418   2.059   4.038  13.954 -1.6285  0.7499 -3.4096
   50DOPE   C38 6419   2.241   4.143  14.023  0.4979 -0.2983  0.3843
   50DOPE   H8X 6420   2.192   4.186  14.113 -0.7011 -1.9742  0.5736
   50DOPE   H8Y 6421   2.306   4.221  13.978 -0.2329  0.9827  1.4706
   50DOPE   C39 6422   2.306   4.012  14.064  0.5993 -0.1258 -0.3647
   50DOPE   H9X 6423   2.370   3.973  13.984 -0.1330 -2.0651 -0.0548
   50DOPE  C310 6424   2.289   3.941  14.180  0.2379 -0.3141 -0.2030
   50DOPE  H10X 6425   2.353   3.852  14.186 -0.2691 -0.6352  0.6365
   50DOPE  C311 6426   2.192   3.966  14.299  0.4961 -0.1723 -0.4889
   50DOPE  H11X 6427   2.125   4.051  14.275 -0.6958 -1.1364 -0.6527
   50DOPE  H11Y 6428   2.124   3.881  14.321 -2.5853  2.2939  0.2219
   50DOPE  C312 6429   2.254   4.017  14.431  0.0211  0.6570 -0.3388
   50DOPE  H12X 6430   2.329   3.946  14.471 -1.4113 -0.7966 -0.1477
   50DOPE  H12Y 6431   2.178   3.997  14.510  0.6905 -0.8475 -0.0388
   50DOPE  C313 6432   2.300   4.162  14.430 -0.0329 -0.5013 -0.2097
   50DOPE  H13X 6433   2.355   4.169  14.334 -0.7326  1.9451 -0.5005
   50DOPE  H13Y 6434   2.211   4.229  14.426 -0.7753 -1.5266 -2.0818
   50DOPE  C314 6435   2.384   4.196  14.554  0.1511 -0.9709 -0.2537
   50DOPE  H14X 6436   2.435   4.294  14.543 -0.6040 -0.5316  0.1009
   50DOPE  H14Y 6437   2.457   4.114  14.573 -0.4683 -1.5601 -0.3852
   50DOPE  C315 6438   2.290   4.203  14.681  0.0872 -0.6137  0.7929
   50DOPE  H15X 6439   2.341   4.190  14.779  3.1264 -2.6749 -0.9120
   50DOPE  H15Y 6440   2.213   4.123  14.673  0.2537 -0.5838 -2.4775
   50DOPE  C316 6441   2.210   4.336  14.674 -0.3687  0.1610 -0.2110
   50DOPE  H16X 6442   2.142   4.338  14.586 -2.3983  0.1732  1.2760
   50DOPE  H16Y 6443   2.278   4.424  14.670 -0.4197  0.1734 -2.8946
   50DOPE  C317 6444   2.118   4.345  14.797 -0.6547  0.1578  0.4602
   50DOPE  H17X 6445   2.169   4.328  14.895 -1.6422  2.2926  1.4288
   50DOPE  H17Y 6446   2.092   4.453  14.793  1.7470  0.7371 -0.7679
   50DOPE  C318 6447   1.991   4.263  14.774 -0.3257  0.2460 -0.1438
   50DOPE  H18X 6448   2.016   4.162  14.734  1.3313  1.1494 -1.5048
   50DOPE  H18Y 6449   1.937   4.255  14.871  1.1260 -0.2037  0.6488
   50DOPE  H18Z 6450   1.930   4.318  14.699  0.6263 -0.9954 -1.8916
   51DOPE     N 6451   3.558   5.868  11.854  0.0242  0.7082  0.0078
   51DOPE   HN1 6452   3.478   5.802  11.862  0.8013 -0.5334 -1.7836
   51DOPE   HN2 6453   3.535   5.924  11.769 -2.3448 -0.2417 -0.0745
   51DOPE   HN3 6454   3.634   5.799  11.841 -0.7754 -0.0026 -1.0916
   51DOPE   C12 6455   3.572   5.956  11.971 -0.7048 -0.3058  0.0394
   51DOPE  H12A 6456   3.469   5.993  11.991 -0.0097  1.7161  0.1468
   51DOPE  H12B 6457   3.639   6.040  11.941  0.1796 -1.7331 -2.2246
   51DOPE   C11 6458   3.640   5.882  12.093  0.6274  0.6951 -0.5852
   51DOPE  H11A 6459   3.624   5.948  12.182 -1.1768  1.2327 -1.2470
   51DOPE  H11B 6460   3.748   5.865  12.076 -0.2548 -2.7489 -4.0919
   51DOPE     P 6461   3.612   5.677  12.252 -0.0976 -0.2622  0.0846
   51DOPE   O13 6462   3.755   5.693  12.280  0.9265  0.0264  0.4489
   51DOPE   O14 6463   3.547   5.544  12.256  0.3308 -0.3035 -0.0466
   51DOPE   O11 6464   3.543   5.759  12.368  0.0477  0.4284 -0.0119
   51DOPE   O12 6465   3.579   5.751  12.119  0.0388  0.0222  0.0488
   51DOPE    C1 6466   3.411   5.811  12.382  0.4592 -0.2601  0.5158
   51DOPE    HA 6467   3.347   5.755  12.454 -0.6481  1.8367  1.2650
   51DOPE    HB 6468   3.364   5.808  12.282 -0.3305  1.4786  0.7854
   51DOPE    C2 6469   3.402   5.952  12.440 -0.6873 -0.2371  0.1257
   51DOPE    HS 6470   3.461   6.024  12.380  1.9942 -1.5204  1.0365
   51DOPE   O21 6471   3.455   5.945  12.571 -0.3981 -0.3419  0.3650
   51DOPE   C21 6472   3.589   5.939  12.581  0.4804  0.2931  0.7312
   51DOPE   O22 6473   3.667   5.958  12.490  0.2683 -0.1466 -0.9107
   51DOPE   C22 6474   3.610   5.905  12.724  0.2080 -0.6070 -0.0761
   51DOPE   H2R 6475   3.646   5.802  12.745  3.2074  0.5669  1.0785
   51DOPE   H2S 6476   3.515   5.933  12.776 -0.1789  1.1993 -1.6488
   51DOPE    C3 6477   3.251   5.995  12.438  0.1190  0.0591 -0.0526
   51DOPE    HX 6478   3.188   5.933  12.505 -1.2209  1.8496  0.4172
   51DOPE    HY 6479   3.210   5.978  12.336 -1.7141  0.1957  0.6338
   51DOPE   O31 6480   3.247   6.133  12.475  0.2707 -0.0453  0.8073
   51DOPE   C31 6481   3.122   6.177  12.503  0.6484  0.1253 -0.5157
   51DOPE   O32 6482   3.022   6.105  12.494  0.7069 -0.3875 -0.4852
   51DOPE   C32 6483   3.125   6.325  12.553 -1.2087 -0.4631 -0.6725
   51DOPE   H2X 6484   3.201   6.336  12.633 -0.1384  2.1515 -1.9118
   51DOPE   H2Y 6485   3.145   6.393  12.467 -0.9970  0.0859 -0.2013
   51DOPE   C23 6486   3.718   5.999  12.784 -0.1117  0.3349  0.3855
   51DOPE   H3R 6487   3.695   6.108  12.781 -0.7829  0.1902 -0.6397
   51DOPE   H3S 6488   3.810   5.986  12.723 -0.2224  1.3903 -0.0415
   51DOPE   C24 6489   3.767   5.966  12.931 -0.4186 -0.3910  0.2925
   51DOPE   H4R 6490   3.791   5.858  12.927 -1.3979 -0.6033 -0.4203
   51DOPE   H4S 6491   3.684   5.980  13.004  0.0727  0.2692  0.7305
   51DOPE   C25 6492   3.891   6.048  12.969 -0.7685  0.8735  0.1676
   51DOPE   H5R 6493   3.852   6.150  12.988 -2.2815  0.0547  1.7524
   51DOPE   H5S 6494   3.960   6.048  12.882 -0.1960 -1.1179  0.5686
   51DOPE   C26 6495   3.969   5.997  13.097  0.2407  0.4086 -0.1928
   51DOPE   H6R 6496   4.035   5.909  13.083 -0.4042 -0.6090  2.4136
   51DOPE   H6S 6497   3.890   5.957  13.165 -1.2378  1.2638 -1.3569
   51DOPE   C27 6498   4.023   6.109  13.183 -0.2143 -0.5717  0.3070
   51DOPE   H7R 6499   3.966   6.203  13.169 -0.3365 -0.1126  3.1819
   51DOPE   H7S 6500   4.122   6.132  13.139  0.4434  0.8114  2.3523
   51DOPE   C28 6501   4.032   6.078  13.333 -0.3614 -0.1291 -0.0406
   51DOPE   H8R 6502   3.934   6.040  13.368 -1.9028  0.9474 -2.8706
   51DOPE   H8S 6503   4.039   6.174  13.389  2.3815 -0.4895  0.3755
   51DOPE   C29 6504   4.134   5.974  13.367 -0.4715 -0.2648  0.3180
   51DOPE   H9R 6505   4.133   5.879  13.311  1.0944 -0.4218  0.5020
   51DOPE  C210 6506   4.233   5.983  13.457  0.5173 -0.0039  0.4687
   51DOPE  H10R 6507   4.280   5.889  13.491 -0.3343 -0.5315  0.2260
   51DOPE  C211 6508   4.257   6.093  13.555 -0.2321 -0.1849  0.4836
   51DOPE  H11R 6509   4.189   6.179  13.537 -1.6740 -1.5346 -0.8163
   51DOPE  H11S 6510   4.358   6.138  13.542 -1.7649  3.7558  0.7345
   51DOPE  C212 6511   4.234   6.045  13.707 -0.2579 -0.2136  0.2706
   51DOPE  H12R 6512   4.141   5.985  13.719 -1.7508  1.7672 -0.6667
   51DOPE  H12S 6513   4.206   6.137  13.762 -0.9885 -1.0638  1.3711
   51DOPE  C213 6514   4.357   5.980  13.771 -0.1975  0.6141  0.2906
   51DOPE  H13R 6515   4.441   6.052  13.761  0.1124  0.4220  1.3503
   51DOPE  H13S 6516   4.376   5.889  13.710 -1.5149 -0.6146  1.6220
   51DOPE  C214 6517   4.337   5.949  13.916 -0.5300  0.3868 -0.4391
   51DOPE  H14R 6518   4.266   5.864  13.926 -0.6168  0.6196  1.2272
   51DOPE  H14S 6519   4.300   6.032  13.979 -1.8958 -1.8944  1.9570
   51DOPE  C215 6520   4.472   5.904  13.979  0.4543 -0.1123  0.0672
   51DOPE  H15R 6521   4.545   5.986  13.963 -0.1555  0.6220  0.9298
   51DOPE  H15S 6522   4.504   5.824  13.910 -0.7113  1.5591 -2.5758
   51DOPE  C216 6523   4.457   5.864  14.125 -0.2121  0.0060 -0.2834
   51DOPE  H16R 6524   4.396   5.774  14.146  0.8515 -0.4936  0.8070
   51DOPE  H16S 6525   4.420   5.957  14.172  1.8647  0.5263  0.4235
   51DOPE  C217 6526   4.591   5.838  14.192 -0.4727 -0.4866  0.4697
   51DOPE  H17R 6527   4.573   5.855  14.300  0.1923  0.6870  0.4064
   51DOPE  H17S 6528   4.660   5.922  14.169 -1.0702 -0.5406 -1.7391
   51DOPE  C218 6529   4.658   5.708  14.172  0.3217  0.7797  0.2446
   51DOPE  H18R 6530   4.604   5.630  14.229  0.9926 -0.2608 -0.4919
   51DOPE  H18S 6531   4.765   5.705  14.204  0.7787  0.7534 -1.2091
   51DOPE  H18T 6532   4.666   5.676  14.066  2.7831  1.2896  0.1975
   51DOPE   C33 6533   2.983   6.362  12.601  0.1069 -0.1244 -0.2685
   51DOPE   H3X 6534   2.951   6.291  12.681  0.8344  1.1686  1.2121
   51DOPE   H3Y 6535   2.909   6.359  12.518 -0.2526  1.0082  0.0056
   51DOPE   C34 6536   2.972   6.508  12.655  0.0303  0.2081  0.4733
   51DOPE   H4X 6537   3.025   6.571  12.581 -0.4811 -0.4617 -0.4921
   51DOPE   H4Y 6538   2.866   6.540  12.654 -0.9003 -2.5493  0.1907
   51DOPE   C35 6539   3.024   6.534  12.799 -0.2363 -0.1535  0.6267
   51DOPE   H5X 6540   3.014   6.642  12.821  2.0948  0.1892  0.3064
   51DOPE   H5Y 6541   3.130   6.507  12.819  0.1914  0.7886 -0.2685
   51DOPE   C36 6542   2.949   6.458  12.902 -0.4711  0.6797  0.1396
   51DOPE   H6X 6543   2.982   6.352  12.896 -2.6406  0.0470 -2.7503
   51DOPE   H6Y 6544   2.838   6.459  12.890 -0.6093 -1.7406  0.7158
   51DOPE   C37 6545   2.980   6.513  13.040  0.3064 -0.5254  0.6456
   51DOPE   H7X 6546   3.089   6.494  13.050  0.5061 -1.8148 -2.7011
   51DOPE   H7Y 6547   2.971   6.623  13.029 -0.6533 -0.8948 -4.4720
   51DOPE   C38 6548   2.896   6.461  13.155  0.1328 -0.0312 -0.2667
   51DOPE   H8X 6549   2.921   6.354  13.172  2.4151  0.1152 -2.1795
   51DOPE   H8Y 6550   2.794   6.464  13.113 -0.2459  2.3515  0.6591
   51DOPE   C39 6551   2.894   6.538  13.285 -0.0807  0.6097 -0.4582
   51DOPE   H9X 6552   2.792   6.567  13.315 -0.4075 -0.2510 -0.7197
   51DOPE  C310 6553   3.007   6.552  13.364  0.6244  0.5139  0.6411
   51DOPE  H10X 6554   2.987   6.596  13.463 -3.3044  0.4001  0.0603
   51DOPE  C311 6555   3.145   6.497  13.332 -0.4094 -0.4433 -0.5127
   51DOPE  H11X 6556   3.143   6.387  13.313 -0.3950 -0.6835  0.7940
   51DOPE  H11Y 6557   3.179   6.544  13.238 -1.1757  1.0014 -0.0937
   51DOPE  C312 6558   3.262   6.526  13.427 -0.2897 -0.5416  0.4652
   51DOPE  H12X 6559   3.286   6.633  13.405 -0.8481 -0.7496 -1.3602
   51DOPE  H12Y 6560   3.354   6.473  13.394 -0.8454  0.4894 -3.2492
   51DOPE  C313 6561   3.236   6.520  13.582 -0.0501 -0.1328  0.5844
   51DOPE  H13X 6562   3.175   6.601  13.627  0.5272  0.1543  0.8667
   51DOPE  H13Y 6563   3.178   6.427  13.597 -0.9185  0.3885  0.5137
   51DOPE  C314 6564   3.369   6.508  13.668  0.7997  0.0402  0.2352
   51DOPE  H14X 6565   3.433   6.596  13.644 -0.0595  0.6406  0.0669
   51DOPE  H14Y 6566   3.429   6.418  13.643  0.1212 -0.1158 -0.9151
   51DOPE  C315 6567   3.348   6.510  13.816  0.4637 -0.2727 -0.8065
   51DOPE  H15X 6568   3.305   6.413  13.848  1.9440 -0.7642 -0.2100
   51DOPE  H15Y 6569   3.284   6.598  13.837  1.7894  1.4385 -3.4146
   51DOPE  C316 6570   3.480   6.512  13.897 -1.0849 -0.6970  0.4759
   51DOPE  H16X 6571   3.548   6.599  13.882 -0.5722 -0.9529  1.2645
   51DOPE  H16Y 6572   3.534   6.428  13.850  0.9276  0.2701  0.9554
   51DOPE  C317 6573   3.453   6.478  14.046 -0.2591  0.4315  0.1396
   51DOPE  H17X 6574   3.377   6.551  14.082  0.2991  0.4450  1.3175
   51DOPE  H17Y 6575   3.391   6.386  14.046 -1.3234  1.1180  1.3264
   51DOPE  C318 6576   3.582   6.465  14.133 -0.5786 -0.2815 -0.2653
   51DOPE  H18X 6577   3.568   6.430  14.238 -1.5372  0.5797 -0.0903
   51DOPE  H18Y 6578   3.664   6.416  14.076 -0.5132 -2.0818  1.2841
   51DOPE  H18Z 6579   3.608   6.571  14.153 -0.4781 -0.6736  1.9980
   52DOPE     N 6580   1.731   2.999  12.205  0.0070  0.1479 -0.0047
   52DOPE   HN1 6581   1.694   3.001  12.108  1.7518  2.0476 -0.6946
   52DOPE   HN2 6582   1.776   3.089  12.229  1.3464 -0.2814 -0.7929
   52DOPE   HN3 6583   1.796   2.918  12.207 -1.6861 -1.3928 -2.0131
   52DOPE   C12 6584   1.627   2.964  12.309  1.0444 -0.3707 -0.3213
   52DOPE  H12A 6585   1.617   3.062  12.361 -0.9870 -1.2721  1.1002
   52DOPE  H12B 6586   1.675   2.898  12.384  0.7050 -0.1381  0.1067
   52DOPE   C11 6587   1.490   2.918  12.256  0.1075 -0.9602 -0.5447
   52DOPE  H11A 6588   1.424   2.912  12.345  2.0970 -1.0260  1.0048
   52DOPE  H11B 6589   1.490   2.813  12.219 -3.3393 -0.8150 -1.2781
   52DOPE     P 6590   1.415   2.980  12.014 -0.1928 -0.0767  0.1865
   52DOPE   O13 6591   1.551   2.951  11.962  0.2321 -0.5703  0.4080
   52DOPE   O14 6592   1.338   3.092  11.955  0.3467  0.1421 -0.3025
   52DOPE   O11 6593   1.327   2.850  12.004  0.2274 -0.3715 -0.3099
   52DOPE   O12 6594   1.429   3.003  12.159  0.2193  0.3500 -0.5937
   52DOPE    C1 6595   1.185   2.843  12.002  0.8685 -0.3696 -0.5297
   52DOPE    HA 6596   1.150   2.796  11.908 -2.2442  1.5907 -0.4905
   52DOPE    HB 6597   1.130   2.939  12.009 -1.3152 -1.5756 -0.2710
   52DOPE    C2 6598   1.127   2.770  12.127  0.3853 -0.5272 -0.2672
   52DOPE    HS 6599   1.016   2.776  12.124  0.0866 -2.7119  2.0531
   52DOPE   O21 6600   1.169   2.837  12.251  0.1064 -0.3989  0.2665
   52DOPE   C21 6601   1.088   2.812  12.359 -0.3900 -0.4939  0.7126
   52DOPE   O22 6602   0.996   2.734  12.362 -0.7074 -0.0567 -0.4707
   52DOPE   C22 6603   1.133   2.889  12.479 -0.2089 -0.2214 -0.2746
   52DOPE   H2R 6604   1.108   2.994  12.456 -2.3053 -0.9490 -1.6354
   52DOPE   H2S 6605   1.243   2.876  12.487 -0.3664 -1.6341 -0.0265
   52DOPE    C3 6606   1.164   2.622  12.124  0.1865  0.1431  0.5539
   52DOPE    HX 6607   1.264   2.623  12.075 -0.4946 -1.1749 -0.9501
   52DOPE    HY 6608   1.105   2.581  12.040  0.2305  1.5285 -0.1862
   52DOPE   O31 6609   1.165   2.546  12.246  0.1333  0.1993  0.3140
   52DOPE   C31 6610   1.148   2.414  12.228 -0.2097 -0.4345 -0.6774
   52DOPE   O32 6611   1.149   2.349  12.125  0.1674 -0.2511 -0.1121
   52DOPE   C32 6612   1.117   2.350  12.367 -0.5018 -0.0872  0.4746
   52DOPE   H2X 6613   1.127   2.240  12.367  2.6769  0.0988  0.9341
   52DOPE   H2Y 6614   1.199   2.390  12.431 -0.2926 -2.2519  1.6539
   52DOPE   C23 6615   1.078   2.846  12.615 -0.2955 -0.4834  0.3534
   52DOPE   H3R 6616   1.107   2.740  12.629  3.5287  0.4786  0.7957
   52DOPE   H3S 6617   0.967   2.853  12.617 -0.3860 -1.7511  0.9823
   52DOPE   C24 6618   1.144   2.928  12.721 -0.1568 -0.2505  0.5074
   52DOPE   H4R 6619   1.120   3.036  12.713  0.3983 -0.1460  0.2018
   52DOPE   H4S 6620   1.255   2.930  12.711 -0.0338 -2.0939  1.1299
   52DOPE   C25 6621   1.115   2.879  12.865  0.2424  0.2651 -1.1355
   52DOPE   H5R 6622   1.006   2.860  12.862  0.0400  1.1289  0.0170
   52DOPE   H5S 6623   1.131   2.963  12.936 -2.3977 -0.4072  0.3823
   52DOPE   C26 6624   1.190   2.747  12.903 -0.2355  0.1672  0.4096
   52DOPE   H6R 6625   1.299   2.767  12.898 -0.1389 -0.4868 -0.4227
   52DOPE   H6S 6626   1.176   2.678  12.817  0.2248  1.6812 -0.9174
   52DOPE   C27 6627   1.147   2.683  13.036  0.3196 -0.0541 -0.3421
   52DOPE   H7R 6628   1.214   2.594  13.046  1.0171  0.3268 -1.4472
   52DOPE   H7S 6629   1.042   2.649  13.025 -0.0410  0.9232  0.0490
   52DOPE   C28 6630   1.163   2.777  13.155 -0.7251 -0.2004 -0.4585
   52DOPE   H8R 6631   1.118   2.877  13.138 -0.2643  0.3081  1.1048
   52DOPE   H8S 6632   1.269   2.792  13.184 -1.3871 -0.9942  2.7791
   52DOPE   C29 6633   1.092   2.739  13.290  0.4250 -0.3094 -0.1079
   52DOPE   H9R 6634   1.088   2.630  13.307  3.5427 -0.4009  0.6175
   52DOPE  C210 6635   1.012   2.818  13.361  0.1828 -0.4100  0.0992
   52DOPE  H10R 6636   0.968   2.772  13.451 -1.7397  0.7358 -0.1846
   52DOPE  C211 6637   0.970   2.966  13.335 -0.7094 -0.0360  0.0927
   52DOPE  H11R 6638   1.053   3.020  13.283  0.7298 -0.0723  2.2367
   52DOPE  H11S 6639   0.970   3.014  13.435 -2.1562 -0.4007  0.2847
   52DOPE  C212 6640   0.839   2.971  13.263  0.2579 -0.3910  0.1374
   52DOPE  H12R 6641   0.754   2.947  13.330  0.0977  1.0908  0.4931
   52DOPE  H12S 6642   0.828   2.902  13.177 -0.6745 -1.8867  1.3977
   52DOPE  C213 6643   0.815   3.113  13.210  0.2072 -0.0132 -0.3935
   52DOPE  H13R 6644   0.912   3.143  13.165 -0.0320  1.2031 -0.1497
   52DOPE  H13S 6645   0.784   3.171  13.300 -0.0003 -0.3709 -0.2322
   52DOPE  C214 6646   0.699   3.139  13.110 -0.5028 -0.3294  1.1882
   52DOPE  H14R 6647   0.683   3.249  13.102 -0.0021 -0.4083 -2.0281
   52DOPE  H14S 6648   0.613   3.087  13.157 -1.5895  1.7813  1.6750
   52DOPE  C215 6649   0.732   3.094  12.966  0.1503  0.1071 -0.1687
   52DOPE  H15R 6650   0.633   3.083  12.916 -0.0187  3.1260 -0.6926
   52DOPE  H15S 6651   0.787   2.998  12.973 -1.9459 -1.1256  0.3296
   52DOPE  C216 6652   0.804   3.197  12.874  0.1138 -0.5491 -0.4988
   52DOPE  H16R 6653   0.898   3.215  12.930 -0.0657 -0.4010 -0.2398
   52DOPE  H16S 6654   0.748   3.292  12.863  0.7977 -0.1902 -0.9160
   52DOPE  C217 6655   0.842   3.139  12.735 -1.4521  0.3789  0.1665
   52DOPE  H17R 6656   0.751   3.113  12.676 -0.5187 -0.1937 -1.0548
   52DOPE  H17S 6657   0.895   3.044  12.755 -0.9130  1.0292  2.0208
   52DOPE  C218 6658   0.930   3.246  12.670  0.1060  0.7631  0.0407
   52DOPE  H18R 6659   1.029   3.257  12.720  0.6603 -0.2793 -0.8012
   52DOPE  H18S 6660   0.969   3.211  12.573  0.1499 -0.0078  0.3270
   52DOPE  H18T 6661   0.878   3.344  12.669  1.0574  1.3378  1.8152
   52DOPE   C33 6662   0.979   2.381  12.420  0.3140 -0.0166 -0.1280
   52DOPE   H3X 6663   0.895   2.341  12.359  2.3207 -1.9684 -1.7546
   52DOPE   H3Y 6664   0.974   2.492  12.425 -0.7453  0.0296 -1.5353
   52DOPE   C34 6665   0.963   2.324  12.564  0.5490 -0.2592 -0.6288
   52DOPE   H4X 6666   0.995   2.218  12.567  0.3145 -0.3750 -1.7715
   52DOPE   H4Y 6667   1.024   2.387  12.632 -1.0314  0.5449  0.0999
   52DOPE   C35 6668   0.820   2.333  12.617  0.4815 -0.0095  0.1096
   52DOPE   H5X 6669   0.751   2.303  12.535 -1.5527 -0.3402  1.8311
   52DOPE   H5Y 6670   0.798   2.439  12.641 -0.3790 -0.0517 -0.4381
   52DOPE   C36 6671   0.796   2.252  12.746 -0.3641  0.1986  0.1274
   52DOPE   H6X 6672   0.861   2.162  12.751 -1.7436 -0.8032  0.8924
   52DOPE   H6Y 6673   0.696   2.203  12.747  0.4580 -1.5698 -0.2132
   52DOPE   C37 6674   0.823   2.337  12.871 -0.4419  0.1107 -0.3770
   52DOPE   H7X 6675   0.930   2.365  12.876 -0.2899 -0.6568  1.4782
   52DOPE   H7Y 6676   0.751   2.421  12.863  0.3278  0.6879 -1.4035
   52DOPE   C38 6677   0.787   2.279  13.013 -0.2977  0.6867 -0.4179
   52DOPE   H8X 6678   0.680   2.248  13.024  0.6762 -2.4399  1.4214
   52DOPE   H8Y 6679   0.799   2.366  13.080  2.1402 -1.9125  2.8856
   52DOPE   C39 6680   0.881   2.165  13.050 -0.2760  0.3276  0.1573
   52DOPE   H9X 6681   0.880   2.077  12.984  0.6203  1.2914 -1.1992
   52DOPE  C310 6682   0.974   2.165  13.149  0.2052 -0.7506  0.6929
   52DOPE  H10X 6683   1.050   2.086  13.147  1.4912  0.4498  0.2104
   52DOPE  C311 6684   0.992   2.274  13.255 -0.2736  0.1596 -0.6053
   52DOPE  H11X 6685   1.102   2.286  13.267 -0.3602  0.3411  0.0358
   52DOPE  H11Y 6686   0.954   2.372  13.220 -3.5144 -0.3413  1.2071
   52DOPE  C312 6687   0.931   2.232  13.391  0.4444  0.6087  0.1638
   52DOPE  H12X 6688   0.978   2.289  13.474  0.2513  1.9218 -0.6005
   52DOPE  H12Y 6689   0.954   2.125  13.409 -0.1218 -0.1442 -2.9299
   52DOPE  C313 6690   0.775   2.222  13.383 -0.3471 -0.7108 -1.2682
   52DOPE  H13X 6691   0.739   2.327  13.372  0.0804 -0.2349  1.2578
   52DOPE  H13Y 6692   0.739   2.162  13.297  0.6808 -3.5050  0.1163
   52DOPE  C314 6693   0.705   2.162  13.505 -0.0924  0.0809  0.3794
   52DOPE  H14X 6694   0.737   2.225  13.592  1.1784  0.5657 -0.4101
   52DOPE  H14Y 6695   0.726   2.055  13.526  1.0962 -0.0098 -1.1098
   52DOPE  C315 6696   0.555   2.179  13.502  0.5868 -0.0671  0.0264
   52DOPE  H15X 6697   0.503   2.135  13.414  0.4683  0.1600 -0.0183
   52DOPE  H15Y 6698   0.530   2.287  13.506 -0.9547 -0.3755 -0.5160
   52DOPE  C316 6699   0.486   2.121  13.631  0.5143 -0.5592 -0.1769
   52DOPE  H16X 6700   0.535   2.164  13.721  0.8698  1.2982 -1.2091
   52DOPE  H16Y 6701   0.516   2.015  13.637  1.1563 -0.3335  0.8701
   52DOPE  C317 6702   0.332   2.136  13.635  0.1675  0.5066  0.1527
   52DOPE  H17X 6703   0.301   2.243  13.625  0.4909  0.5413 -0.5537
   52DOPE  H17Y 6704   0.286   2.081  13.551 -2.3184  1.8755  0.5128
   52DOPE  C318 6705   0.264   2.080  13.762 -0.7183  0.2348  0.3772
   52DOPE  H18X 6706   0.153   2.088  13.770 -0.5525  2.8264  1.4070
   52DOPE  H18Y 6707   0.290   1.973  13.769  1.1865  0.3090 -3.3128
   52DOPE  H18Z 6708   0.303   2.128  13.855 -0.0290 -0.5546  0.5030
   53DOPE     N 6709   5.668   6.763  11.649 -0.3674  0.0160  0.4370
   53DOPE   HN1 6710   5.634   6.698  11.723 -2.9098 -1.2949 -1.6885
   53DOPE   HN2 6711   5.593   6.815  11.600  0.8685  0.0875 -1.4803
   53DOPE   HN3 6712   5.709   6.696  11.580 -1.2495  0.5732 -0.6616
   53DOPE   C12 6713   5.780   6.851  11.685 -0.6647 -0.3875 -0.2512
   53DOPE  H12A 6714   5.832   6.880  11.591 -0.4265 -0.3428 -0.1065
   53DOPE  H12B 6715   5.857   6.791  11.737 -1.2895 -0.7301  0.2904
   53DOPE   C11 6716   5.727   6.973  11.763 -0.1255  0.2946  0.0008
   53DOPE  H11A 6717   5.822   7.030  11.764  1.3684 -1.9915 -1.3515
   53DOPE  H11B 6718   5.708   6.936  11.866  0.2412  1.5241  0.5287
   53DOPE     P 6719   5.537   7.157  11.763 -0.0231  0.1345 -0.1134
   53DOPE   O13 6720   5.429   7.203  11.673 -0.1473  0.2746 -0.0275
   53DOPE   O14 6721   5.628   7.259  11.817  0.7333 -0.3162  0.6588
   53DOPE   O11 6722   5.477   7.081  11.883  0.2454  0.3242  0.5683
   53DOPE   O12 6723   5.618   7.037  11.685 -0.6658  0.2204 -0.3952
   53DOPE    C1 6724   5.382   6.978  11.868 -0.1463 -0.4881 -0.0668
   53DOPE    HA 6725   5.403   6.928  11.771 -0.2318  1.4318 -1.1190
   53DOPE    HB 6726   5.282   7.028  11.866  0.4337  0.7861 -3.2204
   53DOPE    C2 6727   5.377   6.881  11.986  0.3629  0.1493  0.2935
   53DOPE    HS 6728   5.307   6.804  11.945 -1.7670  1.4316  1.3222
   53DOPE   O21 6729   5.332   6.941  12.107  0.0225 -0.4417  0.0391
   53DOPE   C21 6730   5.288   6.861  12.196  0.5273  0.1299  0.5140
   53DOPE   O22 6731   5.252   6.747  12.176 -0.3822 -0.8215 -0.5778
   53DOPE   C22 6732   5.267   6.937  12.328 -0.3265 -0.3270 -0.3211
   53DOPE   H2R 6733   5.203   7.023  12.300 -1.8476 -2.0055 -2.2267
   53DOPE   H2S 6734   5.365   6.974  12.366  0.1495 -2.0799  0.2548
   53DOPE    C3 6735   5.512   6.811  12.002 -0.1901  0.4253 -0.2933
   53DOPE    HX 6736   5.579   6.890  12.042 -3.4225  2.7616  0.9704
   53DOPE    HY 6737   5.555   6.776  11.906 -2.1554  0.8030 -1.3737
   53DOPE   O31 6738   5.504   6.704  12.094 -0.2783  0.2812  0.1254
   53DOPE   C31 6739   5.615   6.633  12.129 -0.1232  0.6147  0.0026
   53DOPE   O32 6740   5.722   6.647  12.074  0.0391  0.3947  0.1872
   53DOPE   C32 6741   5.589   6.522  12.222  0.4106 -0.2068  0.4213
   53DOPE   H2X 6742   5.481   6.536  12.245  0.5258  1.9582 -0.1540
   53DOPE   H2Y 6743   5.603   6.424  12.171 -1.6798 -0.0959 -0.4791
   53DOPE   C23 6744   5.209   6.845  12.439 -0.0914 -0.0784 -0.4348
   53DOPE   H3R 6745   5.275   6.756  12.446  1.6815  1.1706 -0.6257
   53DOPE   H3S 6746   5.104   6.820  12.414 -0.0552 -0.1915 -0.4735
   53DOPE   C24 6747   5.219   6.910  12.580  0.1739  0.4222  0.0376
   53DOPE   H4R 6748   5.183   7.015  12.573  0.3213  0.3761 -2.0825
   53DOPE   H4S 6749   5.325   6.927  12.607 -0.2852  1.4862  1.2164
   53DOPE   C25 6750   5.167   6.821  12.695  0.2909  0.0614  0.1212
   53DOPE   H5R 6751   5.184   6.711  12.688 -0.6704 -0.0712 -0.4073
   53DOPE   H5S 6752   5.057   6.820  12.676  0.4926 -0.7365 -1.1383
   53DOPE   C26 6753   5.203   6.878  12.824  0.1811 -0.5656 -0.3889
   53DOPE   H6R 6754   5.171   6.984  12.830  1.3319 -0.2700  2.1443
   53DOPE   H6S 6755   5.311   6.870  12.849  0.1538  1.4957  0.6056
   53DOPE   C27 6756   5.144   6.790  12.938  0.6325  0.2960 -0.0748
   53DOPE   H7R 6757   5.195   6.694  12.916 -2.2980 -1.5212  0.4734
   53DOPE   H7S 6758   5.035   6.775  12.920  0.5355 -0.6550  1.1552
   53DOPE   C28 6759   5.161   6.853  13.080 -0.2200  0.5266  0.2076
   53DOPE   H8R 6760   5.115   6.954  13.083 -0.7359  0.2820  2.3592
   53DOPE   H8S 6761   5.269   6.874  13.096  0.2383 -1.9207  0.7474
   53DOPE   C29 6762   5.114   6.765  13.191  0.4559  0.4315 -0.0908
   53DOPE   H9R 6763   5.014   6.790  13.231 -0.1269 -2.1792  0.2446
   53DOPE  C210 6764   5.188   6.664  13.235 -0.2394  0.1291  0.5212
   53DOPE  H10R 6765   5.142   6.594  13.306  1.6670 -0.5647  1.1267
   53DOPE  C211 6766   5.330   6.620  13.207 -0.7767  0.0699 -0.2349
   53DOPE  H11R 6767   5.389   6.696  13.152  0.9956 -0.1349  1.2688
   53DOPE  H11S 6768   5.341   6.517  13.166  1.9981  0.0227  0.3993
   53DOPE  C212 6769   5.420   6.596  13.330  0.3696  0.0147  0.3417
   53DOPE  H12R 6770   5.405   6.693  13.382  1.6661  0.5232 -0.1867
   53DOPE  H12S 6771   5.525   6.580  13.297  0.5473  1.2583  0.2645
   53DOPE  C213 6772   5.376   6.486  13.429  0.3536  0.4111 -0.1518
   53DOPE  H13R 6773   5.429   6.395  13.391  0.2013 -1.2409  3.2500
   53DOPE  H13S 6774   5.266   6.473  13.429  0.2145  1.3959 -1.4563
   53DOPE  C214 6775   5.436   6.501  13.566  0.2079 -0.5451 -0.4354
   53DOPE  H14R 6776   5.378   6.584  13.612 -2.2149 -2.5853  0.3364
   53DOPE  H14S 6777   5.540   6.536  13.547  0.2304 -0.7082 -0.6042
   53DOPE  C215 6778   5.435   6.372  13.655  0.3553  0.5123  1.1613
   53DOPE  H15R 6779   5.456   6.285  13.590 -0.3815 -1.0514  2.9223
   53DOPE  H15S 6780   5.329   6.370  13.689 -0.5206 -0.1750 -1.3715
   53DOPE  C216 6781   5.514   6.374  13.781  0.1797  0.0128 -0.1054
   53DOPE  H16R 6782   5.457   6.444  13.847  1.4167 -1.9212  3.2613
   53DOPE  H16S 6783   5.622   6.393  13.767  0.3182  0.0757  0.9785
   53DOPE  C217 6784   5.501   6.230  13.839 -0.0252  0.1518  0.2805
   53DOPE  H17R 6785   5.465   6.151  13.769  0.3156 -2.1488  2.5318
   53DOPE  H17S 6786   5.415   6.234  13.908  0.4906  0.2214  0.9243
   53DOPE  C218 6787   5.628   6.186  13.907  0.5200  0.5696  0.0637
   53DOPE  H18R 6788   5.613   6.084  13.950 -2.3362  1.0184  0.3168
   53DOPE  H18S 6789   5.645   6.246  13.999  1.3974  1.2269 -0.5114
   53DOPE  H18T 6790   5.715   6.189  13.838  0.6580 -3.9513 -0.2735
   53DOPE   C33 6791   5.682   6.517  12.347 -0.4465  0.5253 -0.1106
   53DOPE   H3X 6792   5.786   6.496  12.316 -0.2125 -0.2593  1.1781
   53DOPE   H3Y 6793   5.649   6.430  12.408 -1.0312  1.3699  0.8010
   53DOPE   C34 6794   5.683   6.640  12.437  0.5529  0.5729  0.3845
   53DOPE   H4X 6795   5.788   6.644  12.476 -0.1401  2.1735  2.3144
   53DOPE   H4Y 6796   5.669   6.738  12.386 -0.1539  1.1839  1.6780
   53DOPE   C35 6797   5.589   6.622  12.555  0.3278  0.1430 -0.7364
   53DOPE   H5X 6798   5.613   6.524  12.602  0.2838  1.4547  2.2328
   53DOPE   H5Y 6799   5.490   6.610  12.508  0.1729 -1.6332 -0.0770
   53DOPE   C36 6800   5.598   6.729  12.659 -0.0004  0.4873  0.2792
   53DOPE   H6X 6801   5.550   6.816  12.610  0.5714  0.4994 -0.2628
   53DOPE   H6Y 6802   5.702   6.765  12.675  0.8227 -1.4306 -0.5292
   53DOPE   C37 6803   5.550   6.697  12.800  0.1002  0.6281 -0.2254
   53DOPE   H7X 6804   5.576   6.784  12.864 -1.7144  0.4252  0.8266
   53DOPE   H7Y 6805   5.439   6.693  12.804  0.0843  1.0599 -0.2141
   53DOPE   C38 6806   5.605   6.579  12.876 -0.1216 -0.7432  0.0223
   53DOPE   H8X 6807   5.556   6.490  12.831 -1.0056 -0.4297  0.3428
   53DOPE   H8Y 6808   5.582   6.572  12.985  0.3700 -1.2433  0.1011
   53DOPE   C39 6809   5.758   6.571  12.879  0.2227 -0.3005  0.1718
   53DOPE   H9X 6810   5.810   6.599  12.786  1.7772  0.9652  1.3488
   53DOPE  C310 6811   5.841   6.548  12.982  0.3939 -0.5821 -0.5335
   53DOPE  H10X 6812   5.949   6.566  12.973  1.0271 -1.8379  3.0708
   53DOPE  C311 6813   5.807   6.526  13.127  0.7926  0.5061  0.3102
   53DOPE  H11X 6814   5.697   6.524  13.143  0.6449  0.6299 -0.6479
   53DOPE  H11Y 6815   5.850   6.428  13.158 -1.2599 -0.6515 -0.2921
   53DOPE  C312 6816   5.856   6.630  13.234  0.1086 -0.1212 -0.5118
   53DOPE  H12X 6817   5.800   6.612  13.329 -0.4817  0.2395 -0.7801
   53DOPE  H12Y 6818   5.828   6.731  13.197  3.0571  1.9023  2.2669
   53DOPE  C313 6819   6.006   6.626  13.248 -0.8244  0.5090 -0.4088
   53DOPE  H13X 6820   6.050   6.525  13.267 -0.9345  0.5645  0.1670
   53DOPE  H13Y 6821   6.050   6.652  13.150  0.8551  1.2590  0.5053
   53DOPE  C314 6822   6.065   6.720  13.354  0.4753  0.0859 -0.0780
   53DOPE  H14X 6823   6.029   6.823  13.335  2.3692  0.8288  0.1289
   53DOPE  H14Y 6824   6.173   6.723  13.330  1.3009 -1.0262  3.0208
   53DOPE  C315 6825   6.045   6.667  13.501  0.4016  0.2859  0.4167
   53DOPE  H15X 6826   6.082   6.563  13.511 -2.4770 -0.6175  3.2386
   53DOPE  H15Y 6827   5.934   6.672  13.506  0.4229  2.4916 -0.2197
   53DOPE  C316 6828   6.098   6.751  13.616  0.0282  0.7101 -0.0139
   53DOPE  H16X 6829   6.043   6.846  13.627  0.8130  1.1235  0.4809
   53DOPE  H16Y 6830   6.205   6.780  13.602 -0.2386  1.4174 -0.6259
   53DOPE  C317 6831   6.083   6.677  13.752  0.5349  0.4377 -0.1580
   53DOPE  H17X 6832   6.126   6.578  13.724  0.8499  1.4506 -3.8028
   53DOPE  H17Y 6833   6.152   6.719  13.827  2.2918 -2.8831  0.2645
   53DOPE  C318 6834   5.940   6.665  13.806  0.2046  0.7984  0.0746
   53DOPE  H18X 6835   5.903   6.765  13.836 -3.8403 -0.5943  0.3492
   53DOPE  H18Y 6836   5.871   6.626  13.728  0.0383 -0.2061  0.7087
   53DOPE  H18Z 6837   5.945   6.597  13.893  3.5685  0.7868  0.0288
   54DOPE     N 6838   2.553   3.164  12.554  0.3369  0.5905  0.1710
   54DOPE   HN1 6839   2.605   3.084  12.512 -0.2388  1.5363 -2.6119
   54DOPE   HN2 6840   2.529   3.237  12.484 -0.3870  0.6078  0.4263
   54DOPE   HN3 6841   2.618   3.204  12.624  0.2461 -1.9809  1.8371
   54DOPE   C12 6842   2.423   3.129  12.625  0.0255  0.3304  0.2455
   54DOPE  H12A 6843   2.388   3.218  12.680 -2.8107  1.0470 -2.4521
   54DOPE  H12B 6844   2.430   3.041  12.692 -0.7081  1.1601  1.4387
   54DOPE   C11 6845   2.314   3.098  12.514  0.0044 -0.1125  0.4099
   54DOPE  H11A 6846   2.220   3.078  12.570 -0.2925 -2.1530 -0.7272
   54DOPE  H11B 6847   2.342   3.006  12.458  1.4582  0.7489 -0.3485
   54DOPE     P 6848   2.204   3.203  12.302 -0.5894 -0.0660  0.0728
   54DOPE   O13 6849   2.140   3.071  12.305  0.2991 -0.2986  0.4406
   54DOPE   O14 6850   2.287   3.237  12.179  0.2853  0.2891  0.0522
   54DOPE   O11 6851   2.099   3.313  12.348 -0.0203  0.3959 -0.1371
   54DOPE   O12 6852   2.304   3.208  12.422 -0.0128 -0.0449  0.0225
   54DOPE    C1 6853   2.103   3.382  12.470  0.4584 -0.0936 -0.5526
   54DOPE    HA 6854   2.046   3.476  12.458  1.0075  0.3311  0.0694
   54DOPE    HB 6855   2.208   3.407  12.496  1.9695 -3.8586 -2.2419
   54DOPE    C2 6856   2.024   3.295  12.577 -0.1855 -0.4163 -0.0497
   54DOPE    HS 6857   2.048   3.188  12.559 -2.6973 -1.0468  0.0235
   54DOPE   O21 6858   1.886   3.320  12.558  0.3089  0.8215 -0.1792
   54DOPE   C21 6859   1.795   3.227  12.570 -0.0441  0.0754  1.0969
   54DOPE   O22 6860   1.821   3.108  12.593 -0.1426  0.2815  0.1433
   54DOPE   C22 6861   1.659   3.289  12.555 -0.0682  0.5272  0.0068
   54DOPE   H2R 6862   1.637   3.285  12.447 -1.0863 -0.9988  0.2372
   54DOPE   H2S 6863   1.657   3.391  12.599 -0.6130  0.2955  0.5388
   54DOPE    C3 6864   2.067   3.321  12.724  0.2511  0.4097  0.5273
   54DOPE    HX 6865   2.052   3.431  12.728  0.8850  0.5781 -1.0267
   54DOPE    HY 6866   2.176   3.303  12.735  0.1081 -0.2187  0.9770
   54DOPE   O31 6867   1.978   3.254  12.818  0.3971 -0.3225 -0.2253
   54DOPE   C31 6868   2.023   3.140  12.863  0.1892 -0.1887  0.3170
   54DOPE   O32 6869   2.131   3.091  12.830  0.0489 -0.0558 -0.4518
   54DOPE   C32 6870   1.931   3.091  12.973  0.1182 -0.3314 -0.3522
   54DOPE   H2X 6871   1.934   3.160  13.060 -1.7690 -1.1234  0.3927
   54DOPE   H2Y 6872   1.828   3.087  12.933  0.1219  1.9081 -0.7085
   54DOPE   C23 6873   1.546   3.221  12.634 -0.2245  0.1831 -0.6933
   54DOPE   H3R 6874   1.558   3.111  12.624 -1.0513 -0.1185  1.2685
   54DOPE   H3S 6875   1.447   3.253  12.596  0.3163  1.2244 -1.2663
   54DOPE   C24 6876   1.535   3.256  12.782 -0.2359 -0.0739  0.2367
   54DOPE   H4R 6877   1.549   3.365  12.798  0.8341 -0.2869  0.8895
   54DOPE   H4S 6878   1.616   3.207  12.841  0.6644 -0.3779 -1.2081
   54DOPE   C25 6879   1.397   3.226  12.850  0.1773 -0.2493  0.1478
   54DOPE   H5R 6880   1.391   3.115  12.855  0.1283 -0.2918 -0.6828
   54DOPE   H5S 6881   1.311   3.258  12.788  1.0932 -0.5024 -1.2902
   54DOPE   C26 6882   1.378   3.296  12.995  1.2700  0.2699 -0.4383
   54DOPE   H6R 6883   1.381   3.405  12.974 -0.3725 -0.0376 -2.7229
   54DOPE   H6S 6884   1.462   3.271  13.063 -0.1215 -2.0445  0.5812
   54DOPE   C27 6885   1.244   3.273  13.066 -0.3377 -0.6612  0.0903
   54DOPE   H7R 6886   1.203   3.173  13.089 -1.3078 -0.1765  0.4999
   54DOPE   H7S 6887   1.163   3.317  13.004 -1.6890  0.7119  2.6794
   54DOPE   C28 6888   1.231   3.343  13.206 -0.3180 -0.7730 -0.6333
   54DOPE   H8R 6889   1.322   3.327  13.268 -0.2595  0.3529 -0.4226
   54DOPE   H8S 6890   1.153   3.275  13.248 -0.9759 -0.2636 -1.0079
   54DOPE   C29 6891   1.189   3.491  13.212 -0.9617  0.4850 -0.3146
   54DOPE   H9R 6892   1.192   3.547  13.118 -1.1052  1.6092  0.3297
   54DOPE  C210 6893   1.165   3.562  13.326  0.4182  0.2496 -0.5645
   54DOPE  H10R 6894   1.125   3.664  13.323 -1.0338 -0.2703  0.1116
   54DOPE  C211 6895   1.178   3.494  13.462  0.3691 -0.0850  0.0282
   54DOPE  H11R 6896   1.238   3.552  13.534  2.9438 -1.6996 -0.6813
   54DOPE  H11S 6897   1.211   3.388  13.462 -1.0471 -0.5595  0.7773
   54DOPE  C212 6898   1.031   3.497  13.518  0.3638 -0.2859 -0.6696
   54DOPE  H12R 6899   0.955   3.466  13.442 -1.2150 -0.3415  0.8844
   54DOPE  H12S 6900   1.005   3.601  13.544 -0.9099 -0.4980 -1.0150
   54DOPE  C213 6901   1.021   3.405  13.635 -0.2423  0.8104 -0.4275
   54DOPE  H13R 6902   0.983   3.465  13.720  0.2655 -1.3610  1.4021
   54DOPE  H13S 6903   1.116   3.359  13.670 -2.0885 -1.4690  1.8822
   54DOPE  C214 6904   0.942   3.283  13.602  0.1348  0.2593  0.2116
   54DOPE  H14R 6905   1.007   3.207  13.554 -0.9275 -0.6843  0.2211
   54DOPE  H14S 6906   0.853   3.291  13.536 -0.6086 -0.7398  1.0495
   54DOPE  C215 6907   0.891   3.214  13.735  0.3982 -0.1633  0.5409
   54DOPE  H15R 6908   0.810   3.275  13.779 -0.0335 -0.4517  0.1599
   54DOPE  H15S 6909   0.973   3.204  13.809  0.2288 -1.9194  0.5436
   54DOPE  C216 6910   0.835   3.068  13.724  0.8510 -0.7003 -0.1740
   54DOPE  H16R 6911   0.912   2.992  13.697 -0.2184 -0.9701 -2.7886
   54DOPE  H16S 6912   0.757   3.051  13.647  1.7244  3.8506 -2.3834
   54DOPE  C217 6913   0.782   3.018  13.857 -0.3875 -0.2600  0.0012
   54DOPE  H17R 6914   0.683   3.064  13.874 -0.5063 -0.8908  1.1167
   54DOPE  H17S 6915   0.851   3.046  13.939  0.0691  0.8636 -0.7387
   54DOPE  C218 6916   0.776   2.862  13.866  0.1812 -0.4224 -0.2970
   54DOPE  H18R 6917   0.692   2.836  13.799 -0.5769  4.1390 -1.4782
   54DOPE  H18S 6918   0.754   2.834  13.971  0.7872  2.8891  0.8366
   54DOPE  H18T 6919   0.875   2.821  13.836  1.2862  1.2699  0.7982
   54DOPE   C33 6920   1.991   2.956  13.026  0.7388 -0.4394  0.1495
   54DOPE   H3X 6921   2.102   2.961  13.023  0.6786  3.0254 -0.6521
   54DOPE   H3Y 6922   1.956   2.869  12.966 -1.2901  0.6343 -0.3062
   54DOPE   C34 6923   1.958   2.939  13.182 -0.7541 -0.0169 -0.5172
   54DOPE   H4X 6924   2.015   3.008  13.248 -0.9051 -1.3954  1.0992
   54DOPE   H4Y 6925   1.849   2.958  13.193 -0.8978 -0.3699 -1.2416
   54DOPE   C35 6926   1.985   2.788  13.228 -0.1428 -0.2758 -0.1304
   54DOPE   H5X 6927   2.086   2.754  13.197 -0.0846  0.3062 -0.6114
   54DOPE   H5Y 6928   1.921   2.718  13.171 -2.8415  2.4075 -0.6582
   54DOPE   C36 6929   1.973   2.763  13.381  0.0032 -0.6428 -0.1924
   54DOPE   H6X 6930   1.938   2.854  13.434  0.2304 -0.8332  0.2865
   54DOPE   H6Y 6931   2.073   2.731  13.416 -0.1460 -2.2136 -1.0874
   54DOPE   C37 6932   1.875   2.645  13.400  0.1107  0.9554  0.6285
   54DOPE   H7X 6933   1.780   2.669  13.348 -0.5210  1.7103  2.0726
   54DOPE   H7Y 6934   1.926   2.553  13.364 -1.1146  0.4395  0.1773
   54DOPE   C38 6935   1.826   2.625  13.549  0.5026  0.5394  0.5955
   54DOPE   H8X 6936   1.917   2.599  13.607  1.8505 -0.0596 -1.6619
   54DOPE   H8Y 6937   1.766   2.532  13.555  2.1557 -0.5612  0.7042
   54DOPE   C39 6938   1.740   2.734  13.616 -0.2982  0.1679  1.1132
   54DOPE   H9X 6939   1.700   2.807  13.544  0.5192 -0.3910  0.0545
   54DOPE  C310 6940   1.703   2.737  13.743  0.2200  0.3397  0.9153
   54DOPE  H10X 6941   1.656   2.826  13.787  1.4926  2.7576 -2.1234
   54DOPE  C311 6942   1.760   2.639  13.844 -0.2207  0.0385  0.0383
   54DOPE  H11X 6943   1.843   2.573  13.810 -0.0085 -1.4753  3.0863
   54DOPE  H11Y 6944   1.806   2.697  13.927 -0.6784  1.8512 -0.9213
   54DOPE  C312 6945   1.645   2.553  13.892  0.2414 -0.9167 -0.3943
   54DOPE  H12X 6946   1.570   2.622  13.937  0.8287  0.5624 -1.5980
   54DOPE  H12Y 6947   1.693   2.499  13.976  1.6767 -0.2449 -0.7535
   54DOPE  C313 6948   1.610   2.439  13.804  0.2287  0.1307  0.0397
   54DOPE  H13X 6949   1.557   2.470  13.711 -0.1789 -0.4516  0.0780
   54DOPE  H13Y 6950   1.711   2.405  13.772  0.7316  2.2150 -0.7541
   54DOPE  C314 6951   1.568   2.306  13.877  0.0466 -0.2432 -0.5901
   54DOPE  H14X 6952   1.649   2.261  13.937  0.3962  1.6328  0.4363
   54DOPE  H14Y 6953   1.525   2.236  13.803 -2.9026 -0.5301  1.2422
   54DOPE  C315 6954   1.450   2.339  13.973  0.8558 -0.6677 -0.0338
   54DOPE  H15X 6955   1.368   2.375  13.907 -2.8443 -3.6334  2.4745
   54DOPE  H15Y 6956   1.479   2.424  14.038 -0.2244 -0.0803 -0.2974
   54DOPE  C316 6957   1.379   2.225  14.045 -0.6693  0.4373  0.1193
   54DOPE  H16X 6958   1.457   2.176  14.108 -2.7006 -1.1971  1.5093
   54DOPE  H16Y 6959   1.348   2.154  13.965 -1.3215 -1.4784  1.9773
   54DOPE  C317 6960   1.259   2.260  14.131 -0.0781  0.6437 -0.3264
   54DOPE  H17X 6961   1.197   2.340  14.084 -0.4393  0.9621  0.6509
   54DOPE  H17Y 6962   1.208   2.164  14.153  0.9711  0.2109  0.3160
   54DOPE  C318 6963   1.306   2.310  14.270 -0.6376  0.1201  0.4060
   54DOPE  H18X 6964   1.341   2.224  14.332  0.2768 -0.8153 -1.3219
   54DOPE  H18Y 6965   1.397   2.373  14.256 -1.2377  1.3103  1.6842
   54DOPE  H18Z 6966   1.231   2.370  14.325  0.9257  0.2484  2.5251
   55DOPE     N 6967   0.955   3.977  11.603 -0.2689 -0.4940 -0.0558
   55DOPE   HN1 6968   1.044   4.000  11.555 -0.0399 -1.6391 -0.2010
   55DOPE   HN2 6969   0.917   3.883  11.582 -1.0693 -0.4917  1.3096
   55DOPE   HN3 6970   0.882   4.043  11.567 -1.0992 -2.0927 -1.4462
   55DOPE   C12 6971   0.980   3.997  11.754  0.0760 -0.2884 -0.4367
   55DOPE  H12A 6972   1.029   4.094  11.772 -1.6799  0.6498 -0.4719
   55DOPE  H12B 6973   1.055   3.917  11.773 -1.3743 -1.6769 -0.3313
   55DOPE   C11 6974   0.854   3.970  11.826  0.0938  0.2821  0.2607
   55DOPE  H11A 6975   0.810   3.871  11.801 -0.9005  0.9977 -0.9618
   55DOPE  H11B 6976   0.771   4.044  11.820 -0.7485 -0.6890 -0.4455
   55DOPE     P 6977   0.911   4.065  12.055 -0.3108  0.1280 -0.3902
   55DOPE   O13 6978   0.830   4.178  12.015  0.7068  0.4047  0.2861
   55DOPE   O14 6979   1.057   4.088  12.043 -0.4434 -0.1360 -0.2300
   55DOPE   O11 6980   0.886   4.018  12.200  0.3644 -0.5853  0.5239
   55DOPE   O12 6981   0.890   3.940  11.959 -0.5309  0.5483 -0.3335
   55DOPE    C1 6982   0.762   4.028  12.263  0.3826  0.1425  0.5456
   55DOPE    HA 6983   0.732   3.926  12.295 -1.8001  0.2703 -0.8538
   55DOPE    HB 6984   0.679   4.063  12.197 -0.2833 -2.9078 -0.3973
   55DOPE    C2 6985   0.769   4.116  12.394 -0.2173  0.3688 -0.4807
   55DOPE    HS 6986   0.841   4.198  12.376  0.9176 -0.6830 -0.8189
   55DOPE   O21 6987   0.821   4.026  12.502  0.0919 -0.8742 -0.2025
   55DOPE   C21 6988   0.959   4.031  12.505  0.7158  0.1513 -0.0212
   55DOPE   O22 6989   1.030   4.096  12.430 -0.3453 -0.2055 -0.3461
   55DOPE   C22 6990   1.002   3.952  12.630  0.1534 -0.6439 -0.0007
   55DOPE   H2R 6991   1.070   3.869  12.601  1.6687  0.7347 -0.5372
   55DOPE   H2S 6992   0.910   3.901  12.664 -0.0063 -1.6453 -1.8094
   55DOPE    C3 6993   0.635   4.167  12.437  0.1267 -0.2860 -0.5509
   55DOPE    HX 6994   0.560   4.085  12.433 -1.2025  0.9046 -0.9476
   55DOPE    HY 6995   0.600   4.247  12.369  1.7013 -0.5689 -1.7714
   55DOPE   O31 6996   0.641   4.216  12.575  0.2272 -0.7285 -0.3801
   55DOPE   C31 6997   0.714   4.320  12.596 -0.6413  0.4802  0.5356
   55DOPE   O32 6998   0.764   4.386  12.508 -0.5648  0.3930 -0.0391
   55DOPE   C32 6999   0.734   4.350  12.746  0.4326 -0.4173  0.1913
   55DOPE   H2X 7000   0.825   4.411  12.763 -0.1016  0.2837  0.5567
   55DOPE   H2Y 7001   0.654   4.419  12.780  0.6134 -1.5709  3.2397
   55DOPE   C23 7002   1.066   4.056  12.715  0.3478  0.1594  0.0664
   55DOPE   H3R 7003   1.008   4.150  12.718  2.5832  1.6554 -1.3080
   55DOPE   H3S 7004   1.158   4.085  12.661 -0.5857  1.3881 -0.9097
   55DOPE   C24 7005   1.095   3.997  12.856  0.8175  0.4832 -0.0240
   55DOPE   H4R 7006   1.161   3.911  12.833 -0.9031 -0.9098  0.0227
   55DOPE   H4S 7007   0.996   3.969  12.898  0.3063 -0.1368 -1.5793
   55DOPE   C25 7008   1.162   4.106  12.942  0.3507  0.3007 -0.3604
   55DOPE   H5R 7009   1.087   4.184  12.967 -1.0504 -0.7088 -1.2703
   55DOPE   H5S 7010   1.250   4.140  12.885  1.7533 -0.5171  1.2269
   55DOPE   C26 7011   1.210   4.057  13.087  0.1986  0.3193  0.0475
   55DOPE   H6R 7012   1.116   4.022  13.135 -0.2500 -1.5955 -2.0442
   55DOPE   H6S 7013   1.263   4.137  13.143 -0.0217 -0.3266  1.1909
   55DOPE   C27 7014   1.313   3.940  13.075 -0.1104 -0.5132 -0.1108
   55DOPE   H7R 7015   1.410   3.972  13.031 -0.8803  1.1106 -0.7223
   55DOPE   H7S 7016   1.267   3.866  13.006 -0.7260 -0.1050 -0.1502
   55DOPE   C28 7017   1.356   3.875  13.210  0.0631  0.7527 -0.1542
   55DOPE   H8R 7018   1.421   3.790  13.180  1.1571  1.6590 -0.4211
   55DOPE   H8S 7019   1.260   3.849  13.259  0.7904  0.6265  1.2632
   55DOPE   C29 7020   1.434   3.955  13.305  0.3620 -0.0222  0.0761
   55DOPE   H9R 7021   1.524   3.999  13.259 -0.9866  0.1744 -2.5542
   55DOPE  C210 7022   1.396   3.992  13.429 -0.2583 -0.6788  0.1236
   55DOPE  H10R 7023   1.472   4.040  13.492  1.1197 -1.1863 -1.0973
   55DOPE  C211 7024   1.261   3.959  13.492  0.1977 -0.4051  0.5912
   55DOPE  H11R 7025   1.261   3.852  13.522 -1.0784 -0.4210  0.6223
   55DOPE  H11S 7026   1.174   3.968  13.423  2.3896  0.9655 -2.2321
   55DOPE  C212 7027   1.245   4.036  13.630  0.6393  0.4851  0.1443
   55DOPE  H12R 7028   1.237   4.146  13.623 -0.9192  0.4031  0.4533
   55DOPE  H12S 7029   1.337   4.010  13.687 -0.5057 -0.6939  1.5188
   55DOPE  C213 7030   1.118   3.999  13.696 -0.5041  0.0699 -0.0615
   55DOPE  H13R 7031   1.103   3.891  13.676  0.2641  0.0802 -0.7449
   55DOPE  H13S 7032   1.030   4.060  13.667 -0.4498  0.4970  0.6520
   55DOPE  C214 7033   1.130   4.002  13.849 -0.1859  0.5146 -0.5079
   55DOPE  H14R 7034   1.207   3.930  13.884 -2.1280 -1.4823 -0.0524
   55DOPE  H14S 7035   1.030   3.967  13.884  0.0364 -1.0882 -1.3843
   55DOPE  C215 7036   1.161   4.143  13.910  0.7348 -0.3256 -0.9066
   55DOPE  H15R 7037   1.080   4.215  13.889  0.9239  0.8561  1.9214
   55DOPE  H15S 7038   1.254   4.186  13.867  0.9089  0.3512  0.1003
   55DOPE  C216 7039   1.185   4.138  14.059 -0.2114 -0.8123  0.0804
   55DOPE  H16R 7040   1.177   4.239  14.104  0.9949 -0.6258 -0.1055
   55DOPE  H16S 7041   1.281   4.099  14.100 -0.7932 -1.0867  1.2418
   55DOPE  C217 7042   1.083   4.045  14.128 -0.1422 -0.5377  0.0176
   55DOPE  H17R 7043   1.120   3.941  14.120 -1.6162 -0.9898 -1.4767
   55DOPE  H17S 7044   0.982   4.055  14.083 -0.0543  0.9197  0.0735
   55DOPE  C218 7045   1.067   4.081  14.276  0.8215  0.2579  0.3364
   55DOPE  H18R 7046   0.985   4.017  14.314  1.9743 -0.4428  1.7585
   55DOPE  H18S 7047   1.035   4.185  14.297  2.8809  0.7908  1.1433
   55DOPE  H18T 7048   1.155   4.050  14.337  1.0291  0.2728  0.0486
   55DOPE   C33 7049   0.719   4.218  12.830  0.0232  0.0393 -0.4197
   55DOPE   H3X 7050   0.784   4.144  12.780  0.8349  0.5120 -0.0892
   55DOPE   H3Y 7051   0.612   4.188  12.831 -0.9325  3.0247 -0.7753
   55DOPE   C34 7052   0.774   4.240  12.973 -0.7081  0.2760  0.3318
   55DOPE   H4X 7053   0.875   4.284  12.957 -1.3223  0.9797 -1.9977
   55DOPE   H4Y 7054   0.713   4.322  13.015 -2.4978 -0.9447  0.2024
   55DOPE   C35 7055   0.760   4.125  13.070 -0.4116 -0.8843  0.0258
   55DOPE   H5X 7056   0.792   4.028  13.026 -0.9759 -0.4795 -1.3092
   55DOPE   H5Y 7057   0.655   4.102  13.098 -0.0765 -0.7405  1.5354
   55DOPE   C36 7058   0.839   4.151  13.203 -0.1863 -0.3909 -0.6085
   55DOPE   H6X 7059   0.796   4.242  13.249  1.2207 -0.1097  0.2161
   55DOPE   H6Y 7060   0.946   4.176  13.185 -0.4815  0.0349 -1.9177
   55DOPE   C37 7061   0.816   4.029  13.293 -0.0098 -0.1063  0.0173
   55DOPE   H7X 7062   0.713   3.992  13.275  0.4097 -1.4175  0.2445
   55DOPE   H7Y 7063   0.895   3.962  13.253 -0.1234  0.6367 -1.5298
   55DOPE   C38 7064   0.842   4.067  13.441 -0.6582  0.0756  0.2263
   55DOPE   H8X 7065   0.946   4.106  13.453  0.7182 -2.5437 -2.0549
   55DOPE   H8Y 7066   0.835   3.967  13.489 -1.1453 -2.0827 -3.9465
   55DOPE   C39 7067   0.744   4.157  13.505 -0.2777 -0.0017 -0.4598
   55DOPE   H9X 7068   0.726   4.250  13.448  2.4116  0.9780  0.1585
   55DOPE  C310 7069   0.663   4.135  13.620  0.3773  0.0738  0.1847
   55DOPE  H10X 7070   0.587   4.210  13.647 -0.2332 -1.2142  2.2405
   55DOPE  C311 7071   0.681   4.029  13.715  0.5267 -0.0239 -0.3663
   55DOPE  H11X 7072   0.597   3.957  13.706  0.7490 -0.2386 -0.7451
   55DOPE  H11Y 7073   0.762   3.959  13.688 -0.0296 -0.8831  0.1487
   55DOPE  C312 7074   0.690   4.086  13.857 -1.2694  0.0464  0.8428
   55DOPE  H12X 7075   0.768   4.166  13.849 -1.4429  0.1428  0.1218
   55DOPE  H12Y 7076   0.732   4.017  13.934  0.9361  1.9958  1.5310
   55DOPE  C313 7077   0.563   4.148  13.911  0.1488 -0.6799 -0.6788
   55DOPE  H13X 7078   0.515   4.211  13.833  0.0530 -0.6048 -0.5603
   55DOPE  H13Y 7079   0.496   4.062  13.930  0.1443 -0.6891 -0.7354
   55DOPE  C314 7080   0.576   4.225  14.041 -0.2179  0.2450  0.0152
   55DOPE  H14X 7081   0.640   4.315  14.034  1.0011 -0.4038  2.1412
   55DOPE  H14Y 7082   0.638   4.155  14.100 -0.9003 -0.4679 -0.0890
   55DOPE  C315 7083   0.442   4.266  14.101 -0.6662 -0.3600 -0.5310
   55DOPE  H15X 7084   0.399   4.168  14.131  0.5584 -0.2021  2.0077
   55DOPE  H15Y 7085   0.378   4.320  14.028 -1.1072 -1.0048 -0.6321
   55DOPE  C316 7086   0.457   4.351  14.224  0.0714  0.7138  0.3572
   55DOPE  H16X 7087   0.505   4.444  14.185  0.8859 -0.0892 -0.6033
   55DOPE  H16Y 7088   0.519   4.302  14.302 -0.9005  0.7501  1.1814
   55DOPE  C317 7089   0.324   4.387  14.298  0.4770 -0.3017 -0.7086
   55DOPE  H17X 7090   0.271   4.303  14.350  1.6390 -0.0590  0.9488
   55DOPE  H17Y 7091   0.353   4.457  14.379  1.1498 -0.7567 -0.5411
   55DOPE  C318 7092   0.222   4.447  14.205 -0.7299 -0.0729  0.0628
   55DOPE  H18X 7093   0.149   4.505  14.265 -1.7567 -0.5070 -0.7463
   55DOPE  H18Y 7094   0.256   4.510  14.120 -0.7319  0.8635  0.7380
   55DOPE  H18Z 7095   0.164   4.369  14.151 -0.5207 -0.3634  0.2518
   56DOPE     N 7096   1.144   5.528  11.538  0.5786  0.7723 -0.6464
   56DOPE   HN1 7097   1.240   5.560  11.564  1.2553 -2.3720  1.3640
   56DOPE   HN2 7098   1.148   5.489  11.442 -0.1099  0.7595 -0.6705
   56DOPE   HN3 7099   1.070   5.600  11.548 -0.1609 -0.2457  2.7319
   56DOPE   C12 7100   1.108   5.426  11.637  0.0675  0.0192 -0.2931
   56DOPE  H12A 7101   1.198   5.370  11.669 -1.2379 -1.5027  0.8690
   56DOPE  H12B 7102   1.023   5.365  11.601 -0.5602  0.8315 -0.2075
   56DOPE   C11 7103   1.047   5.496  11.760 -0.3687 -0.9916  0.0315
   56DOPE  H11A 7104   1.021   5.422  11.839 -4.3716 -1.2881 -1.3386
   56DOPE  H11B 7105   0.952   5.543  11.726 -0.2257 -1.2114 -0.6662
   56DOPE     P 7106   1.241   5.564  11.912  0.1059 -0.0429 -0.1554
   56DOPE   O13 7107   1.329   5.681  11.922 -0.2791 -0.5253  0.5780
   56DOPE   O14 7108   1.314   5.442  11.877  0.1949  0.7552 -0.2229
   56DOPE   O11 7109   1.160   5.552  12.050  0.2299 -0.5190 -0.0510
   56DOPE   O12 7110   1.134   5.601  11.805 -0.3838  0.6632  0.8102
   56DOPE    C1 7111   1.111   5.669  12.122  0.2001  0.2479  0.1907
   56DOPE    HA 7112   1.045   5.732  12.059  2.0727  1.7656 -0.3514
   56DOPE    HB 7113   1.197   5.731  12.157  1.9859 -1.6323 -0.6811
   56DOPE    C2 7114   1.033   5.611  12.244 -0.3565  0.4704  0.3327
   56DOPE    HS 7115   0.941   5.569  12.197  0.0599  0.2903 -0.3387
   56DOPE   O21 7116   1.009   5.736  12.313 -0.1545 -0.2228 -0.2379
   56DOPE   C21 7117   0.890   5.772  12.344 -0.0132 -0.1473 -0.3702
   56DOPE   O22 7118   0.787   5.724  12.305 -0.1236 -0.4532 -0.2311
   56DOPE   C22 7119   0.898   5.893  12.439  0.6091 -0.2983 -0.1679
   56DOPE   H2R 7120   0.824   5.963  12.395 -0.6946 -1.4297  0.1051
   56DOPE   H2S 7121   0.998   5.939  12.433  0.2955  0.2749 -1.1817
   56DOPE    C3 7122   1.113   5.509  12.324 -0.0479  0.2109  0.0304
   56DOPE    HX 7123   1.175   5.563  12.398 -0.7235  0.7789  0.1956
   56DOPE    HY 7124   1.169   5.446  12.252 -0.9029  0.3484 -0.7719
   56DOPE   O31 7125   1.016   5.428  12.409  0.2234  0.1963  0.2839
   56DOPE   C31 7126   1.083   5.368  12.506  0.6031  0.8608 -0.6545
   56DOPE   O32 7127   1.205   5.359  12.510  0.8680 -0.2687  0.0168
   56DOPE   C32 7128   0.996   5.314  12.617 -0.8095 -0.0885  0.0771
   56DOPE   H2X 7129   0.891   5.332  12.584 -0.5540  1.9943  0.2342
   56DOPE   H2Y 7130   1.020   5.207  12.635 -0.2792  0.0346  0.1097
   56DOPE   C23 7131   0.853   5.871  12.590  0.0180  0.1489 -0.2314
   56DOPE   H3R 7132   0.771   5.795  12.594 -1.5405  1.7008 -1.4554
   56DOPE   H3S 7133   0.807   5.964  12.630  0.5242  1.5810 -2.7762
   56DOPE   C24 7134   0.970   5.815  12.673 -0.4086 -0.0667  0.3693
   56DOPE   H4R 7135   1.035   5.903  12.692 -0.1320  0.3234 -2.0435
   56DOPE   H4S 7136   1.031   5.750  12.607  1.0252  2.2389 -0.7180
   56DOPE   C25 7137   0.917   5.750  12.798 -0.3658  0.2621  0.3448
   56DOPE   H5R 7138   1.005   5.707  12.851  0.8173  1.6030 -0.4711
   56DOPE   H5S 7139   0.843   5.670  12.775  1.1128 -1.2600  0.6741
   56DOPE   C26 7140   0.848   5.849  12.896  0.0288  0.1932  0.2405
   56DOPE   H6R 7141   0.759   5.893  12.846 -1.1872 -2.1072  0.2149
   56DOPE   H6S 7142   0.920   5.921  12.940  0.7694  0.2820 -1.0869
   56DOPE   C27 7143   0.790   5.773  13.019  0.2977 -0.6510 -0.5128
   56DOPE   H7R 7144   0.870   5.744  13.090 -0.2702  1.2023  0.9598
   56DOPE   H7S 7145   0.740   5.681  12.981 -3.1721  1.1964 -0.8019
   56DOPE   C28 7146   0.701   5.864  13.105 -0.3215 -0.3102 -0.1899
   56DOPE   H8R 7147   0.654   5.930  13.029  1.0647  1.7877  0.7120
   56DOPE   H8S 7148   0.761   5.929  13.172 -0.8057  0.9166 -0.9167
   56DOPE   C29 7149   0.596   5.791  13.176  0.6194  0.0491  0.5778
   56DOPE   H9R 7150   0.579   5.702  13.114  0.8739  1.5953 -1.8793
   56DOPE  C210 7151   0.528   5.830  13.282 -0.0511  0.1819 -0.1209
   56DOPE  H10R 7152   0.452   5.759  13.318  0.0393 -0.3600 -0.9783
   56DOPE  C211 7153   0.527   5.962  13.359 -0.3815 -0.0106 -0.3769
   56DOPE  H11R 7154   0.421   5.988  13.383 -0.7299 -2.0442  0.5161
   56DOPE  H11S 7155   0.557   6.051  13.300 -0.3391  1.5566  1.8788
   56DOPE  C212 7156   0.624   5.961  13.483  0.8473  0.2666 -0.1879
   56DOPE  H12R 7157   0.607   6.059  13.533 -0.2093 -0.1320  0.2702
   56DOPE  H12S 7158   0.733   5.953  13.462  0.6094  1.1480 -1.8609
   56DOPE  C213 7159   0.573   5.874  13.603 -0.1993  0.1339 -0.0048
   56DOPE  H13R 7160   0.626   5.776  13.596  0.2528  0.3413  0.4596
   56DOPE  H13S 7161   0.470   5.848  13.572 -0.1270  0.9538 -0.9719
   56DOPE  C214 7162   0.600   5.929  13.742  0.1287 -0.1378  0.5407
   56DOPE  H14R 7163   0.545   6.025  13.751 -0.2009 -0.1001 -1.3273
   56DOPE  H14S 7164   0.707   5.952  13.759  0.6032 -1.2008 -0.8037
   56DOPE  C215 7165   0.552   5.827  13.851 -0.8349  0.1455 -0.1772
   56DOPE  H15R 7166   0.616   5.737  13.854  1.4793  1.7042  1.5067
   56DOPE  H15S 7167   0.441   5.817  13.844 -0.8963 -0.0996  0.9411
   56DOPE  C216 7168   0.574   5.891  13.991 -0.1386 -0.1352 -0.1420
   56DOPE  H16R 7169   0.522   5.989  13.997  0.0908  0.0031 -0.3870
   56DOPE  H16S 7170   0.683   5.908  14.008  0.5883 -1.6022 -2.8491
   56DOPE  C217 7171   0.524   5.805  14.108 -0.1446  0.3348 -0.0681
   56DOPE  H17R 7172   0.587   5.714  14.120 -3.6277 -2.0331  2.2610
   56DOPE  H17S 7173   0.423   5.767  14.080 -0.6055 -0.6601  2.6554
   56DOPE  C218 7174   0.518   5.889  14.235  0.5448  0.2109  0.1539
   56DOPE  H18R 7175   0.454   5.978  14.215 -0.8786 -0.9585 -0.7731
   56DOPE  H18S 7176   0.622   5.922  14.256  1.0751  2.6204 -4.7317
   56DOPE  H18T 7177   0.466   5.831  14.314 -0.6715  3.1069  1.6417
   56DOPE   C33 7178   1.005   5.402  12.742 -0.2670 -0.6369  0.2415
   56DOPE   H3X 7179   0.905   5.420  12.787 -1.7444 -1.0040 -2.6961
   56DOPE   H3Y 7180   1.042   5.506  12.729 -2.2449  0.0943  0.0737
   56DOPE   C34 7181   1.099   5.331  12.844  0.1586 -0.2653  0.7196
   56DOPE   H4X 7182   1.049   5.234  12.866 -0.1849  0.0956  1.5457
   56DOPE   H4Y 7183   1.197   5.304  12.798 -0.6102 -0.9811 -0.5704
   56DOPE   C35 7184   1.139   5.409  12.968 -0.2816 -0.6697  0.1597
   56DOPE   H5X 7185   1.183   5.505  12.935  0.4966 -0.9156  0.4568
   56DOPE   H5Y 7186   1.222   5.356  13.019  0.9700 -0.4526 -1.5388
   56DOPE   C36 7187   1.027   5.428  13.069  0.0200 -0.1584 -0.8613
   56DOPE   H6X 7188   1.009   5.320  13.088  1.2579 -0.1565  0.4822
   56DOPE   H6Y 7189   0.937   5.459  13.012  1.0877  0.8525 -2.0569
   56DOPE   C37 7190   1.074   5.505  13.197  0.2395 -0.5588 -0.4636
   56DOPE   H7X 7191   1.170   5.461  13.230  0.1861 -1.4006 -1.3872
   56DOPE   H7Y 7192   1.095   5.612  13.174  1.4282 -0.1567  2.1558
   56DOPE   C38 7193   0.994   5.493  13.324  0.2821 -0.1001 -0.2867
   56DOPE   H8X 7194   1.056   5.532  13.408  2.3147 -2.4270 -0.5905
   56DOPE   H8Y 7195   0.984   5.386  13.350 -3.4272  0.2646  0.4251
   56DOPE   C39 7196   0.858   5.564  13.320  0.0524 -0.2073  0.3718
   56DOPE   H9X 7197   0.864   5.672  13.305  2.8089 -0.4717 -1.2368
   56DOPE  C310 7198   0.736   5.503  13.315 -0.4703 -0.0987  0.3297
   56DOPE  H10X 7199   0.643   5.559  13.296 -1.6139 -0.5672  3.8725
   56DOPE  C311 7200   0.719   5.351  13.314  0.5334  0.1470 -0.5153
   56DOPE  H11X 7201   0.804   5.304  13.367 -0.6935 -1.0878  0.4132
   56DOPE  H11Y 7202   0.624   5.328  13.367  0.7335 -1.2913 -0.7557
   56DOPE  C312 7203   0.707   5.297  13.172 -0.4465 -0.0829  0.3850
   56DOPE  H12X 7204   0.802   5.313  13.118  1.1818 -0.1216  3.0788
   56DOPE  H12Y 7205   0.638   5.354  13.106 -0.2996 -1.2751 -0.8358
   56DOPE  C313 7206   0.650   5.152  13.185 -0.6390  0.1988  0.1761
   56DOPE  H13X 7207   0.708   5.088  13.255 -1.2939 -2.4450 -1.5159
   56DOPE  H13Y 7208   0.552   5.160  13.236 -0.7259  0.6529 -0.0552
   56DOPE  C314 7209   0.640   5.091  13.044 -0.3032 -0.3447 -0.0821
   56DOPE  H14X 7210   0.716   5.139  12.978 -0.2350 -0.0699  0.1913
   56DOPE  H14Y 7211   0.542   5.110  12.995  0.5319  1.9174 -1.0066
   56DOPE  C315 7212   0.677   4.945  13.038 -0.8600 -0.0548 -0.2952
   56DOPE  H15X 7213   0.608   4.893  13.109 -0.3835  0.4884  0.5861
   56DOPE  H15Y 7214   0.780   4.925  13.074 -1.2277  0.0912  0.8776
   56DOPE  C316 7215   0.656   4.867  12.913  0.0784 -0.0583 -0.1372
   56DOPE  H16X 7216   0.709   4.929  12.837 -0.1647  0.8601  0.4256
   56DOPE  H16Y 7217   0.547   4.868  12.889 -0.4713  1.1136  2.0977
   56DOPE  C317 7218   0.718   4.730  12.906  0.3916 -0.1581  0.1585
   56DOPE  H17X 7219   0.680   4.667  12.823 -2.0483  0.7022  0.5414
   56DOPE  H17Y 7220   0.828   4.749  12.907  0.4114 -0.0069 -1.5587
   56DOPE  C318 7221   0.682   4.657  13.040  0.2506  0.2396 -0.7884
   56DOPE  H18X 7222   0.573   4.653  13.065  0.2937 -0.2854 -0.6761
   56DOPE  H18Y 7223   0.731   4.560  13.057 -1.5652 -0.3153  1.9182
   56DOPE  H18Z 7224   0.728   4.718  13.121  1.3407 -0.2959 -0.9911
   57DOPE     N 7225   1.589   1.727  11.426  0.0915  0.3704  0.0528
   57DOPE   HN1 7226   1.537   1.787  11.359  1.4724  0.8406 -0.6440
   57DOPE   HN2 7227   1.689   1.748  11.406  1.2467 -2.5823  2.0836
   57DOPE   HN3 7228   1.580   1.626  11.404 -0.6294  0.0962  1.5053
   57DOPE   C12 7229   1.575   1.756  11.572 -0.4029 -0.3866  0.3978
   57DOPE  H12A 7230   1.471   1.721  11.590 -0.0038 -2.5780 -1.1276
   57DOPE  H12B 7231   1.591   1.866  11.578 -0.3514 -0.2357 -1.7430
   57DOPE   C11 7232   1.665   1.674  11.663 -0.0971  0.6583  0.2117
   57DOPE  H11A 7233   1.621   1.574  11.686  3.5383 -1.4812 -1.1547
   57DOPE  H11B 7234   1.682   1.737  11.753 -0.4503  2.1371 -0.7195
   57DOPE     P 7235   1.923   1.708  11.638 -0.3741  0.1541 -0.2258
   57DOPE   O13 7236   1.917   1.854  11.609  0.4039  0.0913 -0.2230
   57DOPE   O14 7237   2.036   1.634  11.575 -0.8443  0.7680 -0.4272
   57DOPE   O11 7238   1.920   1.685  11.794  0.0539 -0.0113  0.9345
   57DOPE   O12 7239   1.785   1.642  11.596  0.2891  0.2489 -0.0201
   57DOPE    C1 7240   1.951   1.556  11.846  0.1513  0.7781  0.4346
   57DOPE    HA 7241   2.053   1.518  11.822  0.0140 -1.1098  2.5156
   57DOPE    HB 7242   1.891   1.481  11.792 -0.4148  3.1271 -2.4400
   57DOPE    C2 7243   1.927   1.545  11.997  0.1104  0.2930  0.1028
   57DOPE    HS 7244   1.944   1.437  12.017  0.0297  0.3883  0.7173
   57DOPE   O21 7245   1.791   1.573  12.030  0.7838  0.3173 -0.2661
   57DOPE   C21 7246   1.699   1.483  11.995  0.3527  0.2694  0.7102
   57DOPE   O22 7247   1.725   1.373  11.952  0.1262  1.1498 -0.2579
   57DOPE   C22 7248   1.562   1.543  12.006 -0.9998  0.1695 -0.3559
   57DOPE   H2R 7249   1.508   1.546  11.909 -4.6149 -2.2470  1.3312
   57DOPE   H2S 7250   1.577   1.647  12.042  2.3362 -0.6406  0.8926
   57DOPE    C3 7251   2.035   1.623  12.076  0.1292 -0.4242  0.1838
   57DOPE    HX 7252   2.008   1.729  12.058  2.3448 -0.1582 -2.2708
   57DOPE    HY 7253   2.140   1.613  12.043 -0.1792 -0.7874 -0.7195
   57DOPE   O31 7254   2.025   1.587  12.215  0.0798 -0.0676  0.2031
   57DOPE   C31 7255   1.943   1.660  12.288  0.3634 -0.2048  0.3597
   57DOPE   O32 7256   1.860   1.742  12.241  0.1457  0.1183 -0.2110
   57DOPE   C32 7257   1.955   1.634  12.433 -0.5331  0.1707  0.4492
   57DOPE   H2X 7258   1.991   1.530  12.440  1.4035  0.7479 -0.3347
   57DOPE   H2Y 7259   2.038   1.700  12.468  0.7394  0.0747 -2.1854
   57DOPE   C23 7260   1.459   1.468  12.094 -0.6200  0.4523 -0.3614
   57DOPE   H3R 7261   1.450   1.368  12.047  0.8599  0.3036 -0.3747
   57DOPE   H3S 7262   1.368   1.531  12.084 -0.1814  0.9808 -1.2636
   57DOPE   C24 7263   1.493   1.458  12.246 -0.0519 -0.7761 -0.0101
   57DOPE   H4R 7264   1.499   1.553  12.302 -1.0453 -0.0945 -1.0052
   57DOPE   H4S 7265   1.594   1.414  12.254 -0.4842 -1.9104 -0.4926
   57DOPE   C25 7266   1.394   1.368  12.317  0.0638 -0.3159  0.1327
   57DOPE   H5R 7267   1.374   1.275  12.260 -0.3674  0.2277 -0.6296
   57DOPE   H5S 7268   1.292   1.411  12.329 -0.0582 -0.5896  0.0793
   57DOPE   C26 7269   1.453   1.324  12.454  0.9287 -0.5093 -0.1873
   57DOPE   H6R 7270   1.491   1.418  12.499 -1.8713  0.5870  0.0722
   57DOPE   H6S 7271   1.537   1.255  12.429  1.1100  0.3048 -1.9281
   57DOPE   C27 7272   1.348   1.252  12.545 -0.0659 -0.1862  0.6887
   57DOPE   H7R 7273   1.297   1.173  12.486  0.1867 -1.5751  2.2728
   57DOPE   H7S 7274   1.264   1.323  12.560 -1.4979 -1.6812  0.0742
   57DOPE   C28 7275   1.394   1.198  12.674  0.5202 -0.2060  0.2564
   57DOPE   H8R 7276   1.499   1.167  12.655  0.7767  0.6255  0.2795
   57DOPE   H8S 7277   1.326   1.111  12.687 -0.8941  0.9410  0.6832
   57DOPE   C29 7278   1.378   1.297  12.787  0.4663 -0.3711  1.3232
   57DOPE   H9R 7279   1.358   1.403  12.763  0.5724 -0.4512  0.8696
   57DOPE  C210 7280   1.366   1.269  12.914 -0.6322  0.3575  0.2918
   57DOPE  H10R 7281   1.342   1.347  12.988  1.0194 -1.8276  3.3393
   57DOPE  C211 7282   1.382   1.128  12.983 -0.0978 -0.4713 -0.0953
   57DOPE  H11R 7283   1.486   1.105  13.013  0.1937  1.1267  0.2154
   57DOPE  H11S 7284   1.351   1.042  12.920 -1.4895  0.3047 -0.5097
   57DOPE  C212 7285   1.297   1.122  13.110 -0.1258  0.3095 -0.3515
   57DOPE  H12R 7286   1.276   1.014  13.125 -1.6895  0.8657  1.8443
   57DOPE  H12S 7287   1.195   1.157  13.087 -1.2695 -1.6449  1.3834
   57DOPE  C213 7288   1.358   1.199  13.231  0.4577  0.6601  0.3122
   57DOPE  H13R 7289   1.381   1.303  13.199  0.2519  0.1217 -1.6860
   57DOPE  H13S 7290   1.458   1.158  13.258  1.6716  3.2229 -0.0348
   57DOPE  C214 7291   1.269   1.199  13.352 -0.5893 -0.6919  0.7764
   57DOPE  H14R 7292   1.241   1.093  13.370 -0.8265 -0.7382  0.1541
   57DOPE  H14S 7293   1.185   1.272  13.345 -1.9328 -2.2075  0.3329
   57DOPE  C215 7294   1.349   1.223  13.481 -0.8914 -0.2913  0.5946
   57DOPE  H15R 7295   1.382   1.329  13.481  0.7439 -0.7825  1.3011
   57DOPE  H15S 7296   1.430   1.148  13.479 -0.4578  0.1115  2.0390
   57DOPE  C216 7297   1.268   1.195  13.613  0.1765 -0.2977 -0.7561
   57DOPE  H16R 7298   1.224   1.093  13.612 -1.4590  0.3592  0.5081
   57DOPE  H16S 7299   1.174   1.254  13.604 -0.0800 -0.3740  1.0971
   57DOPE  C217 7300   1.342   1.231  13.742 -0.0150  0.2694 -0.0641
   57DOPE  H17R 7301   1.375   1.335  13.724  1.0018  0.2300  1.3703
   57DOPE  H17S 7302   1.435   1.170  13.739  0.0372  0.3463 -2.4127
   57DOPE  C218 7303   1.261   1.224  13.878  0.2790 -0.1142 -0.1293
   57DOPE  H18R 7304   1.161   1.272  13.871  0.1076 -0.3680  0.4700
   57DOPE  H18S 7305   1.328   1.285  13.944  0.5986 -1.1110  0.4883
   57DOPE  H18T 7306   1.257   1.118  13.910 -3.0963 -0.2934 -0.8808
   57DOPE   C33 7307   1.829   1.655  12.521  0.0467  0.3645 -0.3764
   57DOPE   H3X 7308   1.765   1.565  12.513 -0.2557  0.3864  1.5269
   57DOPE   H3Y 7309   1.771   1.746  12.493 -1.3206  0.4063  2.3330
   57DOPE   C34 7310   1.869   1.674  12.666 -0.2774 -0.0957  0.2826
   57DOPE   H4X 7311   1.929   1.586  12.698 -1.8578 -1.4336 -0.2502
   57DOPE   H4Y 7312   1.933   1.764  12.664 -0.8788  0.3624  0.9816
   57DOPE   C35 7313   1.762   1.672  12.779 -0.6116 -0.7909 -0.7392
   57DOPE   H5X 7314   1.689   1.589  12.773 -1.8633  0.3241 -1.5950
   57DOPE   H5Y 7315   1.698   1.763  12.779  0.6907  0.2276  1.3215
   57DOPE   C36 7316   1.827   1.662  12.916 -0.0189  0.4570 -0.3975
   57DOPE   H6X 7317   1.917   1.727  12.921  1.5804 -1.5621 -1.2836
   57DOPE   H6Y 7318   1.867   1.559  12.929  1.7179  1.0629 -0.6239
   57DOPE   C37 7319   1.726   1.701  13.026  0.1543  0.2743 -0.4521
   57DOPE   H7X 7320   1.708   1.810  13.021 -1.0490  0.1109  0.0839
   57DOPE   H7Y 7321   1.621   1.665  13.017  0.0555  0.1362  1.0589
   57DOPE   C38 7322   1.784   1.662  13.166  0.1478 -0.2057 -0.3097
   57DOPE   H8X 7323   1.751   1.732  13.246 -2.2663 -1.0373 -0.4974
   57DOPE   H8Y 7324   1.891   1.687  13.147  0.2250 -0.7858 -0.6552
   57DOPE   C39 7325   1.765   1.516  13.211  0.0952 -0.2557  0.0521
   57DOPE   H9X 7326   1.783   1.429  13.145 -2.0637 -0.9478  0.2708
   57DOPE  C310 7327   1.709   1.477  13.327 -0.2863  0.4250 -0.0195
   57DOPE  H10X 7328   1.729   1.372  13.355 -0.3786  0.5818  0.6493
   57DOPE  C311 7329   1.686   1.557  13.452  0.1356 -0.8742  0.4187
   57DOPE  H11X 7330   1.752   1.645  13.467 -0.9138 -0.5111  3.7123
   57DOPE  H11Y 7331   1.581   1.592  13.454  0.3875 -0.1197  0.5715
   57DOPE  C312 7332   1.707   1.469  13.579  0.0245  0.8452  0.0007
   57DOPE  H12X 7333   1.658   1.369  13.572  0.5852  0.3802  1.9420
   57DOPE  H12Y 7334   1.658   1.522  13.663  1.8333  1.3755  0.7533
   57DOPE  C313 7335   1.856   1.441  13.610  0.2444 -0.2088  0.4687
   57DOPE  H13X 7336   1.903   1.404  13.517 -0.4470  0.0367  0.0125
   57DOPE  H13Y 7337   1.886   1.546  13.630 -1.2984  0.8670 -2.2408
   57DOPE  C314 7338   1.876   1.355  13.739 -0.1170  0.1192  0.4795
   57DOPE  H14X 7339   1.824   1.406  13.823 -0.8853 -1.2059  0.8406
   57DOPE  H14Y 7340   1.981   1.361  13.776  0.0033 -0.9664  0.3649
   57DOPE  C315 7341   1.820   1.213  13.733  0.0820  0.5494  0.4186
   57DOPE  H15X 7342   1.888   1.162  13.662  0.2455  0.6368  0.5111
   57DOPE  H15Y 7343   1.714   1.211  13.700  0.4594 -3.3104 -1.0122
   57DOPE  C316 7344   1.834   1.139  13.865 -0.1267  0.0099 -0.0412
   57DOPE  H16X 7345   1.942   1.146  13.889  0.2191 -1.1169 -1.1769
   57DOPE  H16Y 7346   1.811   1.031  13.857  1.4924 -0.2744 -1.7360
   57DOPE  C317 7347   1.759   1.193  13.989  0.1117 -0.2583 -0.2234
   57DOPE  H17X 7348   1.813   1.154  14.079 -0.0713  0.0540  0.0224
   57DOPE  H17Y 7349   1.757   1.304  13.988 -1.7111 -0.2659 -0.4158
   57DOPE  C318 7350   1.618   1.125  13.990 -0.0207  0.2619  0.2703
   57DOPE  H18X 7351   1.554   1.177  14.063 -0.1415 -1.8770  1.7898
   57DOPE  H18Y 7352   1.580   1.151  13.889 -0.0668 -1.9340 -0.3469
   57DOPE  H18Z 7353   1.617   1.017  14.018  0.2521  0.1713 -0.0544
   58DOPE     N 7354   1.102   3.136  11.782  0.1534  0.5893 -0.7014
   58DOPE   HN1 7355   1.100   3.038  11.749  0.3163 -0.4604  2.1390
   58DOPE   HN2 7356   1.197   3.163  11.816 -0.4845 -0.3351  2.1462
   58DOPE   HN3 7357   1.033   3.138  11.860  1.9214  1.3214  0.9535
   58DOPE   C12 7358   1.053   3.225  11.674  0.2982 -0.2188  0.2448
   58DOPE  H12A 7359   0.943   3.207  11.668 -0.1893  2.0531  1.2990
   58DOPE  H12B 7360   1.094   3.196  11.576 -3.0616  0.4909 -1.5193
   58DOPE   C11 7361   1.066   3.371  11.724 -0.0234 -0.1774 -0.0600
   58DOPE  H11A 7362   0.971   3.400  11.775 -0.4724 -1.8635  0.1041
   58DOPE  H11B 7363   1.071   3.425  11.626  0.2733 -1.9084 -1.0456
   58DOPE     P 7364   1.195   3.548  11.852 -0.1075  0.5678  0.2180
   58DOPE   O13 7365   1.128   3.632  11.750  0.3468 -0.6963 -0.4921
   58DOPE   O14 7366   1.335   3.584  11.884 -0.3583 -0.2817 -0.4104
   58DOPE   O11 7367   1.105   3.560  11.983 -0.0775  1.3492  0.2906
   58DOPE   O12 7368   1.185   3.401  11.798 -0.5120  0.0896 -0.1792
   58DOPE    C1 7369   1.099   3.455  12.078 -0.5359 -0.1187  0.2548
   58DOPE    HA 7370   1.161   3.367  12.050  1.9830  1.0214  1.9192
   58DOPE    HB 7371   0.995   3.415  12.075 -0.7056  0.3221  0.1244
   58DOPE    C2 7372   1.148   3.499  12.216  0.1577  0.6065  0.1170
   58DOPE    HS 7373   1.149   3.406  12.278 -0.1766 -2.2491 -3.7624
   58DOPE   O21 7374   1.064   3.593  12.282 -0.4174 -0.1622 -0.7163
   58DOPE   C21 7375   0.956   3.551  12.336 -0.2363  0.5229 -0.4278
   58DOPE   O22 7376   0.916   3.435  12.326 -0.2729  0.2521  0.1145
   58DOPE   C22 7377   0.899   3.663  12.422 -0.0858 -0.1218  0.3817
   58DOPE   H2R 7378   0.876   3.751  12.359 -1.0408 -0.0346  0.8335
   58DOPE   H2S 7379   0.974   3.689  12.500  0.5579 -3.6338  1.1004
   58DOPE    C3 7380   1.291   3.552  12.214 -0.4806 -0.1965  0.0406
   58DOPE    HX 7381   1.279   3.661  12.192  0.5097 -0.0377  0.2486
   58DOPE    HY 7382   1.359   3.514  12.135 -1.1373 -2.1974  0.3907
   58DOPE   O31 7383   1.353   3.524  12.336  0.2716  0.2022 -0.7746
   58DOPE   C31 7384   1.360   3.626  12.421  0.2846  0.1414  0.6764
   58DOPE   O32 7385   1.337   3.741  12.402 -0.0009 -0.0711  0.1241
   58DOPE   C32 7386   1.434   3.571  12.545 -0.6460  0.3047  0.2247
   58DOPE   H2X 7387   1.449   3.461  12.554 -0.8309  0.2458 -0.1605
   58DOPE   H2Y 7388   1.533   3.621  12.541 -0.9364  0.8259 -1.8156
   58DOPE   C23 7389   0.772   3.615  12.497 -0.5844 -0.5814 -0.0206
   58DOPE   H3R 7390   0.792   3.541  12.577 -1.8380 -1.6813 -0.6715
   58DOPE   H3S 7391   0.700   3.560  12.432  0.2261 -0.7423 -0.7891
   58DOPE   C24 7392   0.692   3.718  12.576 -0.3785  0.5191  0.5176
   58DOPE   H4R 7393   0.654   3.798  12.510  2.9589  1.8834  0.0321
   58DOPE   H4S 7394   0.768   3.769  12.639  2.1239 -0.0938 -1.8254
   58DOPE   C25 7395   0.582   3.656  12.664 -0.1847 -0.0097 -0.5185
   58DOPE   H5R 7396   0.626   3.581  12.733  0.4913 -0.8152 -1.7783
   58DOPE   H5S 7397   0.502   3.606  12.605 -0.8062  2.6853 -2.1584
   58DOPE   C26 7398   0.504   3.758  12.756 -0.3674 -0.5823  0.3036
   58DOPE   H6R 7399   0.461   3.839  12.693  1.0091  0.7087  0.9623
   58DOPE   H6S 7400   0.575   3.810  12.824 -0.8601  2.6195 -1.4827
   58DOPE   C27 7401   0.390   3.701  12.841  0.3080 -0.0735  0.1270
   58DOPE   H7R 7402   0.421   3.610  12.897 -1.0044 -0.7771 -0.2346
   58DOPE   H7S 7403   0.319   3.662  12.765  0.4920 -0.3256  0.0803
   58DOPE   C28 7404   0.316   3.814  12.916  0.5545  0.5216 -0.1803
   58DOPE   H8R 7405   0.217   3.771  12.943  0.7359  1.7898  2.9062
   58DOPE   H8S 7406   0.317   3.895  12.840  1.1894  2.5661  1.8778
   58DOPE   C29 7407   0.393   3.856  13.031 -0.4783 -0.5429  0.1294
   58DOPE   H9R 7408   0.500   3.880  13.020 -0.1987  0.5212  3.7094
   58DOPE  C210 7409   0.358   3.888  13.152  0.2572  0.3227 -0.2040
   58DOPE  H10R 7410   0.429   3.915  13.231 -0.3822  1.4916 -0.0126
   58DOPE  C211 7411   0.218   3.887  13.213 -0.1896 -0.1037  0.5857
   58DOPE  H11R 7412   0.133   3.868  13.143  1.6661 -0.4149 -1.7105
   58DOPE  H11S 7413   0.195   3.988  13.253 -0.3364  0.3905 -0.7118
   58DOPE  C212 7414   0.212   3.786  13.333  0.0303  0.1671  0.2359
   58DOPE  H12R 7415   0.251   3.688  13.300  2.7911  0.6367  1.7716
   58DOPE  H12S 7416   0.103   3.768  13.344  0.1654 -1.6691 -1.0222
   58DOPE  C213 7417   0.265   3.840  13.470 -0.2636 -0.2276 -0.2736
   58DOPE  H13R 7418   0.206   3.933  13.483 -1.5262 -1.0589  0.0922
   58DOPE  H13S 7419   0.374   3.859  13.464  0.1129 -1.9595  0.4310
   58DOPE  C214 7420   0.233   3.731  13.575  0.7187 -0.3257  0.1651
   58DOPE  H14R 7421   0.260   3.629  13.541 -0.1599 -0.7299  0.6363
   58DOPE  H14S 7422   0.122   3.722  13.583  0.6991  0.5710  1.2267
   58DOPE  C215 7423   0.290   3.751  13.717 -0.2642 -0.1479 -0.8886
   58DOPE  H15R 7424   0.252   3.842  13.768  1.8789  0.5147 -0.3546
   58DOPE  H15S 7425   0.398   3.774  13.703 -0.4352  1.8591  0.6698
   58DOPE  C216 7426   0.277   3.637  13.818 -0.4800 -0.1978  0.6186
   58DOPE  H16R 7427   0.306   3.543  13.767 -0.4279 -0.1226  0.5108
   58DOPE  H16S 7428   0.172   3.617  13.847 -0.0322 -1.4989  1.4118
   58DOPE  C217 7429   0.379   3.647  13.933 -0.3753 -1.0158 -0.1804
   58DOPE  H17R 7430   0.344   3.741  13.981  2.3175 -0.5292  1.0381
   58DOPE  H17S 7431   0.480   3.678  13.897 -1.3416  0.6587 -1.5850
   58DOPE  C218 7432   0.389   3.520  14.019 -0.5753 -0.8853 -0.0389
   58DOPE  H18R 7433   0.444   3.534  14.114  1.1367  1.1811 -1.2406
   58DOPE  H18S 7434   0.419   3.429  13.964  2.5377  0.4406 -0.7526
   58DOPE  H18T 7435   0.286   3.503  14.057 -0.3043  1.2880  1.9122
   58DOPE   C33 7436   1.360   3.611  12.677  0.3324  0.1456 -0.3809
   58DOPE   H3X 7437   1.356   3.721  12.671  2.4175  0.2893  0.2973
   58DOPE   H3Y 7438   1.435   3.581  12.753 -0.5961  2.3298  1.5036
   58DOPE   C34 7439   1.222   3.550  12.696  0.8772 -0.1724  0.1840
   58DOPE   H4X 7440   1.170   3.560  12.599  1.7681  0.4516 -0.2454
   58DOPE   H4Y 7441   1.227   3.441  12.715  0.1389 -0.2563 -0.0846
   58DOPE   C35 7442   1.144   3.623  12.805  0.6575 -0.4320 -0.0706
   58DOPE   H5X 7443   1.151   3.733  12.793  3.7612 -0.5482 -0.3377
   58DOPE   H5Y 7444   1.205   3.603  12.896  2.1383  0.0184 -0.9327
   58DOPE   C36 7445   1.008   3.568  12.843 -0.2720  0.0987 -0.5472
   58DOPE   H6X 7446   1.014   3.465  12.884 -2.8167 -0.2312 -0.8203
   58DOPE   H6Y 7447   0.941   3.578  12.755  1.0891  2.6804 -1.4122
   58DOPE   C37 7448   0.937   3.650  12.950  0.3015  0.7084  0.6962
   58DOPE   H7X 7449   1.005   3.655  13.037  1.1017  1.2675  0.0552
   58DOPE   H7Y 7450   0.916   3.750  12.907 -1.1106 -0.5626 -1.8036
   58DOPE   C38 7451   0.796   3.593  12.972 -1.0257 -0.1487 -0.2212
   58DOPE   H8X 7452   0.769   3.525  12.888 -0.1621 -2.3718  1.2079
   58DOPE   H8Y 7453   0.723   3.676  12.978  0.2435  0.8477  2.4388
   58DOPE   C39 7454   0.799   3.499  13.092 -0.7180 -0.3141 -0.1497
   58DOPE   H9X 7455   0.863   3.411  13.082  1.3395  0.9487  1.1109
   58DOPE  C310 7456   0.750   3.525  13.214  0.2621 -0.2540  0.0390
   58DOPE  H10X 7457   0.766   3.460  13.301  0.2468 -0.7131 -0.2990
   58DOPE  C311 7458   0.662   3.637  13.262  0.0105  0.0267  0.5355
   58DOPE  H11X 7459   0.721   3.712  13.319  0.6628 -0.9676  1.1882
   58DOPE  H11Y 7460   0.635   3.690  13.168  0.0590 -1.8531 -0.5920
   58DOPE  C312 7461   0.537   3.609  13.350 -0.8600  0.4633 -0.4594
   58DOPE  H12X 7462   0.482   3.519  13.313 -0.8892 -0.2172  1.1741
   58DOPE  H12Y 7463   0.462   3.691  13.348 -1.1575  0.2967  1.7217
   58DOPE  C313 7464   0.577   3.563  13.490  0.6676  0.1684 -0.4552
   58DOPE  H13X 7465   0.487   3.532  13.548  0.8891  1.7748  0.8118
   58DOPE  H13Y 7466   0.626   3.464  13.495  1.7413  0.7492  1.4597
   58DOPE  C314 7467   0.661   3.657  13.581 -0.6712 -0.4388  0.2280
   58DOPE  H14X 7468   0.609   3.755  13.584  1.1337  0.5369  1.3037
   58DOPE  H14Y 7469   0.766   3.666  13.546 -0.7931  2.0249  0.2871
   58DOPE  C315 7470   0.682   3.590  13.714  0.1352 -0.0202  0.5407
   58DOPE  H15X 7471   0.734   3.493  13.698 -0.1207  0.1000 -1.2800
   58DOPE  H15Y 7472   0.591   3.576  13.776 -0.9002  0.1391 -0.8908
   58DOPE  C316 7473   0.774   3.675  13.804 -0.1280 -0.2130 -0.7995
   58DOPE  H16X 7474   0.730   3.777  13.802 -3.2138 -1.4506 -0.9735
   58DOPE  H16Y 7475   0.876   3.678  13.758  0.7737  1.6277  1.1243
   58DOPE  C317 7476   0.804   3.616  13.942  0.1315 -0.8150  0.1527
   58DOPE  H17X 7477   0.709   3.600  13.996 -1.6500 -3.7267 -3.4090
   58DOPE  H17Y 7478   0.845   3.513  13.931  0.9271 -0.5181  0.2411
   58DOPE  C318 7479   0.891   3.698  14.043 -0.9123 -0.5473  0.6088
   58DOPE  H18X 7480   0.912   3.641  14.136  0.3341 -0.2605  0.5213
   58DOPE  H18Y 7481   0.987   3.711  13.988  0.4426  2.0266  3.2993
   58DOPE  H18Z 7482   0.852   3.801  14.060  0.3376  0.0629 -0.0266
   59DOPE     N 7483   0.902   0.960  10.925 -0.3067  0.3225 -0.0011
   59DOPE   HN1 7484   0.857   1.009  10.845  0.8514 -0.0936 -0.9392
   59DOPE   HN2 7485   0.860   0.996  11.013 -1.0210  0.5003 -0.4030
   59DOPE   HN3 7486   1.005   0.974  10.931 -0.2389 -0.4638  0.8563
   59DOPE   C12 7487   0.867   0.818  10.904  1.0366  0.2816  0.1680
   59DOPE  H12A 7488   0.936   0.752  10.962  2.6513  1.8364  0.0968
   59DOPE  H12B 7489   0.883   0.798  10.796 -0.5032  0.5349 -0.1361
   59DOPE   C11 7490   0.712   0.796  10.927 -0.0819  0.6418  0.0315
   59DOPE  H11A 7491   0.682   0.818  11.032 -0.0371 -2.0085  0.6681
   59DOPE  H11B 7492   0.692   0.687  10.922 -1.5973  0.8301  1.2374
   59DOPE     P 7493   0.553   0.816  10.719  0.0681  0.1815  0.0529
   59DOPE   O13 7494   0.629   0.709  10.652  0.1431 -0.1154 -0.5523
   59DOPE   O14 7495   0.496   0.925  10.645 -0.2778  0.3375  0.4084
   59DOPE   O11 7496   0.434   0.751  10.804  0.3148 -0.6526  0.6857
   59DOPE   O12 7497   0.640   0.883  10.837 -0.0191  0.0500 -0.2872
   59DOPE    C1 7498   0.317   0.826  10.831 -0.0331  0.4063  0.6329
   59DOPE    HA 7499   0.238   0.757  10.867  2.8470 -2.9123  1.1973
   59DOPE    HB 7500   0.279   0.879  10.741 -0.3589 -1.0267 -0.1100
   59DOPE    C2 7501   0.340   0.924  10.948  0.3855  0.8100 -0.1828
   59DOPE    HS 7502   0.436   0.975  10.926 -0.1173  1.3490 -1.1917
   59DOPE   O21 7503   0.354   0.849  11.072  0.4947 -0.2814  0.0835
   59DOPE   C21 7504   0.431   0.889  11.163 -0.3025 -0.3223 -0.9594
   59DOPE   O22 7505   0.492   0.995  11.171  0.5880  0.5485 -0.6494
   59DOPE   C22 7506   0.459   0.768  11.261  0.6862 -0.0943  0.8838
   59DOPE   H2R 7507   0.530   0.698  11.211 -2.1845 -0.9518 -2.4343
   59DOPE   H2S 7508   0.362   0.715  11.268  0.1252  0.8983  0.7940
   59DOPE    C3 7509   0.223   1.022  10.956 -0.4318  0.2070  0.0817
   59DOPE    HX 7510   0.130   0.966  10.978 -2.1906  1.4057 -3.5421
   59DOPE    HY 7511   0.214   1.071  10.857  1.3654 -0.0312 -0.2391
   59DOPE   O31 7512   0.235   1.120  11.062 -0.0614  0.7037 -0.0728
   59DOPE   C31 7513   0.320   1.219  11.042 -0.0740 -0.2000 -1.2399
   59DOPE   O32 7514   0.401   1.221  10.946 -0.0017  0.2155  0.1837
   59DOPE   C32 7515   0.319   1.324  11.154 -0.2190  0.2891  0.1766
   59DOPE   H2X 7516   0.213   1.352  11.169  0.2685  1.5574  1.5067
   59DOPE   H2Y 7517   0.354   1.259  11.237  0.6886  1.5648  0.8469
   59DOPE   C23 7518   0.490   0.815  11.402 -0.5067 -0.2062  0.2613
   59DOPE   H3R 7519   0.417   0.886  11.446 -1.5644 -2.0435  1.6363
   59DOPE   H3S 7520   0.590   0.860  11.417 -0.8464  0.2037  1.5085
   59DOPE   C24 7521   0.504   0.689  11.491 -0.0706 -0.4407 -0.4210
   59DOPE   H4R 7522   0.591   0.625  11.465  2.2366  1.8012  1.2793
   59DOPE   H4S 7523   0.410   0.630  11.485  0.7364 -1.8797  0.4898
   59DOPE   C25 7524   0.518   0.721  11.643 -0.3831 -0.4404 -0.4477
   59DOPE   H5R 7525   0.432   0.786  11.674  2.1256  2.1144  1.7950
   59DOPE   H5S 7526   0.601   0.793  11.660 -0.6242 -0.2233 -0.1654
   59DOPE   C26 7527   0.533   0.601  11.731  0.2277  0.1873 -0.1525
   59DOPE   H6R 7528   0.625   0.542  11.710 -0.2483 -0.8855  0.6878
   59DOPE   H6S 7529   0.448   0.531  11.713  2.3166 -2.5992  0.1164
   59DOPE   C27 7530   0.542   0.641  11.877 -0.4274 -0.1201 -0.0197
   59DOPE   H7R 7531   0.446   0.686  11.910  0.1645  0.4659  0.9417
   59DOPE   H7S 7532   0.624   0.714  11.892 -0.6366  0.3601 -1.1367
   59DOPE   C28 7533   0.576   0.524  11.975  0.8395 -0.0180  0.1720
   59DOPE   H8R 7534   0.610   0.554  12.077 -0.1016  0.0219  0.4848
   59DOPE   H8S 7535   0.672   0.485  11.936  2.2952  3.1206  0.3278
   59DOPE   C29 7536   0.478   0.416  11.981  0.2288 -0.4534  0.6333
   59DOPE   H9R 7537   0.476   0.361  11.885  2.6155 -0.3456  0.4723
   59DOPE  C210 7538   0.411   0.369  12.088 -0.2359  0.2068 -0.4589
   59DOPE  H10R 7539   0.347   0.279  12.083  0.8871 -0.6617  0.1999
   59DOPE  C211 7540   0.408   0.434  12.220  0.3218  0.1980 -0.1728
   59DOPE  H11R 7541   0.301   0.440  12.248  0.2303 -0.9699 -0.2300
   59DOPE  H11S 7542   0.432   0.543  12.215 -0.0390  0.3265  0.6973
   59DOPE  C212 7543   0.473   0.357  12.339  0.7947  0.0202 -0.4078
   59DOPE  H12R 7544   0.583   0.363  12.347  0.6809  0.6763  1.1533
   59DOPE  H12S 7545   0.435   0.253  12.336 -0.4556  0.4818 -2.1879
   59DOPE  C213 7546   0.426   0.423  12.470 -0.0987 -0.3223 -0.1217
   59DOPE  H13R 7547   0.461   0.364  12.557 -1.8909  0.9849  1.5680
   59DOPE  H13S 7548   0.315   0.428  12.473 -0.1658 -0.2353 -1.6135
   59DOPE  C214 7549   0.478   0.567  12.491  0.3291 -0.3115 -0.0581
   59DOPE  H14R 7550   0.438   0.631  12.410  0.3720  0.0528  0.2051
   59DOPE  H14S 7551   0.587   0.564  12.473  0.4183  0.2313  0.3745
   59DOPE  C215 7552   0.447   0.619  12.636 -0.7777  0.5860  0.0529
   59DOPE  H15R 7553   0.343   0.586  12.656 -0.1920 -2.0171 -0.8799
   59DOPE  H15S 7554   0.438   0.730  12.636  1.3843  0.8149  0.2265
   59DOPE  C216 7555   0.550   0.568  12.737 -0.4134  0.2397 -0.4324
   59DOPE  H16R 7556   0.656   0.581  12.705 -0.7864 -0.9552 -2.3193
   59DOPE  H16S 7557   0.541   0.457  12.739 -0.0119  0.2073 -0.1814
   59DOPE  C217 7558   0.536   0.630  12.872 -0.4303  0.1969  0.4446
   59DOPE  H17R 7559   0.436   0.612  12.917 -0.5139  0.9671  0.5855
   59DOPE  H17S 7560   0.553   0.739  12.860 -1.0870  0.0444 -2.5995
   59DOPE  C218 7561   0.641   0.589  12.975  0.0598 -0.0647 -0.6564
   59DOPE  H18R 7562   0.651   0.481  12.998  3.7412  0.5539  1.6194
   59DOPE  H18S 7563   0.604   0.638  13.068  0.2608  0.6394 -0.9452
   59DOPE  H18T 7564   0.740   0.625  12.940  0.1615  1.6942  1.2516
   59DOPE   C33 7565   0.410   1.448  11.136 -0.4184  0.6227  0.9346
   59DOPE   H3X 7566   0.416   1.484  11.031 -0.1679 -0.8815  0.4069
   59DOPE   H3Y 7567   0.511   1.415  11.169 -0.2179  1.7096  1.4448
   59DOPE   C34 7568   0.363   1.570  11.219 -0.3027 -0.1048  0.1559
   59DOPE   H4X 7569   0.423   1.656  11.181  2.9722 -0.7656  3.2783
   59DOPE   H4Y 7570   0.258   1.590  11.189  0.4521  0.5351 -2.3020
   59DOPE   C35 7571   0.365   1.548  11.371 -0.8327 -0.8919 -0.0902
   59DOPE   H5X 7572   0.455   1.498  11.412  0.0635  2.5451  2.5867
   59DOPE   H5Y 7573   0.275   1.491  11.402 -1.6497  1.8854  3.2424
   59DOPE   C36 7574   0.380   1.685  11.443  0.2918  0.1869 -0.3237
   59DOPE   H6X 7575   0.297   1.739  11.392  1.1541  0.2561 -1.6968
   59DOPE   H6Y 7576   0.482   1.722  11.419  0.3658  1.0172  1.1747
   59DOPE   C37 7577   0.362   1.677  11.598 -0.1056 -0.7162 -0.0664
   59DOPE   H7X 7578   0.421   1.590  11.634  0.8813  0.8183  2.2790
   59DOPE   H7Y 7579   0.397   1.775  11.639 -0.7254 -0.9172  0.9843
   59DOPE   C38 7580   0.209   1.670  11.648  0.2535 -0.0589  0.1680
   59DOPE   H8X 7581   0.160   1.576  11.615 -1.1645  0.2158  1.3558
   59DOPE   H8Y 7582   0.156   1.757  11.605  2.9442  0.6002 -2.0851
   59DOPE   C39 7583   0.205   1.679  11.803 -0.3057 -0.0177 -0.2366
   59DOPE   H9X 7584   0.220   1.579  11.845 -1.5039  0.2666  0.9296
   59DOPE  C310 7585   0.189   1.783  11.886  0.2190 -0.6712  0.3269
   59DOPE  H10X 7586   0.197   1.759  11.993 -0.9124 -3.1068 -0.0792
   59DOPE  C311 7587   0.175   1.928  11.857  0.3331 -0.7172  0.2709
   59DOPE  H11X 7588   0.171   1.943  11.747  0.3778 -0.6962  0.2724
   59DOPE  H11Y 7589   0.078   1.961  11.901  0.0660  0.2595 -1.0193
   59DOPE  C312 7590   0.289   2.012  11.914  0.1029 -0.1223 -0.0281
   59DOPE  H12X 7591   0.305   1.989  12.021 -0.1273 -1.7810 -0.3261
   59DOPE  H12Y 7592   0.254   2.118  11.915  0.5285  0.0286 -0.5338
   59DOPE  C313 7593   0.419   2.008  11.835  0.8426  0.1241 -0.4122
   59DOPE  H13X 7594   0.448   1.901  11.826  0.7873  0.1517 -1.0025
   59DOPE  H13Y 7595   0.394   2.052  11.736  0.9861 -0.5260 -0.7478
   59DOPE  C314 7596   0.532   2.081  11.904  0.1704 -0.1564 -0.2831
   59DOPE  H14X 7597   0.494   2.163  11.969  0.8051  0.8944 -1.2005
   59DOPE  H14Y 7598   0.607   2.125  11.835 -0.3444 -0.3587 -0.9818
   59DOPE  C315 7599   0.623   1.994  11.995 -0.0763  0.3729 -0.3678
   59DOPE  H15X 7600   0.686   1.933  11.927  0.4048 -0.3817  0.7123
   59DOPE  H15Y 7601   0.568   1.932  12.069  1.7784 -0.0511  0.7458
   59DOPE  C316 7602   0.716   2.089  12.077  0.1244 -0.3747  0.3810
   59DOPE  H16X 7603   0.653   2.123  12.162 -0.2768  0.1435 -0.1205
   59DOPE  H16Y 7604   0.743   2.175  12.013  0.2694 -0.4224  0.3784
   59DOPE  C317 7605   0.840   2.016  12.128 -0.4304  0.8686  0.7030
   59DOPE  H17X 7606   0.812   1.923  12.182 -0.3964  0.7932  0.5912
   59DOPE  H17Y 7607   0.890   1.975  12.038 -1.2434 -0.4574  0.8294
   59DOPE  C318 7608   0.935   2.101  12.204 -0.3922 -0.1610  0.1869
   59DOPE  H18X 7609   1.023   2.041  12.235  0.4240  2.0892  2.6065
   59DOPE  H18Y 7610   0.971   2.181  12.137 -1.5575  0.8802  0.7663
   59DOPE  H18Z 7611   0.887   2.157  12.288  0.1208 -1.1412  1.1656
   60DOPE     N 7612   0.518   5.753  11.624 -0.3319 -0.1236 -0.1465
   60DOPE   HN1 7613   0.459   5.671  11.650 -0.8894  0.0171 -0.9276
   60DOPE   HN2 7614   0.467   5.833  11.667 -0.9276  0.0961 -1.2213
   60DOPE   HN3 7615   0.508   5.753  11.521 -0.7756  1.7714 -0.1501
   60DOPE   C12 7616   0.652   5.748  11.678 -0.1545 -0.1151  0.7320
   60DOPE  H12A 7617   0.703   5.836  11.633 -0.1061 -1.5282 -2.2457
   60DOPE  H12B 7618   0.708   5.657  11.648 -0.3600 -0.4878  1.4674
   60DOPE   C11 7619   0.647   5.771  11.830  0.6796 -0.1796  0.3657
   60DOPE  H11A 7620   0.737   5.722  11.871 -0.2504 -1.8350  0.5096
   60DOPE  H11B 7621   0.555   5.723  11.870 -0.4211  0.2559 -1.5138
   60DOPE     P 7622   0.515   5.999  11.866 -0.4487  0.2779  0.5182
   60DOPE   O13 7623   0.432   5.972  11.744 -0.3015  0.6299  0.1452
   60DOPE   O14 7624   0.559   6.140  11.893  0.1361  0.4268  0.1280
   60DOPE   O11 7625   0.456   5.926  11.987 -0.0933  1.1300  0.3914
   60DOPE   O12 7626   0.652   5.918  11.848 -0.1471 -0.2117  0.1457
   60DOPE    C1 7627   0.539   5.883  12.095 -0.7802 -0.0204  0.5912
   60DOPE    HA 7628   0.632   5.943  12.108 -0.9286  0.2961  0.1884
   60DOPE    HB 7629   0.559   5.774  12.085  0.0886 -0.3217  4.1075
   60DOPE    C2 7630   0.468   5.908  12.230 -0.0842 -0.4201  0.1840
   60DOPE    HS 7631   0.521   5.859  12.314  0.7365 -1.6420 -0.9935
   60DOPE   O21 7632   0.335   5.855  12.224 -0.1626  0.0223  0.0811
   60DOPE   C21 7633   0.325   5.722  12.239  0.3460 -0.1100 -0.4433
   60DOPE   O22 7634   0.425   5.655  12.253 -0.0242  0.5451  0.0905
   60DOPE   C22 7635   0.190   5.682  12.234 -0.4205  0.7586  0.2212
   60DOPE   H2R 7636   0.193   5.599  12.160 -2.2357  0.2672  0.6502
   60DOPE   H2S 7637   0.122   5.755  12.185 -1.0559 -0.9464 -1.5883
   60DOPE    C3 7638   0.462   6.063  12.258 -0.7312  0.5544  0.2398
   60DOPE    HX 7639   0.398   6.107  12.178 -1.5605 -1.2844 -0.1487
   60DOPE    HY 7640   0.567   6.099  12.251  0.2260 -2.1249 -0.1568
   60DOPE   O31 7641   0.399   6.076  12.381  0.1729  0.2684 -0.4545
   60DOPE   C31 7642   0.302   6.168  12.388  0.0922 -0.3738 -0.0522
   60DOPE   O32 7643   0.269   6.251  12.308 -0.0675  0.4835 -0.1641
   60DOPE   C32 7644   0.217   6.143  12.513 -0.1240 -0.5530  0.1013
   60DOPE   H2X 7645   0.117   6.116  12.472  0.0860  0.9304 -1.4610
   60DOPE   H2Y 7646   0.250   6.046  12.556  0.5271 -0.5114 -0.2901
   60DOPE   C23 7647   0.135   5.609  12.357  0.1856  0.1875 -0.0307
   60DOPE   H3R 7648   0.215   5.541  12.392 -1.4128 -2.8903 -1.9817
   60DOPE   H3S 7649   0.050   5.548  12.321  0.9006 -0.5421 -0.5229
   60DOPE   C24 7650   0.086   5.703  12.467 -0.7361 -0.0862  0.5174
   60DOPE   H4R 7651   0.169   5.761  12.511 -0.3649  0.4951 -0.9033
   60DOPE   H4S 7652   0.044   5.650  12.556 -2.3282  0.6030  0.2216
   60DOPE   C25 7653  -0.021   5.806  12.422  0.6085 -0.2613 -0.1667
   60DOPE   H5R 7654  -0.099   5.762  12.356 -1.8732  0.4580  2.1028
   60DOPE   H5S 7655   0.026   5.891  12.368  1.2618 -0.4074  0.1678
   60DOPE   C26 7656  -0.107   5.867  12.541 -0.2756  0.3237 -0.3226
   60DOPE   H6R 7657  -0.167   5.954  12.506  0.8882  1.6034  0.7621
   60DOPE   H6S 7658  -0.041   5.903  12.623 -2.5172  0.1694  1.6865
   60DOPE   C27 7659  -0.207   5.768  12.600 -0.1205 -0.0197  0.1691
   60DOPE   H7R 7660  -0.177   5.672  12.554 -4.5092 -0.2892 -2.7585
   60DOPE   H7S 7661  -0.303   5.790  12.548  1.1086  2.6674 -1.1430
   60DOPE   C28 7662  -0.222   5.769  12.758 -0.5587 -0.5271  0.8063
   60DOPE   H8R 7663  -0.261   5.869  12.789  1.4820  0.1271  1.4031
   60DOPE   H8S 7664  -0.119   5.755  12.796  0.4314  2.4158 -0.5330
   60DOPE   C29 7665  -0.323   5.673  12.811 -1.0229  0.6342 -0.3645
   60DOPE   H9R 7666  -0.367   5.609  12.733 -0.1670  0.3006 -0.5878
   60DOPE  C210 7667  -0.351   5.643  12.939  0.2124 -0.2234  0.2351
   60DOPE  H10R 7668  -0.393   5.546  12.970 -0.6380  0.0768  0.0251
   60DOPE  C211 7669  -0.306   5.718  13.065  0.2467  0.1102  0.7745
   60DOPE  H11R 7670  -0.383   5.747  13.139  0.9103 -1.4037  2.1316
   60DOPE  H11S 7671  -0.259   5.814  13.034  1.4737 -1.3387 -2.4213
   60DOPE  C212 7672  -0.210   5.634  13.151 -0.0308 -0.3569  0.2411
   60DOPE  H12R 7673  -0.179   5.689  13.242  1.6584 -2.2984  0.9312
   60DOPE  H12S 7674  -0.121   5.610  13.090  0.0558  1.2371 -0.3010
   60DOPE  C213 7675  -0.278   5.514  13.219 -0.5843  0.0640 -0.1354
   60DOPE  H13R 7676  -0.311   5.452  13.133 -4.8125  0.8359  0.7215
   60DOPE  H13S 7677  -0.374   5.535  13.270 -0.7274  1.7572 -1.0353
   60DOPE  C214 7678  -0.176   5.431  13.309 -0.0638  0.1039  0.4471
   60DOPE  H14R 7679  -0.149   5.493  13.397  0.4275 -0.1732  0.4955
   60DOPE  H14S 7680  -0.088   5.416  13.244 -1.0094  0.4738 -0.9551
   60DOPE  C215 7681  -0.223   5.299  13.382  0.1984  0.8801  0.6953
   60DOPE  H15R 7682  -0.258   5.226  13.305  0.4116 -0.1135  1.5135
   60DOPE  H15S 7683  -0.312   5.317  13.445 -0.5834 -0.9199  0.1716
   60DOPE  C216 7684  -0.115   5.235  13.474  0.5201  0.0439  0.4915
   60DOPE  H16R 7685  -0.015   5.220  13.429  0.2886  1.7949 -0.7318
   60DOPE  H16S 7686  -0.144   5.131  13.499  2.2472 -0.8804 -1.0918
   60DOPE  C217 7687  -0.108   5.305  13.613 -0.1856  0.1685 -0.0347
   60DOPE  H17R 7688  -0.138   5.412  13.613 -1.4858 -0.1770 -0.8915
   60DOPE  H17S 7689   0.002   5.298  13.632 -0.0157 -1.0007 -1.2641
   60DOPE  C218 7690  -0.176   5.238  13.719 -0.1973  0.4557 -0.6179
   60DOPE  H18R 7691  -0.271   5.196  13.680  0.6859 -1.5320 -0.7196
   60DOPE  H18S 7692  -0.207   5.290  13.812 -0.6255  0.8969 -0.9997
   60DOPE  H18T 7693  -0.124   5.146  13.755 -1.0462  1.4134  3.6665
   60DOPE   C33 7694   0.225   6.247  12.624  0.4127 -0.3020  0.8170
   60DOPE   H3X 7695   0.160   6.333  12.597 -0.1780 -0.9497  0.1276
   60DOPE   H3Y 7696   0.326   6.292  12.636  2.1390 -3.2117 -1.4904
   60DOPE   C34 7697   0.158   6.192  12.752 -0.1167 -0.6767 -0.3212
   60DOPE   H4X 7698   0.055   6.153  12.733 -1.7457  1.9266  2.3555
   60DOPE   H4Y 7699   0.227   6.112  12.785  2.0705  1.0772 -0.4214
   60DOPE   C35 7700   0.145   6.302  12.858  0.4770 -0.0356 -0.4792
   60DOPE   H5X 7701   0.079   6.381  12.816  1.1061  0.8876  0.2501
   60DOPE   H5Y 7702   0.243   6.349  12.879  0.4152  0.0856 -0.4650
   60DOPE   C36 7703   0.095   6.243  12.995  0.1138  0.2808 -0.0663
   60DOPE   H6X 7704   0.139   6.142  13.001  0.2659  0.2427 -1.4693
   60DOPE   H6Y 7705  -0.015   6.231  12.982 -0.2871  2.1382  1.2207
   60DOPE   C37 7706   0.126   6.323  13.114  0.2660 -0.3451  0.3278
   60DOPE   H7X 7707   0.132   6.429  13.083  2.0928 -0.6033 -0.3446
   60DOPE   H7Y 7708   0.046   6.311  13.190  0.5353  1.1770  0.8768
   60DOPE   C38 7709   0.259   6.294  13.173 -0.2047  0.1904  0.3674
   60DOPE   H8X 7710   0.328   6.303  13.086 -1.1674 -0.1605 -0.4590
   60DOPE   H8Y 7711   0.260   6.188  13.207  1.2306  0.7345  2.1426
   60DOPE   C39 7712   0.312   6.380  13.281 -0.5839 -0.6323  0.3187
   60DOPE   H9X 7713   0.352   6.476  13.247 -3.8702  1.4655  1.8566
   60DOPE  C310 7714   0.294   6.354  13.411 -0.0640  0.0872  0.0110
   60DOPE  H10X 7715   0.322   6.429  13.486  2.6167  0.3748 -1.1586
   60DOPE  C311 7716   0.235   6.233  13.475  0.5753  0.3293  0.2898
   60DOPE  H11X 7717   0.217   6.150  13.403 -1.0680 -0.0772  1.1089
   60DOPE  H11Y 7718   0.303   6.192  13.552  0.5098 -0.7916 -0.2205
   60DOPE  C312 7719   0.102   6.261  13.554 -0.4927  0.3771  0.3986
   60DOPE  H12X 7720   0.019   6.286  13.483 -1.1341 -0.1588  0.9461
   60DOPE  H12Y 7721   0.100   6.361  13.602  1.2459  1.5674 -1.7926
   60DOPE  C313 7722   0.059   6.154  13.654  0.1467  0.2213 -0.2958
   60DOPE  H13X 7723   0.068   6.056  13.602  1.0670  0.9926 -1.6352
   60DOPE  H13Y 7724   0.134   6.158  13.736  0.4542 -0.2509 -0.5483
   60DOPE  C314 7725  -0.079   6.165  13.721  0.3285 -0.1326 -0.4253
   60DOPE  H14X 7726  -0.159   6.178  13.645  1.0719 -0.9407 -1.3831
   60DOPE  H14Y 7727  -0.082   6.241  13.802 -1.4765 -1.3872  0.7562
   60DOPE  C315 7728  -0.114   6.032  13.795 -0.4521  0.2309 -0.5361
   60DOPE  H15X 7729  -0.142   5.949  13.727 -0.4109 -0.6506  0.4858
   60DOPE  H15Y 7730  -0.212   6.044  13.846 -0.2543  2.0063 -0.5223
   60DOPE  C316 7731  -0.004   5.985  13.900  0.2067 -0.0364 -0.3140
   60DOPE  H16X 7732   0.092   5.967  13.847 -0.7523 -3.1060 -1.1663
   60DOPE  H16Y 7733  -0.031   5.885  13.940 -1.4835  0.8384  0.8784
   60DOPE  C317 7734   0.014   6.077  14.015  0.1955 -0.4268 -0.1194
   60DOPE  H17X 7735   0.095   6.034  14.077 -0.5984 -1.1347  0.4455
   60DOPE  H17Y 7736   0.062   6.169  13.975  1.7074 -1.6260 -1.1645
   60DOPE  C318 7737  -0.107   6.102  14.104 -0.4809 -0.1137  0.2165
   60DOPE  H18X 7738  -0.179   6.164  14.047 -0.6588  0.3091  0.8981
   60DOPE  H18Y 7739  -0.155   6.010  14.143 -0.0325 -0.5805 -0.3016
   60DOPE  H18Z 7740  -0.072   6.161  14.191 -1.6423  1.9032 -0.6352
   6123SM     N 7741   1.900   4.051  17.074 -0.2180  0.4172 -0.0777
   6123SM   C15 7742   1.799   3.988  17.163  0.4940 -0.2075 -0.8132
   6123SM  H15A 7743   1.826   3.887  17.189 -1.0126 -0.0461  1.7185
   6123SM  H15B 7744   1.701   3.979  17.117 -0.3762 -0.5342  1.0446
   6123SM  H15C 7745   1.788   4.050  17.250  0.9022  0.3158 -1.1290
   6123SM   C14 7746   1.851   4.192  17.055  0.0212 -0.5792  0.3809
   6123SM  H14A 7747   1.854   4.240  17.152  0.1733  2.7605 -1.1147
   6123SM  H14B 7748   1.756   4.214  17.007 -0.0112  0.3107  0.8246
   6123SM  H14C 7749   1.919   4.251  16.995 -1.4203  0.8279  0.0490
   6123SM   C13 7750   2.029   4.070  17.144 -0.5725  0.4850  0.0400
   6123SM  H13A 7751   2.024   4.140  17.226 -0.3201 -0.6940  1.0923
   6123SM  H13B 7752   2.107   4.102  17.078 -2.1841  0.3735 -2.0237
   6123SM  H13C 7753   2.078   3.978  17.175 -0.0895  1.3614  2.0364
   6123SM   C12 7754   1.904   3.980  16.945  0.3037  0.0701 -0.5015
   6123SM  H12A 7755   1.803   3.982  16.906 -0.8742  2.3717  2.2867
   6123SM  H12B 7756   1.928   3.875  16.961 -0.6258 -0.0886 -0.0914
   6123SM   C11 7757   2.001   4.030  16.837  0.1741  0.3527  0.3397
   6123SM  H11A 7758   1.957   4.125  16.799  0.4937 -0.4616 -2.3230
   6123SM  H11B 7759   1.995   3.955  16.755 -1.1832 -0.4130  1.1137
   6123SM     P 7760   2.240   3.941  16.882  0.6117  0.1170 -0.1654
   6123SM   O13 7761   2.369   3.983  16.938  0.1273 -0.1898  0.0114
   6123SM   O14 7762   2.176   3.813  16.932 -0.3803  0.2420  0.0441
   6123SM   O11 7763   2.261   3.922  16.729  0.0753 -0.4115 -0.3644
   6123SM   O12 7764   2.140   4.063  16.880 -0.0630  0.3623  0.9874
   6123SM   C1S 7765   2.280   4.038  16.647  0.7227  0.0030  0.3724
   6123SM   H1S 7766   2.371   4.093  16.678 -1.0431  2.9776  0.6497
   6123SM   H1T 7767   2.190   4.103  16.654 -2.0208 -3.5328  1.5908
   6123SM    NF 7768   2.313   4.124  16.421 -0.4625 -0.3808  0.3636
   6123SM   HNF 7769   2.233   4.151  16.368 -0.8653 -0.3258  0.9928
   6123SM   C2S 7770   2.299   4.001  16.500  0.4128 -0.0626  0.2519
   6123SM   H2S 7771   2.395   3.945  16.499  0.7362  0.4676  0.6739
   6123SM   C3S 7772   2.184   3.912  16.451  0.2613  0.4682  0.6326
   6123SM   H3S 7773   2.083   3.957  16.455 -0.0935 -0.2808  0.3463
   6123SM    O3 7774   2.177   3.792  16.528 -0.4231  0.0514 -0.1101
   6123SM   HO3 7775   2.218   3.814  16.612  0.7384  1.2436 -0.9444
   6123SM   C4S 7776   2.210   3.864  16.305  0.1514 -0.9069 -0.1519
   6123SM   H4S 7777   2.276   3.776  16.296 -0.0726 -0.9521 -1.5924
   6123SM   C5S 7778   2.135   3.893  16.197 -0.2829 -0.6610  0.1210
   6123SM   H5S 7779   2.040   3.939  16.226 -0.3481 -1.0143  0.4784
   6123SM   C6S 7780   2.153   3.836  16.059  0.0554  0.6400 -0.3649
   6123SM   H6S 7781   2.056   3.792  16.031  0.4958 -1.8873  1.7384
   6123SM   H6T 7782   2.224   3.751  16.050 -0.1231  0.4981 -0.4246
   6123SM   C7S 7783   2.189   3.947  15.955  0.1642 -0.7135 -0.1438
   6123SM   H7S 7784   2.288   3.973  15.997  0.4097 -0.8340 -0.6460
   6123SM   H7T 7785   2.121   4.034  15.963 -0.0352 -0.8258 -0.5936
   6123SM   C8S 7786   2.207   3.906  15.811  0.0552  0.6635  0.2195
   6123SM   H8S 7787   2.106   3.878  15.776 -0.2174 -1.0835  2.1958
   6123SM   H8T 7788   2.275   3.818  15.808  1.9386  2.0476 -1.6271
   6123SM   C9S 7789   2.269   4.009  15.721 -0.1543 -0.2505  0.8872
   6123SM   H9S 7790   2.374   4.039  15.742 -0.8295  2.6890  0.4264
   6123SM   H9T 7791   2.207   4.101  15.725  0.6501  0.3533  0.0237
   6123SM  C10S 7792   2.255   3.960  15.572 -0.1785 -0.8232  0.3733
   6123SM  H10S 7793   2.149   3.938  15.545  0.1392  0.2503 -1.9236
   6123SM  H10T 7794   2.309   3.864  15.556 -0.2498 -0.8112  0.0477
   6123SM  C11S 7795   2.299   4.066  15.473 -0.2592 -0.0162 -0.3929
   6123SM  H11S 7796   2.407   4.093  15.483  0.0606 -0.2088 -2.7523
   6123SM  H11T 7797   2.243   4.158  15.498 -0.1222 -0.1332  0.3759
   6123SM  C12S 7798   2.280   4.020  15.327  0.2232 -0.0109 -0.6357
   6123SM  H12S 7799   2.170   4.011  15.315  0.1620  0.1661 -0.2224
   6123SM  H12T 7800   2.311   3.913  15.321  2.9953  0.4888  2.2975
   6123SM  C13S 7801   2.350   4.113  15.229  0.1640 -0.1586  0.3261
   6123SM  H13S 7802   2.459   4.118  15.251  0.1645  2.0859  0.0563
   6123SM  H13T 7803   2.308   4.214  15.244  1.7522  1.3375 -3.7904
   6123SM  C14S 7804   2.310   4.086  15.081 -0.6143  0.3200 -0.4840
   6123SM  H14S 7805   2.316   4.188  15.038 -0.0367  1.5204  2.2381
   6123SM  H14T 7806   2.204   4.052  15.078 -0.5388  0.0471 -0.0506
   6123SM  C15S 7807   2.401   3.981  15.024 -0.1254 -0.3481  0.2217
   6123SM  H15S 7808   2.336   3.947  14.941 -1.5234  0.3127  0.9953
   6123SM  H15T 7809   2.420   3.894  15.090  0.2938 -1.4651 -1.3297
   6123SM  C16S 7810   2.527   4.050  14.968  0.0885 -0.4254 -0.6534
   6123SM  H16S 7811   2.589   4.088  15.052  0.0168 -1.9887  0.1340
   6123SM  H16T 7812   2.490   4.134  14.905 -2.5050  0.7599  2.2502
   6123SM  C17S 7813   2.606   3.958  14.885  0.2371  0.0920  0.2326
   6123SM  H17S 7814   2.705   3.999  14.855  0.5119 -0.3378  0.5377
   6123SM  H17T 7815   2.553   3.940  14.789 -0.8075  0.0585  0.8053
   6123SM  C18S 7816   2.638   3.824  14.960  0.7251  0.4032  0.3020
   6123SM  H18S 7817   2.544   3.771  14.985  0.4668  1.0604  0.7773
   6123SM  H18T 7818   2.704   3.845  15.048  0.9980 -1.7755  0.6679
   6123SM  H18U 7819   2.699   3.752  14.901 -0.8441 -0.1221 -0.7430
   6123SM   C1F 7820   2.414   4.213  16.437 -0.2910 -0.6034  0.0354
   6123SM    OF 7821   2.522   4.175  16.486 -0.7394 -0.3037 -0.0710
   6123SM   C2F 7822   2.392   4.360  16.406  0.1717  0.2657  0.0591
   6123SM   H2F 7823   2.425   4.410  16.500 -2.6977  2.3153  0.0975
   6123SM   H2G 7824   2.285   4.389  16.395  0.4881  0.9790 -1.4175
   6123SM   C3F 7825   2.494   4.398  16.292 -0.1056 -0.5527 -0.0769
   6123SM   H3F 7826   2.594   4.351  16.295  0.0577 -0.1604  0.9087
   6123SM   H3G 7827   2.507   4.508  16.283 -0.6151 -0.1855  2.6417
   6123SM   C4F 7828   2.437   4.344  16.157  0.1495 -0.6540 -0.4024
   6123SM   H4F 7829   2.334   4.385  16.145 -0.8048 -2.3213  1.4832
   6123SM   H4G 7830   2.429   4.233  16.153  2.3893 -0.8203 -2.0246
   6123SM   C5F 7831   2.521   4.397  16.042 -0.5855  0.0335 -0.4638
   6123SM   H5F 7832   2.624   4.357  16.051 -0.4422 -0.0724 -2.1867
   6123SM   H5G 7833   2.539   4.507  16.043  1.7980 -0.2807 -1.6264
   6123SM   C6F 7834   2.464   4.371  15.900 -0.4846  0.3733  0.1081
   6123SM   H6F 7835   2.370   4.424  15.870  0.1329  1.2666 -0.2990
   6123SM   H6G 7836   2.445   4.262  15.890 -1.6863  0.0986  3.9173
   6123SM   C7F 7837   2.568   4.398  15.796 -0.2797  0.4391  0.2637
   6123SM   H7F 7838   2.656   4.337  15.824 -1.7029 -1.0523  1.7512
   6123SM   H7G 7839   2.585   4.508  15.793 -1.1730  0.6058 -2.8476
   6123SM   C8F 7840   2.525   4.354  15.650 -0.0916  0.2338 -0.2173
   6123SM   H8F 7841   2.431   4.403  15.618  0.3942  0.2354 -1.7384
   6123SM   H8G 7842   2.499   4.246  15.657 -2.6082  0.7897  0.0013
   6123SM   C9F 7843   2.636   4.386  15.546 -0.8308  0.2817  0.5416
   6123SM   H9F 7844   2.713   4.309  15.564 -1.3832 -1.1742 -2.6696
   6123SM   H9G 7845   2.678   4.489  15.554 -0.4434  0.5366 -3.0482
   6123SM  C10F 7846   2.591   4.393  15.398  0.6972 -0.0466 -0.2023
   6123SM  H10F 7847   2.538   4.486  15.370  0.1351  0.1991  1.5865
   6123SM  H10G 7848   2.525   4.306  15.373  0.9035 -0.2218 -0.1376
   6123SM  C11F 7849   2.717   4.390  15.312  0.9408 -0.0558  0.1142
   6123SM  H11F 7850   2.783   4.306  15.342  0.4355 -0.6450 -0.3971
   6123SM  H11G 7851   2.771   4.485  15.334  0.5489  0.7138 -2.0014
   6123SM  C12F 7852   2.680   4.379  15.168  0.2956  1.0598  0.9630
   6123SM  H12F 7853   2.612   4.295  15.144  0.2215  1.0436  1.2285
   6123SM  H12G 7854   2.769   4.375  15.101  0.0094  1.8367  0.5197
   6123SM  C13F 7855   2.618   4.509  15.110  0.2507 -0.3922 -0.1528
   6123SM  H13F 7856   2.688   4.595  15.124 -0.1120 -0.3906  2.0136
   6123SM  H13G 7857   2.527   4.529  15.169 -2.4081 -3.7397 -2.7204
   6123SM  C14F 7858   2.552   4.490  14.977 -0.9660 -0.3289  0.7111
   6123SM  H14F 7859   2.508   4.590  14.955 -1.6276 -0.6171  0.7080
   6123SM  H14G 7860   2.465   4.425  14.956 -1.2977  0.5937 -0.9578
   6123SM  C15F 7861   2.661   4.465  14.870 -0.2741 -0.1563 -0.0224
   6123SM  H15F 7862   2.728   4.379  14.890  1.3790  0.7732 -1.2445
   6123SM  H15G 7863   2.730   4.552  14.876 -0.6402  0.1157  0.2647
   6123SM  C16F 7864   2.592   4.458  14.730 -0.2865  0.6116 -0.2925
   6123SM  H16F 7865   2.532   4.549  14.709 -0.4502  0.3842 -0.8384
   6123SM  H16G 7866   2.525   4.369  14.730 -1.0608  1.1774 -0.0546
   6123SM  C17F 7867   2.689   4.431  14.613  0.3516  0.1131  0.7438
   6123SM  H17F 7868   2.743   4.524  14.589 -1.4505  0.7608 -1.0909
   6123SM  H17G 7869   2.626   4.396  14.528  0.4727 -0.7219  0.9884
   6123SM  C18F 7870   2.808   4.331  14.640  0.1240  0.1654 -0.3511
   6123SM  H18F 7871   2.768   4.236  14.682  0.9909 -0.4490 -0.8943
   6123SM  H18G 7872   2.870   4.374  14.721  0.1928  1.0583 -0.8662
   6123SM  C19F 7873   2.899   4.316  14.516 -0.4519 -0.1154 -0.0699
   6123SM  H19F 7874   2.918   4.409  14.458 -0.4068 -0.0610  0.0327
   6123SM  H19G 7875   2.848   4.240  14.453 -0.4761 -0.1906  0.0406
   6123SM  C20F 7876   3.040   4.258  14.551 -0.3834 -0.2919  0.2420
   6123SM  H20F 7877   3.041   4.148  14.565  1.1413 -0.2851  0.2947
   6123SM  H20G 7878   3.071   4.316  14.640 -2.8464 -0.4209  1.2659
   6123SM  C21F 7879   3.143   4.287  14.442 -0.0402  0.3611 -0.4212
   6123SM  H21F 7880   3.231   4.238  14.487 -0.7508 -0.9653 -0.3988
   6123SM  H21G 7881   3.151   4.397  14.433  2.2855  0.0809 -3.1968
   6123SM  C22F 7882   3.104   4.229  14.299  0.9360 -0.5604 -0.1804
   6123SM  H22F 7883   3.144   4.298  14.221  0.3754  0.7218  0.6572
   6123SM  H22G 7884   2.995   4.241  14.281  0.6678 -1.5086  0.7264
   6123SM  C23F 7885   3.148   4.084  14.258 -0.7143 -0.4392 -0.3182
   6123SM  H23F 7886   3.257   4.072  14.279 -0.8709 -0.4240  0.5400
   6123SM  H23G 7887   3.130   4.061  14.151 -0.9604  0.8574 -0.5786
   6123SM  H23H 7888   3.102   4.003  14.318 -2.0238  1.5222  1.4843
   6223SM     N 7889   2.434   3.121  17.526 -0.7880 -0.8689  0.1482
   6223SM   C15 7890   2.324   3.031  17.559  0.2489 -0.2708  0.7310
   6223SM  H15A 7891   2.297   2.963  17.480 -1.1690  0.0633  0.8958
   6223SM  H15B 7892   2.232   3.083  17.581  0.0538 -0.9965  1.7134
   6223SM  H15C 7893   2.347   2.969  17.645 -0.2072 -0.7633  0.5043
   6223SM   C14 7894   2.455   3.228  17.627  0.4678 -0.0291 -0.2673
   6223SM  H14A 7895   2.371   3.296  17.636  0.7298  0.3066 -0.3086
   6223SM  H14B 7896   2.543   3.287  17.604  1.9151 -1.3729  1.5220
   6223SM  H14C 7897   2.466   3.176  17.721  0.1407  0.2658 -0.0632
   6223SM   C13 7898   2.564   3.037  17.532 -0.8651  0.8487 -0.0401
   6223SM  H13A 7899   2.572   2.962  17.454  0.2508  0.3432  0.5345
   6223SM  H13B 7900   2.559   2.988  17.628  1.6575  0.2756 -0.1249
   6223SM  H13C 7901   2.647   3.104  17.520  0.7544 -0.4957  2.7175
   6223SM   C12 7902   2.427   3.187  17.393 -0.4135  1.1097  0.2831
   6223SM  H12A 7903   2.517   3.241  17.368 -0.7517  1.6285  0.1645
   6223SM  H12B 7904   2.349   3.262  17.394 -1.3695  0.2163 -1.6313
   6223SM   C11 7905   2.388   3.109  17.263  0.0189 -0.5657 -0.0227
   6223SM  H11A 7906   2.459   3.026  17.244  0.3694 -0.8497  2.2123
   6223SM  H11B 7907   2.398   3.177  17.176  1.9254 -0.0296  0.5489
   6223SM     P 7908   2.128   3.132  17.255 -0.2837  0.4344 -0.0251
   6223SM   O13 7909   2.013   3.050  17.298  0.1198  0.4587 -0.1152
   6223SM   O14 7910   2.137   3.269  17.309  0.5209  0.0525 -0.3061
   6223SM   O11 7911   2.121   3.143  17.095  0.2825  0.3841  0.1839
   6223SM   O12 7912   2.260   3.056  17.284  0.3730 -0.0687  0.6551
   6223SM   C1S 7913   2.174   3.027  17.025  0.0521  0.5557  0.1870
   6223SM   H1S 7914   2.111   2.940  17.052 -2.0135  2.4288  1.7496
   6223SM   H1T 7915   2.281   3.010  17.051 -0.2897  0.4557  1.6067
   6223SM    NF 7916   2.157   2.925  16.803 -0.0241  0.1644 -0.3333
   6223SM   HNF 7917   2.244   2.883  16.777  0.0793 -0.0581  0.3337
   6223SM   C2S 7918   2.160   3.053  16.875 -0.5803 -0.0217 -0.2500
   6223SM   H2S 7919   2.061   3.103  16.872 -0.3306  0.4390 -1.1805
   6223SM   C3S 7920   2.275   3.146  16.824 -0.4112 -1.0034 -0.1448
   6223SM   H3S 7921   2.378   3.105  16.835  0.1018  0.7134  2.1141
   6223SM    O3 7922   2.286   3.262  16.904 -0.2768  0.1311 -0.9441
   6223SM   HO3 7923   2.228   3.248  16.978 -0.1150 -1.0262 -1.0097
   6223SM   C4S 7924   2.254   3.190  16.685 -0.7388 -0.2302 -0.3802
   6223SM   H4S 7925   2.179   3.269  16.675 -0.8957 -0.2896  0.2576
   6223SM   C5S 7926   2.334   3.145  16.586 -0.1463 -0.6625 -0.1591
   6223SM   H5S 7927   2.416   3.077  16.614 -0.2695 -0.3765  0.9344
   6223SM   C6S 7928   2.337   3.193  16.442  0.5100  0.6275  0.0791
   6223SM   H6S 7929   2.307   3.112  16.372 -2.7363  1.0331  0.8509
   6223SM   H6T 7930   2.443   3.214  16.414  1.2860 -3.0825 -0.3290
   6223SM   C7S 7931   2.275   3.329  16.394  0.4182  0.4308  0.1337
   6223SM   H7S 7932   2.311   3.400  16.472  0.6059  0.4466  0.0318
   6223SM   H7T 7933   2.164   3.328  16.393  0.4041 -0.7468  0.6594
   6223SM   C8S 7934   2.322   3.363  16.247  0.6048 -0.0141  0.4103
   6223SM   H8S 7935   2.431   3.381  16.252  0.4288  0.8685  1.1867
   6223SM   H8T 7936   2.276   3.457  16.209 -2.2092 -2.2228 -2.2193
   6223SM   C9S 7937   2.278   3.265  16.139 -0.5094  0.5165 -0.1517
   6223SM   H9S 7938   2.173   3.237  16.159 -0.4535 -0.5392 -1.2470
   6223SM   H9T 7939   2.323   3.163  16.139 -1.9885 -0.1687 -0.5341
   6223SM  C10S 7940   2.277   3.330  15.992  0.0041  0.7772 -0.0489
   6223SM  H10S 7941   2.213   3.420  16.001 -2.0296 -0.4158 -1.6695
   6223SM  H10T 7942   2.205   3.272  15.931  0.0118  1.3447 -0.6168
   6223SM  C11S 7943   2.413   3.360  15.924 -0.0680  0.2376  0.6982
   6223SM  H11S 7944   2.448   3.260  15.889 -1.2618 -0.3538  1.1472
   6223SM  H11T 7945   2.485   3.395  16.002  1.8983 -2.3301  0.1738
   6223SM  C12S 7946   2.390   3.458  15.809  0.3651  0.1018  0.0143
   6223SM  H12S 7947   2.311   3.525  15.847  0.0123 -0.2816 -0.0334
   6223SM  H12T 7948   2.334   3.400  15.733 -0.5751  0.1044  0.6905
   6223SM  C13S 7949   2.519   3.527  15.766 -0.3984  0.2080  0.0449
   6223SM  H13S 7950   2.598   3.453  15.741  0.2974  1.0998 -0.4626
   6223SM  H13T 7951   2.560   3.596  15.844 -1.3700  0.3178  0.4714
   6223SM  C14S 7952   2.482   3.610  15.639  0.5660 -0.4038  0.0752
   6223SM  H14S 7953   2.404   3.686  15.663 -0.9321 -2.6364  2.8233
   6223SM  H14T 7954   2.440   3.545  15.559 -0.1101 -0.8504  0.7861
   6223SM  C15S 7955   2.608   3.684  15.582 -1.0009  0.7363 -0.4837
   6223SM  H15S 7956   2.693   3.619  15.555 -0.0128  1.9407 -0.3339
   6223SM  H15T 7957   2.652   3.755  15.655 -0.2527  0.2373 -0.4419
   6223SM  C16S 7958   2.577   3.754  15.455  0.5010 -0.1752 -0.5961
   6223SM  H16S 7959   2.500   3.833  15.466  1.7004  1.6453 -3.8498
   6223SM  H16T 7960   2.542   3.682  15.377  2.0010 -1.1220 -0.4248
   6223SM  C17S 7961   2.696   3.827  15.386  0.6207 -0.5671 -0.3034
   6223SM  H17S 7962   2.742   3.904  15.452  2.2515 -0.7633 -1.1645
   6223SM  H17T 7963   2.665   3.876  15.290  0.1757  1.1602  0.6697
   6223SM  C18S 7964   2.799   3.731  15.330  0.3539 -0.1460  0.2092
   6223SM  H18S 7965   2.766   3.625  15.337  0.6350 -0.2392  0.1665
   6223SM  H18T 7966   2.889   3.725  15.395  0.9315  1.5401 -0.3900
   6223SM  H18U 7967   2.821   3.743  15.222  1.5238  0.1251  0.4661
   6223SM   C1F 7968   2.043   2.861  16.795  0.1881 -0.4762  0.2949
   6223SM    OF 7969   1.949   2.910  16.856 -0.1627 -0.2353  0.3714
   6223SM   C2F 7970   2.027   2.736  16.721 -0.2054  0.2361  0.1730
   6223SM   H2F 7971   1.925   2.730  16.679 -0.4934  2.0133  0.5329
   6223SM   H2G 7972   2.041   2.644  16.782  0.7092 -1.0187 -1.8364
   6223SM   C3F 7973   2.124   2.730  16.597 -0.2820 -0.8147  0.2910
   6223SM   H3F 7974   2.118   2.633  16.543 -2.3003  0.4573 -1.9559
   6223SM   H3G 7975   2.223   2.748  16.645 -1.9175  1.1052  3.2679
   6223SM   C4F 7976   2.089   2.834  16.492 -0.3001  0.0440 -0.5644
   6223SM   H4F 7977   2.086   2.936  16.538 -1.7643  0.4956 -1.5875
   6223SM   H4G 7978   1.981   2.824  16.468 -0.2061  0.2057 -1.0571
   6223SM   C5F 7979   2.169   2.826  16.362  0.1190 -0.4284  0.4198
   6223SM   H5F 7980   2.164   2.721  16.327 -1.1616 -0.2779  0.0776
   6223SM   H5G 7981   2.273   2.861  16.376  0.4719 -0.7363 -1.2198
   6223SM   C6F 7982   2.115   2.917  16.239 -0.1570  0.4904  0.5443
   6223SM   H6F 7983   2.122   3.025  16.264  1.6995  0.1204  1.8011
   6223SM   H6G 7984   2.005   2.904  16.230  0.0463  0.3113 -3.1402
   6223SM   C7F 7985   2.180   2.885  16.105  0.7727 -0.1076  0.4913
   6223SM   H7F 7986   2.183   2.776  16.082  0.2482  0.4253 -2.4052
   6223SM   H7G 7987   2.279   2.934  16.098 -0.0696  1.9816  2.0157
   6223SM   C8F 7988   2.112   2.952  15.981 -0.2223  0.7300 -0.5304
   6223SM   H8F 7989   2.117   3.062  15.992  0.6101  0.7364 -0.9165
   6223SM   H8G 7990   2.004   2.924  15.979 -0.1135  0.0853 -3.8918
   6223SM   C9F 7991   2.168   2.907  15.845 -0.3031  1.0445  0.1302
   6223SM   H9F 7992   2.136   2.804  15.815 -0.2507  1.4810 -1.5181
   6223SM   H9G 7993   2.276   2.896  15.870 -0.2007  1.1084 -0.2875
   6223SM  C10F 7994   2.151   3.000  15.729  0.6982  0.0964  0.0493
   6223SM  H10F 7995   2.188   3.101  15.760 -0.3857 -0.4130  3.4378
   6223SM  H10G 7996   2.042   3.017  15.723  0.9511  2.1538  0.4120
   6223SM  C11F 7997   2.215   2.952  15.602 -0.2109  0.0760  0.0024
   6223SM  H11F 7998   2.170   2.854  15.575 -0.6242  0.2046  0.2109
   6223SM  H11G 7999   2.323   2.928  15.613 -0.4997 -1.3905 -0.1296
   6223SM  C12F 8000   2.198   3.053  15.489 -0.7389 -0.0188  0.9451
   6223SM  H12F 8001   2.232   3.157  15.503 -0.2870 -0.3107  2.1813
   6223SM  H12G 8002   2.089   3.050  15.465 -0.1440  1.5141 -2.4534
   6223SM  C13F 8003   2.276   2.999  15.361  0.0650  0.5523  0.4679
   6223SM  H13F 8004   2.258   2.890  15.348  0.3114  0.4214  1.2088
   6223SM  H13G 8005   2.384   3.005  15.383  0.4818 -1.5679 -0.6844
   6223SM  C14F 8006   2.235   3.068  15.235  0.6942  0.4312 -0.0191
   6223SM  H14F 8007   2.256   3.177  15.247  0.6090  0.2878  1.5409
   6223SM  H14G 8008   2.130   3.050  15.204  0.5037 -1.9337  1.8162
   6223SM  C15F 8009   2.314   3.035  15.103  0.3506  1.3831 -0.5537
   6223SM  H15F 8010   2.278   2.934  15.076  1.8074  0.1462  1.8271
   6223SM  H15G 8011   2.421   3.034  15.133  0.2399 -2.7228  0.2278
   6223SM  C16F 8012   2.274   3.124  14.989 -0.4621 -0.6135  0.3410
   6223SM  H16F 8013   2.301   3.230  15.008 -3.3177  0.8388 -2.6980
   6223SM  H16G 8014   2.167   3.119  14.960 -0.3832 -0.1846 -0.0360
   6223SM  C17F 8015   2.371   3.087  14.872 -0.2290  0.6019 -0.2480
   6223SM  H17F 8016   2.337   2.996  14.818  0.1726 -0.3819  1.0974
   6223SM  H17G 8017   2.471   3.063  14.916  0.2935 -0.2422 -1.7966
   6223SM  C18F 8018   2.389   3.212  14.778  0.4596  0.0140  0.2575
   6223SM  H18F 8019   2.489   3.206  14.730  0.7379  3.1995  0.2402
   6223SM  H18G 8020   2.396   3.304  14.840 -2.6493  2.0333 -2.0966
   6223SM  C19F 8021   2.269   3.233  14.682  0.2655 -0.2642 -0.0499
   6223SM  H19F 8022   2.188   3.279  14.742 -1.0767 -1.7051 -0.7123
   6223SM  H19G 8023   2.236   3.139  14.634 -1.2357  0.7001 -0.9678
   6223SM  C20F 8024   2.321   3.323  14.566  0.3338 -0.2791  0.3421
   6223SM  H20F 8025   2.364   3.265  14.481 -2.5255 -1.9150 -0.0888
   6223SM  H20G 8026   2.394   3.399  14.601 -0.0180  0.7304 -1.0377
   6223SM  C21F 8027   2.212   3.412  14.502  0.0818  0.5487 -0.1974
   6223SM  H21F 8028   2.171   3.480  14.579 -2.7844 -1.0753 -0.1641
   6223SM  H21G 8029   2.132   3.346  14.464 -1.7790  2.5395  0.0635
   6223SM  C22F 8030   2.255   3.507  14.385 -0.5864 -0.0244 -0.8458
   6223SM  H22F 8031   2.301   3.436  14.313  0.1423  0.5786 -0.9864
   6223SM  H22G 8032   2.328   3.583  14.420 -2.1575  0.8870  0.5678
   6223SM  C23F 8033   2.144   3.575  14.318  0.3517  0.1060  0.3776
   6223SM  H23F 8034   2.182   3.637  14.233 -0.7673 -0.3137 -0.4632
   6223SM  H23G 8035   2.083   3.637  14.388  1.0423  0.6702  0.4871
   6223SM  H23H 8036   2.086   3.493  14.271  2.6181 -2.1698  1.3500
   6323SM     N 8037   3.547   5.468  17.091 -0.1425  0.0978 -0.7696
   6323SM   C15 8038   3.684   5.412  17.083 -0.6449 -0.4339 -0.1588
   6323SM  H15A 8039   3.715   5.396  17.185 -3.6137 -0.7853  0.8073
   6323SM  H15B 8040   3.762   5.475  17.043  1.2066 -0.2154  3.4295
   6323SM  H15C 8041   3.688   5.320  17.027 -0.8473  0.1578 -1.1726
   6323SM   C14 8042   3.560   5.605  17.149  0.4383 -0.1520  0.3407
   6323SM  H14A 8043   3.603   5.610  17.247 -0.4330 -0.8652  0.7818
   6323SM  H14B 8044   3.462   5.649  17.160  0.3224 -0.6807  1.5671
   6323SM  H14C 8045   3.611   5.673  17.083 -1.3466  0.8159 -0.1014
   6323SM   C13 8046   3.499   5.482  16.947 -0.6301  0.3920 -0.6179
   6323SM  H13A 8047   3.394   5.509  16.940  0.1579  3.7859 -1.0292
   6323SM  H13B 8048   3.525   5.394  16.891  0.1024  0.8528 -1.0162
   6323SM  H13C 8049   3.565   5.550  16.896 -0.5948  1.4139  0.7386
   6323SM   C12 8050   3.465   5.369  17.172 -0.7051 -0.0953 -0.3331
   6323SM  H12A 8051   3.510   5.383  17.270 -0.9931  2.7799 -0.5416
   6323SM  H12B 8052   3.485   5.270  17.133 -1.5213 -0.1524 -0.6246
   6323SM   C11 8053   3.318   5.388  17.192  0.3872  0.4070 -0.1614
   6323SM  H11A 8054   3.259   5.298  17.219 -1.7569  1.8444  0.2825
   6323SM  H11B 8055   3.271   5.414  17.094  0.0319 -0.1153 -0.1325
   6323SM     P 8056   3.154   5.541  17.323  0.0850 -0.1826  0.0395
   6323SM   O13 8057   3.107   5.452  17.430  0.1743 -0.2205 -0.6410
   6323SM   O14 8058   3.163   5.680  17.362 -0.0293 -0.6654 -0.5824
   6323SM   O11 8059   3.058   5.531  17.195  0.0778  0.3714  0.0584
   6323SM   O12 8060   3.293   5.482  17.292 -0.2017 -0.5093 -0.5832
   6323SM   C1S 8061   3.096   5.600  17.075  0.1098 -0.8913 -0.0991
   6323SM   H1S 8062   3.204   5.586  17.051  0.1859 -0.2743 -0.1247
   6323SM   H1T 8063   3.094   5.707  17.103  0.6690 -0.7541 -0.5617
   6323SM    NF 8064   3.004   5.693  16.867  0.2705 -0.1949 -0.3489
   6323SM   HNF 8065   2.947   5.767  16.904 -0.1841 -1.1194  0.8361
   6323SM   C2S 8066   3.001   5.575  16.951  0.2580  0.3924 -0.4540
   6323SM   H2S 8067   3.045   5.489  16.896  2.7720  0.6867  0.8987
   6323SM   C3S 8068   2.855   5.535  16.989  0.4333 -0.0294  0.2871
   6323SM   H3S 8069   2.807   5.623  17.038  0.3247 -0.4403  0.9252
   6323SM    O3 8070   2.845   5.431  17.080  0.3885  0.9629 -0.1968
   6323SM   HO3 8071   2.924   5.444  17.133  0.4867 -2.0675  0.5797
   6323SM   C4S 8072   2.781   5.500  16.867  0.2007 -0.2665  0.0266
   6323SM   H4S 8073   2.821   5.425  16.797 -1.5252 -0.2880 -1.0017
   6323SM   C5S 8074   2.666   5.555  16.828 -0.1500 -0.0899 -0.5591
   6323SM   H5S 8075   2.621   5.621  16.904 -0.1966 -0.6658 -0.0711
   6323SM   C6S 8076   2.580   5.546  16.706  0.3492  0.1654 -0.0895
   6323SM   H6S 8077   2.538   5.645  16.677 -0.4930 -0.6436 -1.7974
   6323SM   H6T 8078   2.507   5.463  16.717  0.2864 -0.0532 -1.8683
   6323SM   C7S 8079   2.660   5.499  16.577  0.2181 -0.3682 -0.9024
   6323SM   H7S 8080   2.716   5.408  16.605  0.8443  0.7309  1.7233
   6323SM   H7T 8081   2.732   5.581  16.555 -0.0778  0.1564  0.0483
   6323SM   C8S 8082   2.572   5.464  16.454 -0.0481  0.5604 -0.2369
   6323SM   H8S 8083   2.547   5.554  16.394  3.7791  0.8413 -1.7193
   6323SM   H8T 8084   2.490   5.413  16.508  2.1538 -0.0425  2.7645
   6323SM   C9S 8085   2.623   5.361  16.352  0.0150  0.4436 -0.4819
   6323SM   H9S 8086   2.675   5.281  16.409 -0.7855  0.5166  0.3747
   6323SM   H9T 8087   2.700   5.409  16.288  1.7891  1.6122  2.2893
   6323SM  C10S 8088   2.497   5.302  16.273  0.0972 -0.2103  0.3595
   6323SM  H10S 8089   2.445   5.383  16.218  0.2040 -0.2511  0.1991
   6323SM  H10T 8090   2.420   5.269  16.346 -1.1883  0.1103 -0.8288
   6323SM  C11S 8091   2.531   5.191  16.176 -0.2011  0.4596 -0.4123
   6323SM  H11S 8092   2.431   5.152  16.148 -0.7997  1.2020  0.6221
   6323SM  H11T 8093   2.588   5.113  16.231 -1.7511  0.1888  0.8975
   6323SM  C12S 8094   2.618   5.221  16.052  0.0318 -0.0780 -0.1299
   6323SM  H12S 8095   2.620   5.130  15.989  1.7673 -0.7850  0.8768
   6323SM  H12T 8096   2.726   5.245  16.063 -0.3126  0.6662  2.0235
   6323SM  C13S 8097   2.557   5.322  15.959 -0.6162  0.2787  0.0314
   6323SM  H13S 8098   2.556   5.420  16.011 -2.0994  1.2596 -1.7158
   6323SM  H13T 8099   2.450   5.306  15.934 -0.0681 -1.1554 -1.6639
   6323SM  C14S 8100   2.632   5.326  15.820 -0.5586  0.0881 -0.8993
   6323SM  H14S 8101   2.638   5.226  15.772 -0.7705 -0.3993  0.0568
   6323SM  H14T 8102   2.736   5.363  15.828 -0.8238  0.9841 -1.5188
   6323SM  C15S 8103   2.559   5.404  15.716 -0.6893  1.5880 -0.4131
   6323SM  H15S 8104   2.590   5.511  15.716 -1.6850  1.8898 -1.5771
   6323SM  H15T 8105   2.458   5.428  15.755 -1.3599  1.0213 -1.7703
   6323SM  C16S 8106   2.556   5.346  15.577  0.5040  0.1053  0.5987
   6323SM  H16S 8107   2.473   5.274  15.567 -0.6764  1.5663 -0.6723
   6323SM  H16T 8108   2.648   5.284  15.568  0.3784 -0.0961  0.7026
   6323SM  C17S 8109   2.541   5.444  15.465 -0.6843 -0.3318  0.2205
   6323SM  H17S 8110   2.625   5.516  15.457 -2.3624  1.4797 -3.6371
   6323SM  H17T 8111   2.450   5.506  15.479 -2.0908 -2.3612  0.5307
   6323SM  C18S 8112   2.530   5.362  15.337  0.9025 -0.0833 -0.3998
   6323SM  H18S 8113   2.490   5.422  15.253 -2.1576 -2.2661 -0.6676
   6323SM  H18T 8114   2.450   5.286  15.343 -0.6585  1.3690 -1.7374
   6323SM  H18U 8115   2.624   5.314  15.302  0.8381 -2.2920  2.1326
   6323SM   C1F 8116   3.096   5.719  16.783 -0.0639 -0.3349  0.2003
   6323SM    OF 8117   3.188   5.641  16.759 -0.2304  0.8238 -1.1357
   6323SM   C2F 8118   3.087   5.849  16.714 -0.4955 -0.1723 -0.3794
   6323SM   H2F 8119   3.180   5.877  16.660  0.2012 -1.5937  0.0314
   6323SM   H2G 8120   3.066   5.936  16.780  0.0331  0.3536 -0.8891
   6323SM   C3F 8121   2.981   5.839  16.604 -0.0084  0.1773  0.0015
   6323SM   H3F 8122   2.973   5.942  16.563 -1.1800 -0.4739 -1.5110
   6323SM   H3G 8123   2.882   5.806  16.642  0.0471 -0.2538 -0.2149
   6323SM   C4F 8124   3.009   5.742  16.489  0.1906 -0.1348  0.4081
   6323SM   H4F 8125   3.019   5.635  16.517  0.9099 -0.6069 -1.4997
   6323SM   H4G 8126   3.105   5.785  16.452  0.0213  1.2626  1.4929
   6323SM   C5F 8127   2.913   5.748  16.369 -0.1901 -0.0292  0.2786
   6323SM   H5F 8128   2.928   5.852  16.333  1.8467 -0.1006  0.8417
   6323SM   H5G 8129   2.810   5.740  16.410 -0.2724 -1.8029 -0.1798
   6323SM   C6F 8130   2.954   5.655  16.252  1.0192 -0.7057  0.6737
   6323SM   H6F 8131   2.955   5.548  16.281 -2.6128 -0.9058  0.5163
   6323SM   H6G 8132   3.060   5.682  16.231  0.5937  1.0472  0.5617
   6323SM   C7F 8133   2.863   5.664  16.124 -0.8015  0.0522 -0.1281
   6323SM   H7F 8134   2.845   5.773  16.112  2.2000  0.7868  1.2165
   6323SM   H7G 8135   2.766   5.611  16.140 -0.2187 -0.3913  2.4443
   6323SM   C8F 8136   2.917   5.602  15.990 -0.0621 -0.1769  0.2939
   6323SM   H8F 8137   2.843   5.608  15.907  0.9166 -1.3759 -0.7138
   6323SM   H8G 8138   2.942   5.495  16.005  0.0709 -0.3378 -0.9469
   6323SM   C9F 8139   3.034   5.679  15.932 -0.1950 -0.4821  0.5372
   6323SM   H9F 8140   3.121   5.678  16.001  0.0061 -1.8004  0.2854
   6323SM   H9G 8141   3.005   5.786  15.921 -0.7597 -0.7269 -0.4040
   6323SM  C10F 8142   3.080   5.636  15.790  0.3033  0.1747  0.1881
   6323SM  H10F 8143   3.120   5.533  15.797 -0.6230 -0.1282  1.4722
   6323SM  H10G 8144   3.152   5.706  15.744 -0.0695 -0.7655 -1.9625
   6323SM  C11F 8145   2.964   5.627  15.683 -0.0789 -0.1592 -0.5016
   6323SM  H11F 8146   2.887   5.699  15.718  1.1971  0.7596  0.4983
   6323SM  H11G 8147   2.931   5.521  15.683  1.0809 -0.5447  0.4661
   6323SM  C12F 8148   3.004   5.662  15.542  0.5816 -1.7777 -0.1106
   6323SM  H12F 8149   3.081   5.587  15.515 -0.1416 -2.8801  0.8041
   6323SM  H12G 8150   3.041   5.767  15.547 -1.2392 -1.1006 -0.1050
   6323SM  C13F 8151   2.880   5.648  15.448 -0.2632  0.1645  0.0824
   6323SM  H13F 8152   2.806   5.726  15.477 -0.9574 -0.5854  0.3465
   6323SM  H13G 8153   2.829   5.550  15.454  0.6678 -0.3533 -0.2044
   6323SM  C14F 8154   2.919   5.667  15.304 -0.4916 -0.0616 -0.7250
   6323SM  H14F 8155   2.982   5.582  15.269 -0.2820 -1.2418  2.1922
   6323SM  H14G 8156   2.990   5.752  15.314 -0.1922 -0.4631  0.8372
   6323SM  C15F 8157   2.800   5.702  15.215  0.0679  0.0817 -0.3468
   6323SM  H15F 8158   2.759   5.795  15.259  0.3340 -1.4869  3.6339
   6323SM  H15G 8159   2.717   5.628  15.227  0.5443 -0.3399  0.4607
   6323SM  C16F 8160   2.835   5.726  15.065  0.0833 -0.0732  0.0018
   6323SM  H16F 8161   2.925   5.791  15.062  1.0678 -1.3899 -0.2441
   6323SM  H16G 8162   2.757   5.788  15.016  0.6423  0.4896 -0.1915
   6323SM  C17F 8163   2.848   5.589  15.001  0.3971 -0.1577 -0.1509
   6323SM  H17F 8164   2.758   5.524  15.006 -0.1916  0.4390 -2.1275
   6323SM  H17G 8165   2.928   5.547  15.067 -0.3013  1.2600  1.6894
   6323SM  C18F 8166   2.886   5.598  14.853 -0.1813 -0.1646 -0.3877
   6323SM  H18F 8167   2.982   5.651  14.832  1.4769 -1.7208  2.5985
   6323SM  H18G 8168   2.816   5.671  14.807  1.2946  0.5771 -1.5509
   6323SM  C19F 8169   2.875   5.464  14.781 -0.0990  0.1344  0.3041
   6323SM  H19F 8170   2.881   5.384  14.858 -4.7116 -1.1268 -0.3690
   6323SM  H19G 8171   2.957   5.450  14.708 -0.4048 -0.8702  0.1452
   6323SM  C20F 8172   2.733   5.447  14.715 -0.4457 -0.0430 -0.1708
   6323SM  H20F 8173   2.730   5.535  14.647 -0.2938  0.7928  0.8712
   6323SM  H20G 8174   2.646   5.458  14.783 -2.0263  2.8237 -2.4166
   6323SM  C21F 8175   2.734   5.305  14.639  0.5009  0.0446  0.4135
   6323SM  H21F 8176   2.680   5.232  14.703 -2.8956  0.8366 -1.3360
   6323SM  H21G 8177   2.840   5.274  14.626  0.6641  0.3171  1.0463
   6323SM  C22F 8178   2.649   5.299  14.507  0.3146 -0.2519  0.4796
   6323SM  H22F 8179   2.696   5.351  14.421 -0.3157 -1.4040 -0.5863
   6323SM  H22G 8180   2.553   5.355  14.513 -0.2675 -1.1433 -0.2519
   6323SM  C23F 8181   2.625   5.152  14.465 -0.7520  0.0698  0.0896
   6323SM  H23F 8182   2.717   5.096  14.437  0.5658  1.1882  1.9967
   6323SM  H23G 8183   2.560   5.144  14.375 -1.2353 -0.5166  0.4867
   6323SM  H23H 8184   2.576   5.102  14.551 -1.4891  0.1601 -0.2669
   6423SM     N 8185   4.002   3.759  17.442 -0.5142 -0.3508 -0.7280
   6423SM   C15 8186   3.944   3.644  17.380  0.8791 -0.3019  0.2589
   6423SM  H15A 8187   3.863   3.668  17.312  2.0627 -1.1056 -1.5240
   6423SM  H15B 8188   3.916   3.566  17.449  2.6644 -0.0640  1.2995
   6423SM  H15C 8189   4.008   3.582  17.318 -1.4390 -1.4824 -1.1249
   6423SM   C14 8190   3.888   3.805  17.534 -0.3910 -0.2239 -0.3992
   6423SM  H14A 8191   3.854   3.738  17.611 -0.1040  1.8742  1.6797
   6423SM  H14B 8192   3.798   3.809  17.474 -1.6809 -1.6830  1.3474
   6423SM  H14C 8193   3.909   3.898  17.585 -2.5877  0.2251 -0.1924
   6423SM   C13 8194   4.116   3.722  17.526 -0.3219 -0.2524  0.4535
   6423SM  H13A 8195   4.199   3.684  17.468 -0.6383 -0.8073  0.3613
   6423SM  H13B 8196   4.090   3.642  17.592  1.3885  1.2253  3.1076
   6423SM  H13C 8197   4.149   3.802  17.591 -0.4230  0.0674  0.1133
   6423SM   C12 8198   4.031   3.874  17.344  0.4381  0.3664 -1.0840
   6423SM  H12A 8199   4.127   3.856  17.298  0.5250 -0.6682 -0.5283
   6423SM  H12B 8200   4.043   3.958  17.412 -0.8519 -0.8572  0.7463
   6423SM   C11 8201   3.930   3.898  17.233  0.8772 -0.5874  0.0784
   6423SM  H11A 8202   3.934   3.820  17.154 -1.3302  1.6841 -2.5066
   6423SM  H11B 8203   3.959   3.986  17.171 -0.1865 -1.8786 -2.4312
   6423SM     P 8204   3.725   4.037  17.304  0.1439 -0.6690 -0.3825
   6423SM   O13 8205   3.614   4.016  17.402  0.2045 -0.5461 -0.4495
   6423SM   O14 8206   3.829   4.135  17.339 -0.3044  0.6100 -0.4476
   6423SM   O11 8207   3.650   4.081  17.175 -0.1098  0.3741 -0.0902
   6423SM   O12 8208   3.790   3.902  17.272  0.0652  0.6503  0.7037
   6423SM   C1S 8209   3.709   4.104  17.049 -0.4765  0.3812 -0.4126
   6423SM   H1S 8210   3.820   4.104  17.056 -0.5564  0.8631  1.4493
   6423SM   H1T 8211   3.688   4.201  17.001  0.1989  1.3145  1.0826
   6423SM    NF 8212   3.737   3.997  16.820  0.4074 -0.6530  0.1137
   6423SM   HNF 8213   3.687   4.051  16.752  2.4397 -0.2287 -1.1305
   6423SM   C2S 8214   3.668   3.990  16.949  0.0000  0.6382  0.6827
   6423SM   H2S 8215   3.696   3.892  16.994 -0.3289 -0.0465 -0.5723
   6423SM   C3S 8216   3.513   3.985  16.930  0.0209  0.7644  0.3532
   6423SM   H3S 8217   3.477   4.085  16.897  1.9968  1.3581 -0.1735
   6423SM    O3 8218   3.439   3.962  17.051 -0.0563 -0.2289  0.0900
   6423SM   HO3 8219   3.495   4.000  17.119 -0.5437  0.6915 -0.0049
   6423SM   C4S 8220   3.467   3.879  16.836  0.0699  0.0505 -1.1401
   6423SM   H4S 8221   3.511   3.781  16.862  1.8398  0.5192 -2.1776
   6423SM   C5S 8222   3.375   3.883  16.734  0.2597  0.5121  0.4790
   6423SM   H5S 8223   3.331   3.975  16.693  0.9412  0.5922 -0.0942
   6423SM   C6S 8224   3.320   3.759  16.655  0.3522  0.2799 -0.2463
   6423SM   H6S 8225   3.334   3.771  16.545  0.4760  1.5665 -0.1060
   6423SM   H6T 8226   3.211   3.759  16.672  0.7235 -2.4505  3.2733
   6423SM   C7S 8227   3.389   3.629  16.695  0.3366  0.2078  0.5329
   6423SM   H7S 8228   3.380   3.599  16.802 -0.3960 -2.0149 -0.0875
   6423SM   H7T 8229   3.496   3.630  16.668 -0.2285 -0.9813 -2.0330
   6423SM   C8S 8230   3.329   3.509  16.623  0.6231 -0.3305  0.2798
   6423SM   H8S 8231   3.320   3.533  16.515  1.0235 -0.7997  0.1361
   6423SM   H8T 8232   3.227   3.484  16.657  0.6170 -0.9952 -0.1966
   6423SM   C9S 8233   3.407   3.383  16.625 -0.3199 -0.0831 -0.4171
   6423SM   H9S 8234   3.464   3.377  16.720 -2.0510 -0.2411  0.6418
   6423SM   H9T 8235   3.475   3.384  16.537 -0.1890  1.2605 -0.3207
   6423SM  C10S 8236   3.324   3.263  16.619 -0.3578  0.0650  0.3506
   6423SM  H10S 8237   3.251   3.262  16.703  0.2242  0.5743  0.8680
   6423SM  H10T 8238   3.386   3.171  16.625  0.4147  0.3920 -1.5931
   6423SM  C11S 8239   3.244   3.252  16.485 -0.4523  0.2626 -0.1430
   6423SM  H11S 8240   3.311   3.290  16.405  0.0627  0.2217  0.2636
   6423SM  H11T 8241   3.148   3.308  16.480 -0.1698  0.8025  0.3883
   6423SM  C12S 8242   3.213   3.099  16.453  0.5322  0.8501  0.1161
   6423SM  H12S 8243   3.135   3.056  16.519  1.4303 -1.3308 -0.1717
   6423SM  H12T 8244   3.296   3.028  16.475 -0.5233 -0.6960 -0.7124
   6423SM  C13S 8245   3.162   3.072  16.309 -0.1828  0.6168 -0.6845
   6423SM  H13S 8246   3.074   3.138  16.295 -1.3028 -0.8960 -1.0894
   6423SM  H13T 8247   3.122   2.968  16.304 -1.9824  1.2561 -0.2220
   6423SM  C14S 8248   3.264   3.084  16.202 -0.1709  0.2685  0.4393
   6423SM  H14S 8249   3.348   3.011  16.212 -0.2216 -0.5952 -3.5287
   6423SM  H14T 8250   3.314   3.182  16.217 -0.5560  0.6093 -0.4527
   6423SM  C15S 8251   3.205   3.070  16.063  0.6485 -1.0008 -0.0729
   6423SM  H15S 8252   3.125   3.143  16.038 -1.4959 -1.9549  3.3239
   6423SM  H15T 8253   3.157   2.971  16.045  1.5870 -1.2651 -1.2445
   6423SM  C16S 8254   3.323   3.104  15.968 -0.8383  0.5419 -0.4034
   6423SM  H16S 8255   3.411   3.036  15.981 -0.0237  1.4350 -1.0606
   6423SM  H16T 8256   3.369   3.202  15.992  1.5129 -0.0186 -2.1588
   6423SM  C17S 8257   3.296   3.109  15.817 -0.6438  0.3645  0.2060
   6423SM  H17S 8258   3.210   3.176  15.797  0.0745  1.2206 -0.0802
   6423SM  H17T 8259   3.273   3.007  15.780  1.5192  0.0470 -0.3834
   6423SM  C18S 8260   3.418   3.162  15.739 -0.0511 -0.0951 -0.8726
   6423SM  H18S 8261   3.414   3.273  15.743 -3.4173 -0.1418  0.8479
   6423SM  H18T 8262   3.409   3.133  15.632 -1.5502 -3.8336  0.1169
   6423SM  H18U 8263   3.514   3.120  15.777  0.0848 -0.2872 -1.4208
   6423SM   C1F 8264   3.867   3.980  16.800 -0.3027 -0.1592 -0.0778
   6423SM    OF 8265   3.942   3.942  16.886 -0.0941  0.8306  0.3490
   6423SM   C2F 8266   3.907   4.012  16.660 -0.2566  0.5556 -0.0802
   6423SM   H2F 8267   3.912   4.121  16.636 -0.7122  0.0502 -2.8579
   6423SM   H2G 8268   3.825   3.970  16.598  0.0327 -0.1400 -0.0031
   6423SM   C3F 8269   4.041   3.957  16.624  0.2578  0.6236  0.0078
   6423SM   H3F 8270   4.018   3.850  16.604 -1.3198  1.2687 -1.9108
   6423SM   H3G 8271   4.114   3.979  16.705 -0.1075 -0.8490  0.7693
   6423SM   C4F 8272   4.093   4.024  16.492 -0.5618  0.3904 -0.7567
   6423SM   H4F 8273   4.199   3.989  16.486 -1.0606 -1.5418  0.7961
   6423SM   H4G 8274   4.098   4.128  16.529  0.1982  1.5810 -3.8876
   6423SM   C5F 8275   4.008   3.990  16.372  0.1341 -0.1062  0.0906
   6423SM   H5F 8276   4.020   4.058  16.286  1.6697  0.7326  0.9352
   6423SM   H5G 8277   3.901   3.995  16.404  0.0676 -3.9223  0.9508
   6423SM   C6F 8278   4.035   3.843  16.310 -0.3019  0.1163 -0.0177
   6423SM   H6F 8279   4.023   3.766  16.389  1.3216 -2.8351 -2.4669
   6423SM   H6G 8280   4.143   3.837  16.282 -0.6161 -0.3081 -1.1655
   6423SM   C7F 8281   3.941   3.812  16.196  0.3622  0.4011 -0.2431
   6423SM   H7F 8282   3.843   3.855  16.228  1.1531  0.9026  1.7067
   6423SM   H7G 8283   3.924   3.703  16.181  2.9335  0.0293 -0.9500
   6423SM   C8F 8284   3.987   3.846  16.055 -0.0471  0.2533  0.5362
   6423SM   H8F 8285   4.088   3.802  16.044  0.1148  0.8099 -0.1990
   6423SM   H8G 8286   3.981   3.957  16.051 -1.6637  0.4430  3.9122
   6423SM   C9F 8287   3.903   3.776  15.947  0.1532  0.1683  0.2879
   6423SM   H9F 8288   3.798   3.806  15.965  0.2977  1.0759 -0.3268
   6423SM   H9G 8289   3.912   3.665  15.948 -2.0368 -0.0947 -1.6509
   6423SM  C10F 8290   3.943   3.818  15.798 -0.2847 -0.2271  0.1122
   6423SM  H10F 8291   4.052   3.808  15.781 -0.2449  1.8645 -1.1580
   6423SM  H10G 8292   3.914   3.925  15.805 -1.1260 -0.4629  0.4940
   6423SM  C11F 8293   3.854   3.746  15.695 -1.1765 -0.3194 -0.4468
   6423SM  H11F 8294   3.751   3.781  15.717 -0.9723 -1.0087  1.9153
   6423SM  H11G 8295   3.862   3.637  15.714  0.2500 -0.3171 -0.8957
   6423SM  C12F 8296   3.892   3.766  15.549 -0.0803 -0.2547  0.5628
   6423SM  H12F 8297   3.898   3.662  15.510 -0.0665 -0.1675  0.3315
   6423SM  H12G 8298   3.992   3.813  15.539 -0.7085  1.2810  1.1171
   6423SM  C13F 8299   3.778   3.835  15.466 -1.3284 -0.7152  0.0863
   6423SM  H13F 8300   3.762   3.926  15.528  0.9839  0.5258 -1.0180
   6423SM  H13G 8301   3.691   3.766  15.479 -1.0966 -0.8468  1.0026
   6423SM  C14F 8302   3.809   3.858  15.319  0.3930  0.0410  0.3691
   6423SM  H14F 8303   3.821   3.755  15.279 -0.8337 -1.5216  3.7454
   6423SM  H14G 8304   3.909   3.903  15.298  1.3196 -2.4541 -0.9886
   6423SM  C15F 8305   3.700   3.934  15.251  0.1003  0.1232 -0.1699
   6423SM  H15F 8306   3.681   4.026  15.309 -1.8068  0.0005 -0.5503
   6423SM  H15G 8307   3.604   3.879  15.250 -0.8853  1.7915 -1.0372
   6423SM  C16F 8308   3.750   3.974  15.110  0.0114  0.1474  0.3197
   6423SM  H16F 8309   3.852   4.018  15.110  0.0854  0.0324 -0.9295
   6423SM  H16G 8310   3.674   4.044  15.069  0.7947  0.7050 -0.2103
   6423SM  C17F 8311   3.759   3.847  15.027  0.3301  0.7531 -0.4873
   6423SM  H17F 8312   3.679   3.774  15.053  0.4679  0.8342  0.1864
   6423SM  H17G 8313   3.852   3.797  15.060 -0.3402 -1.1151 -1.2763
   6423SM  C18F 8314   3.767   3.882  14.876 -0.3010  0.0943 -0.0815
   6423SM  H18F 8315   3.856   3.946  14.858  1.0489 -2.1179 -1.7241
   6423SM  H18G 8316   3.679   3.948  14.859 -0.3835  1.0622  3.3869
   6423SM  C19F 8317   3.774   3.759  14.777 -0.5236 -0.3092 -0.0510
   6423SM  H19F 8318   3.690   3.690  14.800 -0.9222  0.1742 -0.0294
   6423SM  H19G 8319   3.867   3.700  14.794 -0.7305 -0.9400 -1.0245
   6423SM  C20F 8320   3.772   3.803  14.625 -0.2045 -0.0705  0.1448
   6423SM  H20F 8321   3.767   3.713  14.561  0.0369 -0.0287  0.0670
   6423SM  H20G 8322   3.867   3.851  14.595 -0.3462 -0.1851 -0.4936
   6423SM  C21F 8323   3.661   3.903  14.581  0.2501  0.3373  0.8430
   6423SM  H21F 8324   3.654   3.918  14.471 -2.7851 -1.5899  0.6506
   6423SM  H21G 8325   3.682   3.998  14.634 -0.1157  1.9682 -1.7274
   6423SM  C22F 8326   3.516   3.862  14.619 -0.2553 -0.5339 -0.0746
   6423SM  H22F 8327   3.520   3.859  14.730  2.7399 -1.0749 -0.0977
   6423SM  H22G 8328   3.509   3.755  14.588  3.8371 -0.8381 -0.6031
   6423SM  C23F 8329   3.408   3.963  14.569  0.4158 -0.5150  0.2671
   6423SM  H23F 8330   3.378   3.954  14.462  1.9188  1.8047 -0.4210
   6423SM  H23G 8331   3.448   4.066  14.581 -0.0389 -0.1163 -1.3849
   6423SM  H23H 8332   3.318   3.948  14.632  0.9143 -1.2929  0.8184
   6523SM     N 8333   2.847   4.972  17.332  0.7585 -0.0215 -0.2871
   6523SM   C15 8334   2.769   5.076  17.414 -0.4134 -0.3790  0.5628
   6523SM  H15A 8335   2.684   5.109  17.356 -1.0811 -3.1224 -0.1547
   6523SM  H15B 8336   2.823   5.163  17.448  2.0133 -1.8345  0.6694
   6523SM  H15C 8337   2.729   5.037  17.506 -1.1990 -0.3567  0.2414
   6523SM   C14 8338   2.942   4.904  17.420  0.4456  0.0037 -0.2032
   6523SM  H14A 8339   2.901   4.864  17.512  1.2354 -1.4382 -0.4436
   6523SM  H14B 8340   3.017   4.979  17.441 -0.9578  1.4790 -0.2500
   6523SM  H14C 8341   2.984   4.815  17.376 -0.4538 -0.3223 -0.4298
   6523SM   C13 8342   2.746   4.871  17.288 -0.0779 -0.3948  0.2465
   6523SM  H13A 8343   2.786   4.829  17.197  2.3731  6.1232 -2.3086
   6523SM  H13B 8344   2.655   4.919  17.254  0.9969 -0.3760 -2.9013
   6523SM  H13C 8345   2.727   4.804  17.370 -0.5812 -0.0263  0.4388
   6523SM   C12 8346   2.911   5.040  17.207  0.1912 -0.8547  0.2426
   6523SM  H12A 8347   2.833   5.090  17.152 -0.1332 -1.2363  0.3532
   6523SM  H12B 8348   2.955   4.969  17.138 -0.4226 -0.9366 -0.0738
   6523SM   C11 8349   3.019   5.151  17.237  0.0691 -0.2226  0.5473
   6523SM  H11A 8350   2.991   5.225  17.314 -0.7907  0.0781 -0.0334
   6523SM  H11B 8351   3.035   5.212  17.145 -3.0593  1.8758  1.2325
   6523SM     P 8352   3.229   5.007  17.190 -0.3599  0.1766  0.7328
   6523SM   O13 8353   3.366   5.033  17.229  0.3035 -0.0843 -0.2514
   6523SM   O14 8354   3.197   4.863  17.172 -0.5195 -0.2234  0.1798
   6523SM   O11 8355   3.202   5.072  17.041 -0.3931  0.4148 -0.4913
   6523SM   O12 8356   3.131   5.082  17.286 -0.6108 -0.0770  0.4512
   6523SM   C1S 8357   3.311   5.066  16.954  0.1896  0.2588  0.4944
   6523SM   H1S 8358   3.370   4.973  16.972 -1.5915 -0.7478  1.3968
   6523SM   H1T 8359   3.374   5.157  16.963 -1.8902  1.6834  1.5227
   6523SM    NF 8360   3.385   5.061  16.717 -0.2336  0.3138 -0.4135
   6523SM   HNF 8361   3.426   5.144  16.679 -1.1465  0.2297 -1.6248
   6523SM   C2S 8362   3.266   5.070  16.800 -0.5415 -0.0954 -0.1421
   6523SM   H2S 8363   3.213   4.977  16.770 -0.2801 -0.0830 -0.6518
   6523SM   C3S 8364   3.180   5.195  16.776  0.7550  0.1571  0.4049
   6523SM   H3S 8365   3.241   5.288  16.771  0.1117  0.5818  0.2800
   6523SM    O3 8366   3.084   5.226  16.874  0.0642 -0.0203  0.6669
   6523SM   HO3 8367   3.109   5.173  16.950 -1.0511 -1.4010  0.1074
   6523SM   C4S 8368   3.117   5.191  16.642 -0.2284 -0.0155 -0.5329
   6523SM   H4S 8369   3.169   5.242  16.560  1.7933 -0.7368  0.2387
   6523SM   C5S 8370   3.007   5.141  16.601 -0.0708 -0.1991 -1.0959
   6523SM   H5S 8371   2.942   5.086  16.670  0.8694  0.3709  0.3133
   6523SM   C6S 8372   2.948   5.139  16.462 -0.4673 -0.4530 -0.3081
   6523SM   H6S 8373   2.864   5.211  16.460  0.1971  0.4868  1.8990
   6523SM   H6T 8374   2.898   5.044  16.434  0.2856 -1.0945  0.4632
   6523SM   C7S 8375   3.044   5.169  16.350  0.1409  0.6441  0.7256
   6523SM   H7S 8376   3.137   5.108  16.355 -0.6589 -0.8692 -1.3877
   6523SM   H7T 8377   3.082   5.273  16.353  2.7217 -0.2231  1.4174
   6523SM   C8S 8378   2.971   5.132  16.221 -0.5748 -1.0855 -0.8599
   6523SM   H8S 8379   2.876   5.190  16.213 -0.4337 -0.9471 -1.6117
   6523SM   H8T 8380   2.941   5.025  16.224 -1.8545 -0.7219  0.4303
   6523SM   C9S 8381   3.059   5.168  16.098  0.6139 -0.1188 -0.5470
   6523SM   H9S 8382   3.159   5.122  16.110  0.0154 -0.8175  2.6353
   6523SM   H9T 8383   3.078   5.276  16.082 -0.2923 -0.0534 -1.2993
   6523SM  C10S 8384   2.997   5.103  15.977 -0.0342  0.3276  0.6598
   6523SM  H10S 8385   2.886   5.113  15.971  0.0502  0.9944  0.0561
   6523SM  H10T 8386   3.012   4.993  15.970 -3.3423 -0.1797 -0.2278
   6523SM  C11S 8387   3.046   5.171  15.851 -0.0626  0.4448 -0.0072
   6523SM  H11S 8388   3.153   5.143  15.838 -0.6884 -2.1092 -0.2298
   6523SM  H11T 8389   3.035   5.281  15.864 -0.2730  0.1871  2.6092
   6523SM  C12S 8390   2.968   5.125  15.722  0.1563 -0.5980 -0.1827
   6523SM  H12S 8391   2.866   5.169  15.729  0.1625 -0.5159 -0.6212
   6523SM  H12T 8392   2.948   5.016  15.730  0.1169 -0.4716  2.2185
   6523SM  C13S 8393   3.032   5.165  15.594 -0.1553 -0.1721  0.7285
   6523SM  H13S 8394   3.111   5.095  15.561 -1.4293 -0.7810 -1.1722
   6523SM  H13T 8395   3.066   5.271  15.601 -3.2066  1.6281 -5.0193
   6523SM  C14S 8396   2.936   5.187  15.469 -0.1694  0.0497 -0.2039
   6523SM  H14S 8397   2.887   5.284  15.489  0.2606 -0.1375  1.9769
   6523SM  H14T 8398   2.859   5.107  15.466  0.6946 -0.7969 -0.3293
   6523SM  C15S 8399   3.021   5.208  15.344  0.4141  0.0053  0.3794
   6523SM  H15S 8400   3.079   5.116  15.319 -1.7897 -1.4669  0.4169
   6523SM  H15T 8401   3.088   5.295  15.358  0.2829 -0.0687  1.6332
   6523SM  C16S 8402   2.930   5.253  15.228 -0.2219 -0.3635 -0.1604
   6523SM  H16S 8403   2.946   5.363  15.224  1.7564 -0.5579  1.1694
   6523SM  H16T 8404   2.829   5.237  15.270 -0.7150  3.9929  0.8002
   6523SM  C17S 8405   2.960   5.192  15.093  0.4923  0.0506 -0.5944
   6523SM  H17S 8406   2.883   5.227  15.021 -0.5917 -1.6544 -0.3253
   6523SM  H17T 8407   2.942   5.082  15.092 -2.4355  0.4336 -0.9031
   6523SM  C18S 8408   3.093   5.223  15.035 -0.1201  0.2946 -0.1175
   6523SM  H18S 8409   3.109   5.331  15.016  1.3055  0.3567  1.1843
   6523SM  H18T 8410   3.111   5.163  14.943  0.5189 -0.7763  0.6730
   6523SM  H18U 8411   3.172   5.186  15.104 -1.7421 -0.2923  1.5360
   6523SM   C1F 8412   3.452   4.948  16.709  0.4874  0.2225 -0.3972
   6523SM    OF 8413   3.416   4.847  16.769  0.1910  0.0606 -0.6207
   6523SM   C2F 8414   3.574   4.943  16.628  0.4656 -0.6103 -0.3442
   6523SM   H2F 8415   3.639   5.028  16.657  1.4450 -1.2691 -0.5361
   6523SM   H2G 8416   3.555   4.964  16.520  1.7624 -0.4292 -0.5557
   6523SM   C3F 8417   3.636   4.803  16.632  0.3576 -0.5016  0.0682
   6523SM   H3F 8418   3.572   4.722  16.592 -0.7089  1.7122 -3.0789
   6523SM   H3G 8419   3.664   4.780  16.737  1.5082  0.1169 -0.0910
   6523SM   C4F 8420   3.772   4.790  16.555 -0.0001 -0.3551  0.0955
   6523SM   H4F 8421   3.829   4.699  16.584 -0.0141 -1.1205 -2.0966
   6523SM   H4G 8422   3.827   4.877  16.595 -1.8526  1.5950 -1.3998
   6523SM   C5F 8423   3.753   4.780  16.405  0.1810  0.2527  0.2788
   6523SM   H5F 8424   3.649   4.807  16.375  0.2423 -0.7479 -0.9179
   6523SM   H5G 8425   3.751   4.678  16.362 -0.7281  0.2996  0.1919
   6523SM   C6F 8426   3.852   4.877  16.334 -0.7933 -0.7425  0.0469
   6523SM   H6F 8427   3.948   4.823  16.338 -1.6197 -2.2289  0.6001
   6523SM   H6G 8428   3.853   4.963  16.404 -1.4030 -1.6045  1.1475
   6523SM   C7F 8429   3.807   4.908  16.193 -0.0252 -0.4871 -0.9276
   6523SM   H7F 8430   3.706   4.954  16.190 -0.8693 -1.8540  2.4069
   6523SM   H7G 8431   3.792   4.807  16.149 -0.1011 -0.4979 -0.8759
   6523SM   C8F 8432   3.905   4.999  16.114 -0.5343 -0.1621 -0.2922
   6523SM   H8F 8433   4.011   4.966  16.115 -0.0647  1.2344  1.0780
   6523SM   H8G 8434   3.893   5.101  16.156 -0.7637 -0.4176  0.2876
   6523SM   C9F 8435   3.851   5.016  15.974 -1.0596 -0.7156  0.3238
   6523SM   H9F 8436   3.745   5.049  15.971 -0.5366  0.9954 -2.3007
   6523SM   H9G 8437   3.867   4.922  15.917  2.6213 -0.9182  1.4415
   6523SM  C10F 8438   3.925   5.126  15.895  0.0150 -0.2997 -0.0598
   6523SM  H10F 8439   4.034   5.118  15.917 -0.1897 -0.5088  0.9309
   6523SM  H10G 8440   3.900   5.226  15.937  0.8130  0.9865 -2.4586
   6523SM  C11F 8441   3.894   5.133  15.748  0.3593  0.2143  0.3322
   6523SM  H11F 8442   3.791   5.171  15.731  0.6647  0.9087 -0.0164
   6523SM  H11G 8443   3.909   5.028  15.714  1.8475 -0.2067  2.1313
   6523SM  C12F 8444   4.006   5.216  15.677 -0.5398  0.2847  0.3251
   6523SM  H12F 8445   4.102   5.168  15.705 -1.1417  0.9472  4.0412
   6523SM  H12G 8446   3.997   5.320  15.713 -2.8991  0.3873 -0.3730
   6523SM  C13F 8447   3.974   5.224  15.528  0.0942  0.0016 -0.1651
   6523SM  H13F 8448   3.866   5.248  15.517 -0.0057 -0.7221 -0.8707
   6523SM  H13G 8449   3.995   5.125  15.482  1.7692  1.0812 -1.8826
   6523SM  C14F 8450   4.070   5.312  15.451 -0.4215  0.1387  0.3397
   6523SM  H14F 8451   4.173   5.277  15.473 -0.8081 -2.9323 -2.0526
   6523SM  H14G 8452   4.063   5.419  15.479 -0.2968  0.2021  0.1291
   6523SM  C15F 8453   4.042   5.302  15.304  0.1113 -0.0674 -1.3457
   6523SM  H15F 8454   3.933   5.287  15.289 -0.1877  0.4129  0.1668
   6523SM  H15G 8455   4.096   5.209  15.275  0.2009 -0.1563 -0.8974
   6523SM  C16F 8456   4.087   5.428  15.237 -0.1529 -0.0085 -0.1236
   6523SM  H16F 8457   4.187   5.464  15.271 -1.3629  3.2114  0.3886
   6523SM  H16G 8458   4.026   5.518  15.259  2.3246  1.6987  0.1857
   6523SM  C17F 8459   4.087   5.412  15.083 -0.3876  0.5515  0.5222
   6523SM  H17F 8460   4.135   5.321  15.040  1.3790  1.4530  0.4817
   6523SM  H17G 8461   4.151   5.494  15.044  0.5059 -1.0453 -1.5824
   6523SM  C18F 8462   3.950   5.439  15.031 -0.0560 -0.1007 -0.1012
   6523SM  H18F 8463   3.918   5.536  15.074 -0.3829 -0.6841  0.9991
   6523SM  H18G 8464   3.881   5.361  15.068 -2.0436  0.2006 -2.8087
   6523SM  C19F 8465   3.944   5.438  14.880 -0.0182 -0.0944  0.2562
   6523SM  H19F 8466   4.002   5.347  14.855  0.3619  0.3831 -0.6628
   6523SM  H19G 8467   3.993   5.528  14.837  2.0588 -1.6258 -0.7555
   6523SM  C20F 8468   3.805   5.422  14.814 -0.2873  0.0324  0.4255
   6523SM  H20F 8469   3.745   5.515  14.829  0.0838 -0.1255  3.7279
   6523SM  H20G 8470   3.754   5.339  14.867 -0.7852 -0.7437 -1.2090
   6523SM  C21F 8471   3.822   5.400  14.663 -0.2080  0.0522 -0.0249
   6523SM  H21F 8472   3.885   5.308  14.653  0.7189  0.2946  2.8144
   6523SM  H21G 8473   3.892   5.476  14.623 -1.0116  1.5015  1.2547
   6523SM  C22F 8474   3.693   5.409  14.584  0.3438 -0.0651  0.4987
   6523SM  H22F 8475   3.709   5.396  14.475  0.0049  3.3189 -0.0765
   6523SM  H22G 8476   3.643   5.508  14.592 -0.6260 -0.3685 -1.2188
   6523SM  C23F 8477   3.589   5.300  14.618  0.0131 -0.2939 -0.0107
   6523SM  H23F 8478   3.640   5.209  14.656 -1.7669 -1.4540 -0.2612
   6523SM  H23G 8479   3.532   5.272  14.527 -0.4937 -2.7871  0.9885
   6523SM  H23H 8480   3.519   5.341  14.694  0.2060  1.5339 -0.7630
   6623SM     N 8481   3.180   1.188  17.393 -0.5105  0.2175  0.0219
   6623SM   C15 8482   3.239   1.050  17.414 -0.0590  0.3371 -0.0302
   6623SM  H15A 8483   3.212   0.985  17.332 -0.2793  0.0427  0.2736
   6623SM  H15B 8484   3.217   1.016  17.514 -0.8161 -0.3520 -0.4182
   6623SM  H15C 8485   3.346   1.050  17.399  0.1038 -2.3619  0.5521
   6623SM   C14 8486   3.034   1.162  17.415 -0.1434  0.4319  1.0067
   6623SM  H14A 8487   2.994   1.077  17.360  1.9418  0.3299 -0.4760
   6623SM  H14B 8488   2.983   1.253  17.388  1.8801  1.3230  0.0144
   6623SM  H14C 8489   3.020   1.138  17.519  0.8893 -1.4082  0.7690
   6623SM   C13 8490   3.231   1.271  17.499 -0.0511  0.4416 -0.3721
   6623SM  H13A 8491   3.205   1.226  17.594  1.2910  0.5187  0.0470
   6623SM  H13B 8492   3.184   1.368  17.499 -1.0167 -0.0137 -0.5732
   6623SM  H13C 8493   3.338   1.285  17.492  0.4381 -3.0832 -1.9662
   6623SM   C12 8494   3.198   1.242  17.251 -0.2813  0.1071 -0.3008
   6623SM  H12A 8495   3.154   1.341  17.245 -1.5993 -0.5131 -1.2927
   6623SM  H12B 8496   3.141   1.177  17.187 -0.0547 -0.7904  0.3951
   6623SM   C11 8497   3.347   1.257  17.205 -0.3613 -0.1450  0.0514
   6623SM  H11A 8498   3.417   1.310  17.272  1.2394  0.1617 -1.7910
   6623SM  H11B 8499   3.339   1.317  17.112  0.1785  0.3739  0.3342
   6623SM     P 8500   3.371   1.045  17.043  0.0784 -0.0749 -0.6193
   6623SM   O13 8501   3.460   0.932  17.018  0.1744  0.0573 -0.7966
   6623SM   O14 8502   3.221   1.017  17.033  0.1634  0.3485  0.2652
   6623SM   O11 8503   3.412   1.151  16.934 -0.4987  1.1549 -0.6447
   6623SM   O12 8504   3.405   1.125  17.174 -0.6772 -0.0901 -0.1155
   6623SM   C1S 8505   3.487   1.104  16.819 -0.1824  0.4314  0.6329
   6623SM   H1S 8506   3.437   1.015  16.775 -0.4312  1.0823 -0.4321
   6623SM   H1T 8507   3.592   1.073  16.839 -0.2292 -0.9519 -1.0545
   6623SM    NF 8508   3.559   1.184  16.588 -0.1387  0.3656 -0.5645
   6623SM   HNF 8509   3.647   1.228  16.571  0.1490  0.2106  0.4680
   6623SM   C2S 8510   3.486   1.216  16.711 -0.3637 -0.4592  0.1607
   6623SM   H2S 8511   3.380   1.241  16.689 -0.1135  0.4853 -0.0265
   6623SM   C3S 8512   3.545   1.349  16.785 -0.3346 -0.3858 -0.3509
   6623SM   H3S 8513   3.648   1.325  16.818 -0.6173 -0.7269  0.3247
   6623SM    O3 8514   3.496   1.391  16.912  0.3047  0.1901 -0.1640
   6623SM   HO3 8515   3.448   1.312  16.937 -0.2929  0.5499 -0.1663
   6623SM   C4S 8516   3.565   1.462  16.685 -0.0966 -0.6098  0.1790
   6623SM   H4S 8517   3.664   1.468  16.638  0.6650 -1.3245  1.6506
   6623SM   C5S 8518   3.481   1.566  16.664  0.2341 -0.5607 -0.2401
   6623SM   H5S 8519   3.380   1.569  16.709  0.8043 -3.5581  1.4730
   6623SM   C6S 8520   3.527   1.688  16.579 -0.2210  0.3884 -0.2943
   6623SM   H6S 8521   3.625   1.684  16.527  0.4332 -1.2158  0.9560
   6623SM   H6T 8522   3.543   1.762  16.660 -0.0794 -1.9532  1.9618
   6623SM   C7S 8523   3.429   1.744  16.479  0.3036  0.4143 -0.2021
   6623SM   H7S 8524   3.328   1.772  16.514 -0.2293 -0.3701 -1.0598
   6623SM   H7T 8525   3.400   1.668  16.404 -1.8460  1.3981 -0.4557
   6623SM   C8S 8526   3.484   1.877  16.415 -0.8973  0.6559 -0.3730
   6623SM   H8S 8527   3.563   1.929  16.475  0.0722  1.4666 -2.2708
   6623SM   H8T 8528   3.403   1.952  16.400 -0.1289  1.3640 -1.0999
   6623SM   C9S 8529   3.542   1.850  16.278 -0.0325 -0.0616  0.4900
   6623SM   H9S 8530   3.458   1.811  16.217  2.0173 -0.8774 -1.9943
   6623SM   H9T 8531   3.632   1.785  16.267 -0.5549 -0.8922  1.0294
   6623SM  C10S 8532   3.577   1.989  16.206 -0.7872 -0.1684 -0.9032
   6623SM  H10S 8533   3.688   1.992  16.212 -0.7915 -0.0049 -0.9066
   6623SM  H10T 8534   3.536   2.072  16.267 -0.0642 -0.0924 -0.5036
   6623SM  C11S 8535   3.530   2.003  16.066 -0.9688  0.6274  0.1335
   6623SM  H11S 8536   3.420   2.012  16.066 -1.1678 -1.2254 -1.4263
   6623SM  H11T 8537   3.544   1.914  16.001  0.1873  0.1100  1.0425
   6623SM  C12S 8538   3.576   2.128  16.002  0.4086 -0.3661  0.3937
   6623SM  H12S 8539   3.685   2.136  15.980  0.2088 -0.1604 -0.5499
   6623SM  H12T 8540   3.568   2.221  16.061  1.3443 -0.4380  0.6579
   6623SM  C13S 8541   3.503   2.153  15.868 -0.6662  0.3178 -0.2025
   6623SM  H13S 8542   3.396   2.164  15.893 -1.2644  0.4145 -2.6102
   6623SM  H13T 8543   3.514   2.070  15.796  0.4578 -1.5136  1.9548
   6623SM  C14S 8544   3.545   2.285  15.805 -0.0486  0.2110 -0.7304
   6623SM  H14S 8545   3.654   2.274  15.787  0.8960  2.3748  2.7289
   6623SM  H14T 8546   3.544   2.369  15.878  0.3712  1.0762 -1.6983
   6623SM  C15S 8547   3.460   2.328  15.682  0.1336 -1.1037  0.0684
   6623SM  H15S 8548   3.376   2.390  15.720  0.1146 -0.8028 -0.4599
   6623SM  H15T 8549   3.410   2.239  15.637 -0.1570 -0.1562 -1.5535
   6623SM  C16S 8550   3.552   2.417  15.591  0.4288  0.7036  0.2970
   6623SM  H16S 8551   3.637   2.351  15.563  0.8676  0.4840  2.0368
   6623SM  H16T 8552   3.585   2.504  15.651 -2.3222  2.5846 -0.7228
   6623SM  C17S 8553   3.495   2.468  15.455  0.5513 -0.3707  0.1896
   6623SM  H17S 8554   3.413   2.529  15.497  0.6222  2.0530 -2.8276
   6623SM  H17T 8555   3.458   2.378  15.400 -1.3325 -0.5785  1.7067
   6623SM  C18S 8556   3.583   2.555  15.368 -0.8725  1.2827  0.0855
   6623SM  H18S 8557   3.668   2.502  15.321 -0.3647  2.1112  0.0479
   6623SM  H18T 8558   3.621   2.638  15.431  0.4220  0.3856  0.5003
   6623SM  H18U 8559   3.527   2.596  15.281 -2.1303 -0.8409 -0.1671
   6623SM   C1F 8560   3.531   1.083  16.503 -0.7555  0.0002 -0.1374
   6623SM    OF 8561   3.449   1.005  16.537 -0.2594  0.0411  0.3149
   6623SM   C2F 8562   3.612   1.072  16.374 -0.2598 -0.0503 -0.0330
   6623SM   H2F 8563   3.718   1.048  16.399  1.0073  2.4893 -2.4117
   6623SM   H2G 8564   3.617   1.174  16.330  0.0293  1.6289  3.5361
   6623SM   C3F 8565   3.558   0.966  16.272  0.2719 -0.0321  0.2319
   6623SM   H3F 8566   3.452   0.988  16.247  0.2425 -0.2696  0.1403
   6623SM   H3G 8567   3.553   0.866  16.321 -2.4342 -0.3751 -0.5597
   6623SM   C4F 8568   3.652   0.956  16.159 -0.1402  0.2596  0.1570
   6623SM   H4F 8569   3.634   0.856  16.113 -0.8993  0.8675 -0.9138
   6623SM   H4G 8570   3.754   0.940  16.201  0.6756  0.7525 -1.5349
   6623SM   C5F 8571   3.632   1.063  16.056  0.1082 -0.1601 -0.1961
   6623SM   H5F 8572   3.699   1.151  16.066 -1.0156  0.8858 -1.4800
   6623SM   H5G 8573   3.531   1.105  16.074  0.2646 -0.5428  1.8962
   6623SM   C6F 8574   3.633   1.006  15.919  0.7814 -0.8982  0.0854
   6623SM   H6F 8575   3.554   0.928  15.912 -0.8050  0.4248  2.1670
   6623SM   H6G 8576   3.732   0.960  15.894  1.1883 -0.5993  1.0987
   6623SM   C7F 8577   3.612   1.118  15.807  0.4482 -0.3548 -0.3021
   6623SM   H7F 8578   3.687   1.199  15.819  2.5914 -2.3214  0.2517
   6623SM   H7G 8579   3.509   1.158  15.822  0.6229  0.3198 -0.8549
   6623SM   C8F 8580   3.629   1.058  15.668  0.2992 -0.4484 -0.2934
   6623SM   H8F 8581   3.552   0.978  15.658 -2.8399  2.0154  1.9470
   6623SM   H8G 8582   3.726   1.006  15.652  0.1901 -0.4438 -1.0051
   6623SM   C9F 8583   3.630   1.164  15.562 -0.2956  0.1160  0.5579
   6623SM   H9F 8584   3.701   1.248  15.581 -0.9746  0.7250  0.4274
   6623SM   H9G 8585   3.532   1.216  15.560  0.9511  2.6074  0.4617
   6623SM  C10F 8586   3.655   1.099  15.425 -0.4605  0.2298  0.0346
   6623SM  H10F 8587   3.576   1.022  15.410  1.0155 -1.0738 -1.4463
   6623SM  H10G 8588   3.744   1.034  15.408  1.5651  3.0986 -1.1537
   6623SM  C11F 8589   3.651   1.208  15.316 -0.7170  0.6160  0.1528
   6623SM  H11F 8590   3.742   1.271  15.321 -1.0569  1.2921 -1.6377
   6623SM  H11G 8591   3.563   1.274  15.332 -1.3994  0.1034 -1.3466
   6623SM  C12F 8592   3.651   1.143  15.176  0.4513  0.0077  0.1949
   6623SM  H12F 8593   3.716   1.053  15.184  1.1994  0.6085  1.1472
   6623SM  H12G 8594   3.680   1.222  15.103 -1.4260  1.7638  1.2783
   6623SM  C13F 8595   3.505   1.109  15.125 -0.0656 -0.0021 -0.4383
   6623SM  H13F 8596   3.447   1.203  15.119 -1.9607 -1.1608 -1.4713
   6623SM  H13G 8597   3.457   1.042  15.200  0.8696  1.5671  1.6507
   6623SM  C14F 8598   3.514   1.029  14.999  0.2087  0.4161  0.1820
   6623SM  H14F 8599   3.565   0.934  15.023  1.5148  1.5468  2.1543
   6623SM  H14G 8600   3.576   1.093  14.932  0.7344  0.7571  0.9817
   6623SM  C15F 8601   3.375   1.029  14.944 -0.4130  0.1806 -0.3281
   6623SM  H15F 8602   3.334   1.130  14.961 -0.2255  0.1547  0.2764
   6623SM  H15G 8603   3.313   0.964  15.009 -0.0945  0.6644  0.4661
   6623SM  C16F 8604   3.363   0.986  14.800  0.1028 -0.4626  0.1248
   6623SM  H16F 8605   3.332   0.880  14.788  0.5638 -0.5049 -0.7536
   6623SM  H16G 8606   3.455   1.005  14.741 -0.5851 -0.9321 -1.1515
   6623SM  C17F 8607   3.265   1.081  14.723  0.5325 -0.0093  0.2774
   6623SM  H17F 8608   3.277   1.191  14.730 -2.8538  0.3753  2.1662
   6623SM  H17G 8609   3.164   1.073  14.768  0.2884  1.7682  0.1306
   6623SM  C18F 8610   3.237   1.049  14.582 -0.4740  0.2057  0.6558
   6623SM  H18F 8611   3.194   1.139  14.534 -0.2271  0.3645  0.7342
   6623SM  H18G 8612   3.163   0.968  14.561 -0.1153  0.2083 -0.7799
   6623SM  C19F 8613   3.360   1.021  14.487  0.1508  0.3685 -0.0581
   6623SM  H19F 8614   3.426   0.940  14.524  1.5911  0.2957 -2.5269
   6623SM  H19G 8615   3.425   1.111  14.481 -0.0176  0.5330  0.5468
   6623SM  C20F 8616   3.315   0.998  14.341 -0.2703 -0.4666 -0.2170
   6623SM  H20F 8617   3.273   1.094  14.303 -0.5793  0.1956  1.6709
   6623SM  H20G 8618   3.230   0.926  14.341  1.1597 -2.1964  0.4952
   6623SM  C21F 8619   3.435   0.948  14.252  0.3316  0.0202 -0.4336
   6623SM  H21F 8620   3.386   0.937  14.153  1.8885 -0.9803 -1.1330
   6623SM  H21G 8621   3.483   0.856  14.291 -1.9978 -0.6477  1.0440
   6623SM  C22F 8622   3.538   1.052  14.228  0.3680 -0.7459  0.4998
   6623SM  H22F 8623   3.596   1.081  14.319  0.0401  1.3418  0.0950
   6623SM  H22G 8624   3.496   1.150  14.198 -0.0255 -1.2352 -0.5913
   6623SM  C23F 8625   3.645   1.015  14.126 -0.3080 -0.3066 -0.2211
   6623SM  H23F 8626   3.601   0.982  14.029  0.4386 -0.9064 -0.3630
   6623SM  H23G 8627   3.712   0.933  14.158  0.0575  0.2654  0.5189
   6623SM  H23H 8628   3.712   1.104  14.116 -0.0210 -0.1777  2.2805
   6723SM     N 8629   1.780   6.095  17.169 -0.7505  0.9997  0.1173
   6723SM   C15 8630   1.753   5.954  17.127 -0.6390 -0.0479 -0.5078
   6723SM  H15A 8631   1.646   5.951  17.109 -0.8493  1.8407  0.1375
   6723SM  H15B 8632   1.779   5.882  17.203  1.9915  0.0896 -1.2058
   6723SM  H15C 8633   1.821   5.945  17.045  1.6727  2.0127  1.0408
   6723SM   C14 8634   1.747   6.199  17.065 -0.6895 -0.4081 -0.3060
   6723SM  H14A 8635   1.643   6.204  17.036 -0.3224 -1.1463 -1.8599
   6723SM  H14B 8636   1.814   6.193  16.981  1.2760  1.8641  0.9785
   6723SM  H14C 8637   1.769   6.296  17.105  0.5189 -1.4475  1.7227
   6723SM   C13 8638   1.696   6.112  17.295  0.0316 -0.1573 -0.9371
   6723SM  H13A 8639   1.592   6.118  17.266  0.2146  1.2676 -1.3447
   6723SM  H13B 8640   1.711   6.203  17.351 -1.5898 -0.7683  0.6115
   6723SM  H13C 8641   1.718   6.028  17.359  0.5003  0.7779  0.1572
   6723SM   C12 8642   1.926   6.107  17.205  0.7967  0.2144 -0.2361
   6723SM  H12A 8643   1.947   6.211  17.224 -0.4524  0.0873  2.4202
   6723SM  H12B 8644   1.984   6.091  17.116 -0.7143  0.3144 -1.2688
   6723SM   C11 8645   1.980   6.030  17.329 -0.3508  0.1265  0.0446
   6723SM  H11A 8646   1.930   6.063  17.422  2.8964  0.7939  1.6856
   6723SM  H11B 8647   2.087   6.061  17.332  0.4868 -1.7870 -3.7007
   6723SM     P 8648   2.101   5.800  17.301  0.2206 -0.5531 -0.1438
   6723SM   O13 8649   2.202   5.839  17.399  0.4358 -0.3820  0.0301
   6723SM   O14 8650   2.069   5.655  17.297  0.9869  0.1840  0.1931
   6723SM   O11 8651   2.160   5.854  17.163 -0.3674 -0.6448 -0.5291
   6723SM   O12 8652   1.969   5.885  17.318 -0.6647  0.2650 -0.0109
   6723SM   C1S 8653   2.081   5.829  17.040  0.0771 -0.7170 -0.4626
   6723SM   H1S 8654   1.981   5.875  17.041  1.3992  2.5207 -2.0494
   6723SM   H1T 8655   2.070   5.721  17.016  0.8125 -0.5513 -1.7022
   6723SM    NF 8656   2.056   5.907  16.817 -0.2214  0.7777 -0.6197
   6723SM   HNF 8657   2.053   5.837  16.746  1.8709 -0.4600  0.4260
   6723SM   C2S 8658   2.158   5.896  16.923  0.4007  0.3380  0.3206
   6723SM   H2S 8659   2.178   6.000  16.956 -1.7466  0.5144  1.2599
   6723SM   C3S 8660   2.297   5.826  16.893  0.0555  0.4942 -0.4316
   6723SM   H3S 8661   2.274   5.724  16.853 -3.0735  1.4332 -1.3083
   6723SM    O3 8662   2.376   5.792  17.008 -0.2082  0.2177 -0.1272
   6723SM   HO3 8663   2.318   5.812  17.082 -1.5403 -1.8282 -0.5341
   6723SM   C4S 8664   2.378   5.898  16.782 -0.3233 -0.5785 -0.1976
   6723SM   H4S 8665   2.330   5.903  16.683  1.1173 -0.5129 -0.9279
   6723SM   C5S 8666   2.490   5.964  16.798  0.4796 -0.6532  0.5982
   6723SM   H5S 8667   2.537   5.973  16.896 -0.9102 -1.8083  1.4061
   6723SM   C6S 8668   2.575   6.032  16.688  0.4702  0.8694 -0.2274
   6723SM   H6S 8669   2.681   6.009  16.711  0.0641 -0.9105 -0.0156
   6723SM   H6T 8670   2.578   6.143  16.695  1.0643  0.9198 -1.1160
   6723SM   C7S 8671   2.545   5.995  16.545  0.0689  0.8444 -0.9225
   6723SM   H7S 8672   2.442   6.017  16.510 -0.0201 -0.2826 -1.4071
   6723SM   H7T 8673   2.550   5.884  16.547  1.8742  0.8991  1.2757
   6723SM   C8S 8674   2.634   6.053  16.429  0.4391 -0.0839 -0.6211
   6723SM   H8S 8675   2.742   6.029  16.442 -0.0596 -2.8269 -0.9967
   6723SM   H8T 8676   2.607   6.161  16.434  1.0008  0.1003 -1.3819
   6723SM   C9S 8677   2.579   6.011  16.293 -0.2073  0.4910 -0.5079
   6723SM   H9S 8678   2.468   6.007  16.294 -0.1685 -2.0899 -0.4692
   6723SM   H9T 8679   2.610   5.908  16.266 -0.1274  0.4684 -0.3340
   6723SM  C10S 8680   2.631   6.096  16.178 -0.0887  0.1713 -0.5440
   6723SM  H10S 8681   2.741   6.080  16.178 -0.1417 -0.1874 -0.9618
   6723SM  H10T 8682   2.606   6.199  16.211 -0.1263  0.3418 -1.0948
   6723SM  C11S 8683   2.585   6.052  16.040  0.5278  0.3664 -0.9868
   6723SM  H11S 8684   2.474   6.060  16.049  0.2195 -3.5280  0.9233
   6723SM  H11T 8685   2.605   5.943  16.036  0.0362  0.0877  1.9060
   6723SM  C12S 8686   2.632   6.125  15.919 -0.3201 -0.0003  0.2272
   6723SM  H12S 8687   2.737   6.094  15.901 -0.0933  0.9980 -0.2281
   6723SM  H12T 8688   2.648   6.234  15.934  0.2771 -0.1046  0.3849
   6723SM  C13S 8689   2.553   6.077  15.787 -0.2209  0.6943 -0.2171
   6723SM  H13S 8690   2.468   6.147  15.772  0.6177  1.9361  0.5973
   6723SM  H13T 8691   2.522   5.971  15.796 -0.4312  0.8136  0.5838
   6723SM  C14S 8692   2.648   6.107  15.671  0.2776 -0.4585 -0.0733
   6723SM  H14S 8693   2.742   6.048  15.673  2.6298  2.6541 -3.7926
   6723SM  H14T 8694   2.682   6.212  15.677 -2.0089  0.3564 -0.5863
   6723SM  C15S 8695   2.575   6.093  15.543  0.0592 -0.3509  0.2885
   6723SM  H15S 8696   2.499   6.174  15.538  0.1935 -0.2737 -0.7175
   6723SM  H15T 8697   2.526   5.994  15.537 -1.3077  0.3545 -0.9560
   6723SM  C16S 8698   2.655   6.101  15.408 -0.2551  0.0758  0.2688
   6723SM  H16S 8699   2.719   6.010  15.414  2.2835  1.5928 -1.5180
   6723SM  H16T 8700   2.727   6.185  15.401  0.3490 -0.5592 -3.4538
   6723SM  C17S 8701   2.575   6.090  15.276 -0.3319 -0.2248 -0.0993
   6723SM  H17S 8702   2.515   6.183  15.274  1.6970  1.1290 -1.3164
   6723SM  H17T 8703   2.497   6.011  15.278 -0.2268 -0.3122  1.2358
   6723SM  C18S 8704   2.666   6.085  15.149 -0.4842  0.2371 -0.2406
   6723SM  H18S 8705   2.725   6.178  15.142 -1.3815  0.9993  1.5547
   6723SM  H18T 8706   2.606   6.095  15.056 -1.3043  0.6864  0.3278
   6723SM  H18U 8707   2.720   5.988  15.156 -0.9112  0.0967  1.8646
   6723SM   C1F 8708   1.958   5.999  16.823 -0.8776  0.5415 -0.2926
   6723SM    OF 8709   1.968   6.096  16.896 -0.2401  0.1146  0.4507
   6723SM   C2F 8710   1.839   5.980  16.736 -0.3680 -0.1100 -0.1695
   6723SM   H2F 8711   1.879   5.964  16.634 -0.0944  0.4378 -0.1546
   6723SM   H2G 8712   1.772   6.069  16.737 -3.7157 -2.4481  0.7244
   6723SM   C3F 8713   1.759   5.852  16.777 -0.6943 -0.1985  1.0724
   6723SM   H3F 8714   1.727   5.866  16.882 -0.4563  1.3072  0.9615
   6723SM   H3G 8715   1.830   5.767  16.767 -2.0712 -1.2213 -0.5743
   6723SM   C4F 8716   1.646   5.829  16.670  0.5244  0.7429 -0.2713
   6723SM   H4F 8717   1.622   5.929  16.629  1.8090  0.6867 -1.2431
   6723SM   H4G 8718   1.565   5.800  16.741 -0.2312 -1.0115 -1.7610
   6723SM   C5F 8719   1.650   5.719  16.560  0.2780 -0.1989  0.1119
   6723SM   H5F 8720   1.545   5.709  16.527  0.1051 -0.8088  0.8144
   6723SM   H5G 8721   1.680   5.618  16.595  1.7725 -0.3913 -1.5325
   6723SM   C6F 8722   1.759   5.736  16.451 -0.0569 -0.3048  0.0736
   6723SM   H6F 8723   1.743   5.657  16.374  0.5285 -2.2980  1.8982
   6723SM   H6G 8724   1.860   5.728  16.497  1.1814  1.7880 -2.0590
   6723SM   C7F 8725   1.726   5.869  16.379 -0.5182  0.0955  0.3381
   6723SM   H7F 8726   1.652   5.931  16.432 -0.2975  1.0488 -0.4508
   6723SM   H7G 8727   1.679   5.840  16.282  0.8763 -0.0705 -0.3244
   6723SM   C8F 8728   1.842   5.958  16.343  0.1564  0.7110  0.3187
   6723SM   H8F 8729   1.912   5.953  16.430  0.7475  2.5450  0.0068
   6723SM   H8G 8730   1.813   6.065  16.334  1.5033  1.1680  1.0915
   6723SM   C9F 8731   1.921   5.921  16.212 -0.0377  0.1740 -0.2689
   6723SM   H9F 8732   1.942   5.812  16.223 -2.6765 -0.1597  4.0032
   6723SM   H9G 8733   2.014   5.981  16.206  0.4915 -0.4364  1.3237
   6723SM  C10F 8734   1.832   5.942  16.089  0.3057 -0.2194 -0.3021
   6723SM  H10F 8735   1.815   6.048  16.059 -1.4457 -0.5048 -0.4120
   6723SM  H10G 8736   1.733   5.893  16.098  0.6794 -0.9178  0.0134
   6723SM  C11F 8737   1.887   5.877  15.957 -0.2677  0.7855 -0.4595
   6723SM  H11F 8738   1.899   5.767  15.968  0.9850  0.8996 -0.6413
   6723SM  H11G 8739   1.988   5.916  15.932  0.2938  0.5401  1.3308
   6723SM  C12F 8740   1.800   5.918  15.836 -0.3107  0.1576  0.2781
   6723SM  H12F 8741   1.784   6.026  15.858 -0.0883 -0.3900  3.6942
   6723SM  H12G 8742   1.694   5.884  15.841 -0.3799  0.4042  0.6198
   6723SM  C13F 8743   1.869   5.903  15.701  0.1575  0.5112  0.4723
   6723SM  H13F 8744   1.877   5.796  15.672  0.4722  0.7479 -0.3531
   6723SM  H13G 8745   1.960   5.965  15.687  0.2627  0.1144 -0.7395
   6723SM  C14F 8746   1.784   5.957  15.583 -0.3393  1.0399 -0.6325
   6723SM  H14F 8747   1.790   6.067  15.600 -1.3824  1.0099 -0.0010
   6723SM  H14G 8748   1.682   5.916  15.592  0.5792 -1.6432 -1.6353
   6723SM  C15F 8749   1.840   5.906  15.452 -0.1520 -0.2051 -0.0776
   6723SM  H15F 8750   1.835   5.795  15.449 -3.3028 -0.2661  2.1405
   6723SM  H15G 8751   1.946   5.940  15.453 -0.7224  1.8494 -1.6986
   6723SM  C16F 8752   1.781   5.970  15.325  0.0654  0.1124  0.4057
   6723SM  H16F 8753   1.844   5.932  15.241  0.6051 -3.9251  2.3656
   6723SM  H16G 8754   1.788   6.080  15.333  2.3024  0.2108 -1.6398
   6723SM  C17F 8755   1.637   5.921  15.280  0.0409 -0.0569  0.0939
   6723SM  H17F 8756   1.567   5.986  15.336  1.2791  0.2467  1.3386
   6723SM  H17G 8757   1.617   5.820  15.323 -3.0206  1.0579  1.5675
   6723SM  C18F 8758   1.610   5.936  15.125 -0.3061 -0.1042  0.7553
   6723SM  H18F 8759   1.685   5.881  15.064 -0.0516 -0.5576  1.4615
   6723SM  H18G 8760   1.617   6.039  15.084  1.9823 -0.3357  0.4395
   6723SM  C19F 8761   1.468   5.882  15.106 -0.3557  0.5570  0.1961
   6723SM  H19F 8762   1.404   5.967  15.140  1.1638  1.7551  0.1970
   6723SM  H19G 8763   1.465   5.787  15.164  3.7091 -0.4439 -0.9255
   6723SM  C20F 8764   1.437   5.851  14.960 -0.3325  0.9149  0.4782
   6723SM  H20F 8765   1.516   5.786  14.916 -0.1156  0.9665  0.7893
   6723SM  H20G 8766   1.451   5.942  14.899 -0.2403  0.0907 -0.7682
   6723SM  C21F 8767   1.301   5.788  14.935  0.0666 -0.2403 -0.7414
   6723SM  H21F 8768   1.285   5.789  14.825 -0.6721 -0.4529 -0.6435
   6723SM  H21G 8769   1.220   5.848  14.982 -2.3299 -1.6714 -2.7757
   6723SM  C22F 8770   1.293   5.639  14.965  0.0496 -0.5415  0.4875
   6723SM  H22F 8771   1.296   5.640  15.076  1.8793  2.1384  0.4896
   6723SM  H22G 8772   1.388   5.591  14.933 -1.1653 -3.4396  0.8504
   6723SM  C23F 8773   1.168   5.571  14.905 -0.2576  0.1919 -0.6209
   6723SM  H23F 8774   1.179   5.559  14.795  1.3750 -1.9569 -0.2843
   6723SM  H23G 8775   1.085   5.639  14.933  0.3495  0.1556  1.4702
   6723SM  H23H 8776   1.158   5.473  14.956  0.3811  0.1936 -0.4827
   6823SM     N 8777   3.011   0.162  16.981  0.0387  0.7158  0.1821
   6823SM   C15 8778   3.083   0.027  16.967  0.1456  0.4787 -1.1661
   6823SM  H15A 8779   3.090  -0.024  17.062 -0.3673 -0.2475 -1.5085
   6823SM  H15B 8780   3.178   0.037  16.915  0.9899 -0.6348  0.1012
   6823SM  H15C 8781   3.026  -0.032  16.897 -0.0656 -0.1498 -0.4615
   6823SM   C14 8782   2.871   0.141  17.042 -0.1217 -0.5953 -0.2661
   6823SM  H14A 8783   2.877   0.100  17.142  1.2661  0.3644  0.0844
   6823SM  H14B 8784   2.803   0.091  16.975  0.5336  0.9382 -2.1696
   6823SM  H14C 8785   2.826   0.238  17.055  0.8830 -0.3485  1.7328
   6823SM   C13 8786   3.099   0.248  17.056 -0.8781  0.2999  0.3831
   6823SM  H13A 8787   3.205   0.245  17.036 -1.0298  0.4997 -0.5014
   6823SM  H13B 8788   3.088   0.222  17.160 -2.2611  1.3632  0.5412
   6823SM  H13C 8789   3.067   0.351  17.052 -1.2347  0.1535 -2.5296
   6823SM   C12 8790   3.003   0.218  16.840  0.2899  0.2562 -0.1159
   6823SM  H12A 8791   2.949   0.155  16.770  0.8689 -0.6226  0.2082
   6823SM  H12B 8792   3.101   0.218  16.795  0.9700 -3.7085  0.9428
   6823SM   C11 8793   2.941   0.360  16.825  0.0947  0.0391 -0.4537
   6823SM  H11A 8794   2.952   0.406  16.724  1.2020 -1.5846 -1.1231
   6823SM  H11B 8795   2.991   0.431  16.893 -3.0320  1.0946  0.9515
   6823SM     P 8796   2.685   0.306  16.774  0.5235 -0.0986 -0.1630
   6823SM   O13 8797   2.708   0.162  16.744 -0.1942 -0.3703 -0.4530
   6823SM   O14 8798   2.563   0.342  16.847  0.1508  0.0182  0.0711
   6823SM   O11 8799   2.706   0.400  16.646 -0.1889 -0.2748 -0.1930
   6823SM   O12 8800   2.802   0.358  16.862  0.2351 -0.5499 -0.4417
   6823SM   C1S 8801   2.673   0.539  16.644 -0.3517 -0.1304  0.2981
   6823SM   H1S 8802   2.723   0.589  16.730 -0.3602  0.8750 -0.2724
   6823SM   H1T 8803   2.567   0.557  16.672 -0.3884  0.3639 -0.1519
   6823SM    NF 8804   2.685   0.757  16.540 -0.3465 -0.0824  0.3062
   6823SM   HNF 8805   2.601   0.790  16.499 -0.2629  1.1020  1.0323
   6823SM   C2S 8806   2.716   0.619  16.522  0.3508 -0.1312  0.1637
   6823SM   H2S 8807   2.827   0.615  16.515  0.6571  1.7985  2.5443
   6823SM   C3S 8808   2.647   0.547  16.402 -0.4818 -0.3939 -0.6112
   6823SM   H3S 8809   2.537   0.553  16.419 -0.4159 -0.1227 -0.2659
   6823SM    O3 8810   2.684   0.411  16.384 -0.1485 -0.1579 -0.7255
   6823SM   HO3 8811   2.719   0.380  16.468  3.6365  2.1461 -1.2193
   6823SM   C4S 8812   2.681   0.626  16.275  0.1475  0.1094  0.3633
   6823SM   H4S 8813   2.786   0.619  16.245 -0.0326  2.8056 -1.2166
   6823SM   C5S 8814   2.609   0.701  16.190  0.5133 -0.1140 -0.1468
   6823SM   H5S 8815   2.501   0.717  16.208  0.2394 -1.6819 -0.2924
   6823SM   C6S 8816   2.667   0.774  16.065  0.5572 -0.1640  0.4842
   6823SM   H6S 8817   2.639   0.881  16.072  0.3021 -0.2533  0.9170
   6823SM   H6T 8818   2.621   0.733  15.973 -0.5940  0.7033  0.6515
   6823SM   C7S 8819   2.818   0.764  16.028 -0.3331 -0.4866 -0.2834
   6823SM   H7S 8820   2.846   0.660  15.999  0.1361  0.5116 -3.8603
   6823SM   H7T 8821   2.875   0.799  16.117 -0.4932  0.8181 -0.6785
   6823SM   C8S 8822   2.857   0.853  15.908 -0.0860 -0.0331  0.2463
   6823SM   H8S 8823   2.963   0.824  15.890 -0.1058 -0.2388  0.4501
   6823SM   H8T 8824   2.831   0.960  15.921  1.6154  0.9394 -3.2570
   6823SM   C9S 8825   2.788   0.803  15.782 -0.2240 -0.1777  0.0495
   6823SM   H9S 8826   2.686   0.847  15.780 -0.0304  0.2814 -2.4286
   6823SM   H9T 8827   2.770   0.693  15.785 -1.7564  0.0705  2.4527
   6823SM  C10S 8828   2.858   0.859  15.660  0.0091  0.0788 -0.2585
   6823SM  H10S 8829   2.960   0.816  15.654 -0.0707 -0.5492  2.0889
   6823SM  H10T 8830   2.874   0.968  15.673  0.4407 -0.0566  0.3603
   6823SM  C11S 8831   2.786   0.829  15.529  0.1137 -0.2200 -0.8884
   6823SM  H11S 8832   2.692   0.888  15.531 -0.4106 -1.0346  0.9055
   6823SM  H11T 8833   2.778   0.719  15.521  2.5448 -0.7814  2.4157
   6823SM  C12S 8834   2.875   0.875  15.414  0.0945  0.3302 -0.6557
   6823SM  H12S 8835   2.971   0.825  15.442 -0.5352 -0.8442 -0.5387
   6823SM  H12T 8836   2.880   0.985  15.411  0.7362  0.4138  1.5630
   6823SM  C13S 8837   2.828   0.818  15.283  0.0061  0.2656  0.1985
   6823SM  H13S 8838   2.727   0.857  15.257  0.2574  0.7514 -0.0669
   6823SM  H13T 8839   2.811   0.711  15.306  3.2881 -0.5997 -0.8904
   6823SM  C14S 8840   2.922   0.830  15.164  0.2974  0.1727 -0.2657
   6823SM  H14S 8841   3.019   0.797  15.207  0.9113 -0.0513 -1.7715
   6823SM  H14T 8842   2.931   0.936  15.132  1.9767 -0.1726 -1.0176
   6823SM  C15S 8843   2.881   0.740  15.044 -0.3350  0.4886  0.3325
   6823SM  H15S 8844   2.772   0.746  15.026 -0.4266  1.4100  1.0911
   6823SM  H15T 8845   2.888   0.633  15.072 -0.1901  0.6670  0.9938
   6823SM  C16S 8846   2.964   0.761  14.912  0.9246 -0.2863  0.4164
   6823SM  H16S 8847   3.074   0.747  14.918  0.8545 -0.2958  2.7357
   6823SM  H16T 8848   2.955   0.861  14.866 -2.2664 -1.3852 -1.6831
   6823SM  C17S 8849   2.916   0.674  14.801 -0.0296 -0.8861  0.7388
   6823SM  H17S 8850   2.807   0.688  14.783 -0.1613 -0.8046  1.5610
   6823SM  H17T 8851   2.926   0.567  14.828  0.3324 -1.2979 -0.9035
   6823SM  C18S 8852   2.996   0.696  14.677  0.0453 -0.3135  0.3988
   6823SM  H18S 8853   2.952   0.643  14.590  1.1803  0.2505 -0.5463
   6823SM  H18T 8854   3.100   0.662  14.696  0.5882  1.4654  0.8254
   6823SM  H18U 8855   3.004   0.802  14.645  1.9884  0.2347  2.4452
   6823SM   C1F 8856   2.765   0.838  16.611  0.4937 -0.5237 -0.6882
   6823SM    OF 8857   2.855   0.794  16.675  0.5608  0.3038  0.1483
   6823SM   C2F 8858   2.720   0.982  16.625 -0.6955 -0.1959  0.5180
   6823SM   H2F 8859   2.796   1.041  16.681 -2.3731  0.5125  2.1247
   6823SM   H2G 8860   2.624   0.995  16.678 -0.0770  0.2841  1.5358
   6823SM   C3F 8861   2.707   1.047  16.482 -1.1350  0.4374  0.6958
   6823SM   H3F 8862   2.689   1.156  16.493 -1.4351  0.2332  2.4881
   6823SM   H3G 8863   2.623   0.996  16.432  0.7443 -0.1515 -2.0833
   6823SM   C4F 8864   2.848   1.024  16.401  0.4121  0.4325  0.1767
   6823SM   H4F 8865   2.847   0.918  16.368  0.2317  0.3476  0.4503
   6823SM   H4G 8866   2.936   1.035  16.468  0.6086 -2.7316  0.6025
   6823SM   C5F 8867   2.859   1.106  16.281  0.2406  0.6173  0.3253
   6823SM   H5F 8868   2.833   1.209  16.312  1.4867  1.4865 -1.3313
   6823SM   H5G 8869   2.787   1.067  16.206  1.8900 -1.0946 -0.4498
   6823SM   C6F 8870   2.996   1.102  16.215 -0.1526  0.2293  1.1018
   6823SM   H6F 8871   3.016   0.999  16.179 -0.6297  0.5083 -0.0038
   6823SM   H6G 8872   3.080   1.144  16.274  1.4667  0.3447 -1.1628
   6823SM   C7F 8873   3.002   1.192  16.083  0.3195  0.2503 -0.8522
   6823SM   H7F 8874   2.986   1.298  16.111 -1.8122 -0.3127  0.1975
   6823SM   H7G 8875   2.907   1.165  16.033 -0.0580 -1.0373  0.5114
   6823SM   C8F 8876   3.124   1.172  15.995  0.3076 -0.0736 -0.1644
   6823SM   H8F 8877   3.134   1.066  15.964 -1.7750 -0.4687  0.3208
   6823SM   H8G 8878   3.210   1.199  16.059 -0.7323  3.9139 -0.1875
   6823SM   C9F 8879   3.120   1.278  15.889  0.1193 -0.1037 -0.0802
   6823SM   H9F 8880   3.225   1.308  15.870 -0.2546  0.7853 -0.8351
   6823SM   H9G 8881   3.086   1.373  15.935 -1.3243 -1.1275  1.0519
   6823SM  C10F 8882   3.063   1.234  15.750  0.3848 -0.2407 -0.6070
   6823SM  H10F 8883   2.971   1.173  15.759  0.7831 -0.5828  1.7040
   6823SM  H10G 8884   3.131   1.158  15.708 -0.3673 -1.2096 -0.1154
   6823SM  C11F 8885   3.046   1.346  15.653 -0.6960 -0.5278  0.0733
   6823SM  H11F 8886   3.150   1.386  15.655 -1.0188  0.3180  1.6072
   6823SM  H11G 8887   2.982   1.430  15.686  0.2337 -0.6091  2.2666
   6823SM  C12F 8888   3.015   1.302  15.515  0.3839  0.2935  0.7495
   6823SM  H12F 8889   2.911   1.336  15.498  0.7355  1.8080  1.4272
   6823SM  H12G 8890   3.014   1.193  15.497  1.3352  0.6222 -1.6986
   6823SM  C13F 8891   3.109   1.358  15.409  0.2993  0.2841 -0.2505
   6823SM  H13F 8892   3.212   1.330  15.440  0.3885  2.6044  1.8760
   6823SM  H13G 8893   3.107   1.467  15.428  1.7495  0.5320 -1.2989
   6823SM  C14F 8894   3.084   1.328  15.262  0.6365  0.1787  0.2145
   6823SM  H14F 8895   3.091   1.217  15.266 -0.8556  0.0842  3.8040
   6823SM  H14G 8896   3.172   1.366  15.206  0.6842 -0.6485 -0.2996
   6823SM  C15F 8897   2.948   1.382  15.208  0.2457 -0.7376 -0.5100
   6823SM  H15F 8898   2.939   1.489  15.236  3.3046 -0.3567 -0.6332
   6823SM  H15G 8899   2.859   1.333  15.253  0.7709 -2.0007 -0.8011
   6823SM  C16F 8900   2.937   1.381  15.053  0.6040 -0.1321  0.4884
   6823SM  H16F 8901   2.845   1.440  15.032  0.3782 -0.4343  0.6276
   6823SM  H16G 8902   2.928   1.281  15.006 -0.0156  0.5132 -0.8143
   6823SM  C17F 8903   3.055   1.459  14.978 -0.3187  0.1105 -0.1412
   6823SM  H17F 8904   3.141   1.392  15.002  0.1189  1.1926  1.4911
   6823SM  H17G 8905   3.093   1.558  15.012  0.5889 -0.4999  0.6985
   6823SM  C18F 8906   3.033   1.458  14.828 -0.6300 -0.0117  0.7590
   6823SM  H18F 8907   2.952   1.534  14.821  0.4593  1.1224  0.1010
   6823SM  H18G 8908   3.021   1.352  14.798  1.8276 -0.6537  1.8249
   6823SM  C19F 8909   3.155   1.518  14.754  0.4932 -0.8839  0.0058
   6823SM  H19F 8910   3.244   1.458  14.782  0.6510  0.1466  1.8516
   6823SM  H19G 8911   3.180   1.615  14.802 -0.9900  0.0363 -0.9704
   6823SM  C20F 8912   3.130   1.539  14.612  0.3233 -0.2870 -0.1052
   6823SM  H20F 8913   3.053   1.619  14.614  0.7226  0.0892  0.1223
   6823SM  H20G 8914   3.081   1.444  14.579  0.8673 -0.8846  0.7521
   6823SM  C21F 8915   3.249   1.589  14.527  0.5926  0.2996 -0.0967
   6823SM  H21F 8916   3.269   1.692  14.564 -2.3343  1.2703 -0.9361
   6823SM  H21G 8917   3.225   1.607  14.420 -1.9581  2.9359  0.7956
   6823SM  C22F 8918   3.375   1.497  14.525  0.0820 -1.0055  0.0988
   6823SM  H22F 8919   3.398   1.452  14.624  2.7194 -2.3735 -1.0176
   6823SM  H22G 8920   3.455   1.570  14.501 -2.1029  1.3016 -0.5212
   6823SM  C23F 8921   3.359   1.397  14.407 -0.1550  0.6606 -0.8723
   6823SM  H23F 8922   3.271   1.333  14.427  0.3846 -0.2924 -1.4888
   6823SM  H23G 8923   3.455   1.342  14.402 -0.3893  0.2725 -1.1148
   6823SM  H23H 8924   3.343   1.445  14.308 -0.3348  1.3198 -0.5307
   6923SM     N 8925   4.854   3.079  16.927  0.4598 -0.6242 -0.0379
   6923SM   C15 8926   4.826   3.182  16.820  0.6553 -0.3928 -0.3708
   6923SM  H15A 8927   4.829   3.138  16.721  1.7876 -0.0892 -0.4972
   6923SM  H15B 8928   4.895   3.266  16.824  2.5480 -1.8522 -0.6644
   6923SM  H15C 8929   4.731   3.231  16.833  1.8799  1.5191  2.1951
   6923SM   C14 8930   4.992   3.029  16.902  0.5533  0.2511  0.0161
   6923SM  H14A 8931   5.012   2.947  16.969  1.7801 -1.3860 -2.2504
   6923SM  H14B 8932   5.063   3.110  16.912  0.2540  0.5105  0.0975
   6923SM  H14C 8933   4.999   2.986  16.804 -0.2547 -0.8221  0.4037
   6923SM   C13 8934   4.840   3.140  17.065  0.3131  0.3715  0.5638
   6923SM  H13A 8935   4.859   3.068  17.143 -3.6225 -1.4055  0.1683
   6923SM  H13B 8936   4.739   3.174  17.083 -0.2326 -0.8321 -0.0711
   6923SM  H13C 8937   4.901   3.228  17.082 -0.2524  0.7991  0.4270
   6923SM   C12 8938   4.748   2.968  16.914  0.4697  1.0784 -0.1744
   6923SM  H12A 8939   4.741   2.938  16.810  0.7091 -0.2528  0.1744
   6923SM  H12B 8940   4.648   3.007  16.925 -0.2859 -0.9148  0.4306
   6923SM   C11 8941   4.765   2.845  17.003 -0.6942  0.7310 -0.5228
   6923SM  H11A 8942   4.675   2.783  17.021 -1.7657  2.5333  0.6218
   6923SM  H11B 8943   4.799   2.872  17.105  1.2772 -0.9332 -0.6841
   6923SM     P 8944   4.875   2.639  16.879 -0.8184  0.2682 -0.2403
   6923SM   O13 8945   5.011   2.591  16.840 -0.2717  0.0503  0.2754
   6923SM   O14 8946   4.795   2.546  16.959 -0.6976  0.6932 -0.0922
   6923SM   O11 8947   4.786   2.674  16.757 -0.0817 -0.2641 -0.2475
   6923SM   O12 8948   4.881   2.768  16.966 -0.0405  0.0418 -0.7762
   6923SM   C1S 8949   4.821   2.752  16.645 -0.1570 -0.3388 -0.2336
   6923SM   H1S 8950   4.903   2.704  16.587  2.4170  3.2554  0.0934
   6923SM   H1T 8951   4.863   2.849  16.677  0.0246 -0.8426  1.1006
   6923SM    NF 8952   4.766   2.864  16.432  0.3815  0.0478  0.0145
   6923SM   HNF 8953   4.755   2.962  16.422 -1.0261 -0.3032 -2.5168
   6923SM   C2S 8954   4.706   2.795  16.546 -0.0777 -0.3485 -0.3157
   6923SM   H2S 8955   4.656   2.710  16.495 -1.5386  2.6219 -4.3762
   6923SM   C3S 8956   4.591   2.867  16.623 -0.1741 -0.0779  0.4386
   6923SM   H3S 8957   4.623   2.970  16.649  1.3126 -0.4838  0.3363
   6923SM    O3 8958   4.545   2.818  16.750  0.0419 -0.2233  0.0327
   6923SM   HO3 8959   4.609   2.748  16.767 -1.2562 -2.1693 -2.5087
   6923SM   C4S 8960   4.480   2.891  16.521 -0.4103  0.3290 -0.2346
   6923SM   H4S 8961   4.507   2.936  16.425 -0.1263 -2.6887 -1.7025
   6923SM   C5S 8962   4.356   2.835  16.517 -0.1462  0.3499  0.2641
   6923SM   H5S 8963   4.317   2.771  16.597  0.9641 -0.4138  0.2185
   6923SM   C6S 8964   4.273   2.858  16.393  0.1399 -0.4911 -0.5972
   6923SM   H6S 8965   4.205   2.774  16.366 -0.8923  0.2649 -0.4371
   6923SM   H6T 8966   4.332   2.875  16.300 -0.0492  0.7456 -0.5136
   6923SM   C7S 8967   4.181   2.980  16.400  0.4022  0.2032  0.0115
   6923SM   H7S 8968   4.230   3.059  16.461  0.6054  0.3359 -0.3142
   6923SM   H7T 8969   4.092   2.951  16.459  0.8246 -1.9195 -0.2878
   6923SM   C8S 8970   4.122   3.011  16.263 -0.3835 -0.2799  0.1565
   6923SM   H8S 8971   4.213   3.006  16.199 -0.8478 -1.2057 -0.4515
   6923SM   H8T 8972   4.078   3.112  16.250  1.4759  0.4159 -1.1143
   6923SM   C9S 8973   4.018   2.908  16.216 -0.6788 -0.1936 -0.3062
   6923SM   H9S 8974   3.926   2.921  16.276 -1.0787  0.3321 -1.0116
   6923SM   H9T 8975   4.057   2.805  16.235 -0.1078 -0.1924 -1.3511
   6923SM  C10S 8976   3.982   2.916  16.062  0.8254  0.0883  0.1235
   6923SM  H10S 8977   3.917   3.005  16.053  0.5888 -0.1094 -0.1159
   6923SM  H10T 8978   3.919   2.828  16.037 -0.1958  1.0960 -0.9718
   6923SM  C11S 8979   4.097   2.923  15.970  0.3430 -0.4839  0.6999
   6923SM  H11S 8980   4.174   2.847  15.998 -0.2061 -1.1355  0.4808
   6923SM  H11T 8981   4.156   3.017  15.972 -1.1625  0.4828  2.1349
   6923SM  C12S 8982   4.066   2.901  15.817  0.3796  0.4908 -0.3454
   6923SM  H12S 8983   3.998   2.979  15.776 -0.6931 -0.3379 -0.1861
   6923SM  H12T 8984   4.005   2.809  15.804  0.5929  0.4978 -1.5296
   6923SM  C13S 8985   4.186   2.891  15.724  0.4466 -0.3410 -0.3623
   6923SM  H13S 8986   4.244   2.799  15.742  1.0752  0.4593  2.1600
   6923SM  H13T 8987   4.251   2.980  15.735 -0.4293  0.2110  0.5373
   6923SM  C14S 8988   4.143   2.903  15.576 -0.1358 -1.1686  0.0804
   6923SM  H14S 8989   4.075   2.990  15.563 -0.3616 -1.5794 -1.8048
   6923SM  H14T 8990   4.076   2.824  15.536 -1.2289  0.5010 -1.5727
   6923SM  C15S 8991   4.263   2.946  15.483 -0.5474  0.2616  0.0078
   6923SM  H15S 8992   4.330   2.857  15.483  0.0878  0.7298  0.5269
   6923SM  H15T 8993   4.319   3.033  15.524 -0.2502  0.2223 -0.3152
   6923SM  C16S 8994   4.222   2.972  15.337  0.1854  0.2175 -0.4339
   6923SM  H16S 8995   4.244   3.079  15.316  0.5035  0.2063 -0.1710
   6923SM  H16T 8996   4.114   2.956  15.314  0.0738 -1.0352  0.8372
   6923SM  C17S 8997   4.291   2.881  15.239 -0.3148  0.1526  0.1565
   6923SM  H17S 8998   4.254   2.777  15.248 -0.5077  0.2918  1.0004
   6923SM  H17T 8999   4.396   2.887  15.273 -0.5189 -1.5948  1.1954
   6923SM  C18S 9000   4.282   2.928  15.090 -0.2625 -0.2486 -0.0287
   6923SM  H18S 9001   4.305   3.037  15.088 -1.1402 -0.0604 -1.2233
   6923SM  H18T 9002   4.178   2.916  15.053  0.2813 -0.8135 -1.4080
   6923SM  H18U 9003   4.357   2.888  15.020  0.5909 -0.1914  0.8307
   6923SM   C1F 9004   4.839   2.800  16.340 -0.4783  0.4841 -0.3348
   6923SM    OF 9005   4.871   2.681  16.362  0.4544 -0.4357 -0.5886
   6923SM   C2F 9006   4.877   2.848  16.202  0.1478  0.2169  0.4396
   6923SM   H2F 9007   4.903   2.956  16.205  0.1813  0.2011  1.0060
   6923SM   H2G 9008   4.791   2.829  16.136  0.3981  0.0126  0.1745
   6923SM   C3F 9009   5.010   2.776  16.159  0.3116  0.3163  0.4791
   6923SM   H3F 9010   5.008   2.666  16.172 -1.8606  0.3174  0.5397
   6923SM   H3G 9011   5.092   2.839  16.202 -0.2288  1.3275  0.0762
   6923SM   C4F 9012   5.043   2.797  16.007 -0.2877  0.3798  0.3073
   6923SM   H4F 9013   5.149   2.777  15.980 -0.6302 -2.2486  0.7243
   6923SM   H4G 9014   5.013   2.899  15.973 -0.1762 -0.2142 -1.6920
   6923SM   C5F 9015   4.970   2.697  15.916  0.7026  0.1167 -0.6151
   6923SM   H5F 9016   4.867   2.684  15.955  1.1495 -1.4476  0.1004
   6923SM   H5G 9017   5.017   2.601  15.945  0.8556 -0.8901 -3.8490
   6923SM   C6F 9018   4.979   2.713  15.764 -0.1866  0.2707 -0.3254
   6923SM   H6F 9019   5.080   2.748  15.734 -0.3795  1.5838  0.4950
   6923SM   H6G 9020   4.914   2.795  15.727  0.4291  1.3050  0.8590
   6923SM   C7F 9021   4.945   2.586  15.688  0.1699  0.9525 -0.0143
   6923SM   H7F 9022   4.842   2.552  15.712 -0.0323  0.4364 -1.5044
   6923SM   H7G 9023   5.010   2.497  15.700  0.5368  0.9207 -1.8791
   6923SM   C8F 9024   4.953   2.610  15.532 -0.0955  0.7269 -0.2834
   6923SM   H8F 9025   5.057   2.642  15.510 -0.1400  0.6306 -0.6447
   6923SM   H8G 9026   4.875   2.688  15.517 -0.3205  0.4797 -0.4206
   6923SM   C9F 9027   4.929   2.480  15.452  0.7009 -0.3259 -0.1834
   6923SM   H9F 9028   4.827   2.450  15.483  0.3405  1.0323  0.0331
   6923SM   H9G 9029   4.985   2.387  15.473  0.9370 -0.4534 -1.3526
   6923SM  C10F 9030   4.943   2.503  15.298  0.0971  0.1322  0.0866
   6923SM  H10F 9031   5.036   2.550  15.260 -0.9560  1.2096 -1.3036
   6923SM  H10G 9032   4.865   2.581  15.281 -1.3455 -1.6822 -2.2428
   6923SM  C11F 9033   4.909   2.391  15.198 -0.2036 -0.7884  0.9439
   6923SM  H11F 9034   4.825   2.327  15.233  0.1734 -0.8597  1.7574
   6923SM  H11G 9035   5.005   2.336  15.193  0.4545  0.4805 -2.3595
   6923SM  C12F 9036   4.898   2.442  15.052 -0.2766 -0.4490  0.1061
   6923SM  H12F 9037   4.942   2.544  15.044  0.6224 -0.7242  1.3121
   6923SM  H12G 9038   4.789   2.460  15.037 -0.0985 -0.0087 -0.7471
   6923SM  C13F 9039   4.936   2.351  14.937  0.5022  0.1925 -0.3362
   6923SM  H13F 9040   4.880   2.255  14.945 -0.3834  0.7790  0.8849
   6923SM  H13G 9041   5.046   2.352  14.947  0.5595  2.8891 -0.4892
   6923SM  C14F 9042   4.906   2.414  14.797  0.6448 -0.3136  0.3385
   6923SM  H14F 9043   4.945   2.517  14.797 -0.2706  0.0527 -0.4716
   6923SM  H14G 9044   4.797   2.418  14.772  0.6985  0.5609  0.2278
   6923SM  C15F 9045   4.968   2.325  14.682 -0.9856 -0.0995 -0.1346
   6923SM  H15F 9046   5.071   2.298  14.713 -1.1701  0.4823  1.0436
   6923SM  H15G 9047   4.978   2.390  14.592 -1.4323 -0.2601 -0.3022
   6923SM  C16F 9048   4.877   2.212  14.646 -0.0570  0.0403  0.2657
   6923SM  H16F 9049   4.780   2.263  14.632  0.2537  0.6638  0.3666
   6923SM  H16G 9050   4.859   2.139  14.728  0.7995 -0.3768  0.1004
   6923SM  C17F 9051   4.919   2.132  14.521 -0.0580 -0.5151  0.1499
   6923SM  H17F 9052   4.903   2.200  14.434  0.7655 -1.4717 -0.7867
   6923SM  H17G 9053   4.863   2.038  14.503  0.5263 -0.3926 -3.0483
   6923SM  C18F 9054   5.067   2.098  14.525  0.4742 -0.1665 -0.0279
   6923SM  H18F 9055   5.085   2.026  14.608 -1.4689  0.3180  0.8959
   6923SM  H18G 9056   5.127   2.190  14.546 -0.4579  0.3397  0.5098
   6923SM  C19F 9057   5.114   2.023  14.396 -0.9730  0.2864  0.2418
   6923SM  H19F 9058   5.038   1.964  14.341  0.7098 -1.0669 -0.7326
   6923SM  H19G 9059   5.178   1.942  14.436 -0.1587  0.9757  0.3721
   6923SM  C20F 9060   5.159   2.118  14.285 -0.2152  0.2223 -0.5374
   6923SM  H20F 9061   5.255   2.170  14.303 -0.6567  0.8480  0.0581
   6923SM  H20G 9062   5.082   2.195  14.263 -0.9035 -0.5543 -0.9436
   6923SM  C21F 9063   5.173   2.041  14.143  0.2549 -0.1465 -0.7357
   6923SM  H21F 9064   5.077   1.998  14.107 -0.2349  1.3657 -1.2947
   6923SM  H21G 9065   5.236   1.952  14.164 -1.5115 -1.2016  0.3873
   6923SM  C22F 9066   5.223   2.120  14.022  0.4444  0.1058  0.0488
   6923SM  H22F 9067   5.329   2.143  14.044  0.1733  2.1103 -0.4772
   6923SM  H22G 9068   5.165   2.215  14.009  0.2674 -0.1520 -1.2119
   6923SM  C23F 9069   5.218   2.042  13.889  0.0887  0.1109 -0.4140
   6923SM  H23F 9070   5.311   1.983  13.880 -0.5844 -0.8255 -1.5579
   6923SM  H23G 9071   5.222   2.112  13.802 -0.5901  1.1901  0.3938
   6923SM  H23H 9072   5.128   1.979  13.874 -0.9072  1.6190 -1.0629
   7023SM     N 9073   4.538   1.658  16.638  0.1271  0.0371  0.2519
   7023SM   C15 9074   4.643   1.628  16.530 -0.4754 -0.5863  0.2723
   7023SM  H15A 9075   4.726   1.697  16.534  0.5412 -1.7697  0.6731
   7023SM  H15B 9076   4.600   1.637  16.432  2.1895  0.2172 -0.9263
   7023SM  H15C 9077   4.692   1.533  16.550  1.6881  0.4599  0.2974
   7023SM   C14 9078   4.403   1.609  16.593 -0.5746 -0.5724 -0.2114
   7023SM  H14A 9079   4.360   1.673  16.518 -0.3450 -0.3953 -0.1945
   7023SM  H14B 9080   4.332   1.612  16.674  1.6120 -1.1197  1.8456
   7023SM  H14C 9081   4.409   1.505  16.563 -1.5634 -1.5115  2.5358
   7023SM   C13 9082   4.583   1.595  16.768 -0.4391  1.2477 -0.7844
   7023SM  H13A 9083   4.681   1.631  16.797  0.6847 -3.1275  1.6739
   7023SM  H13B 9084   4.594   1.488  16.768  2.5619  1.4187  0.7295
   7023SM  H13C 9085   4.509   1.610  16.845  0.0865 -1.2414  0.2930
   7023SM   C12 9086   4.536   1.814  16.654 -0.4714  0.1397  0.1103
   7023SM  H12A 9087   4.448   1.841  16.709 -0.1932  1.7375 -0.1940
   7023SM  H12B 9088   4.527   1.847  16.552 -1.0057 -1.5176 -0.4189
   7023SM   C11 9089   4.660   1.878  16.717  0.2487  0.2119  0.4467
   7023SM  H11A 9090   4.672   1.839  16.820 -0.1461  0.0083  0.4174
   7023SM  H11B 9091   4.639   1.987  16.725 -0.1790  0.0443  1.7529
   7023SM     P 9092   4.819   1.959  16.526 -0.0712  0.0842 -0.3555
   7023SM   O13 9093   4.814   2.093  16.587 -0.1810  0.0716 -0.0384
   7023SM   O14 9094   4.945   1.920  16.464  0.0061  0.2702 -0.1043
   7023SM   O11 9095   4.689   1.932  16.432 -0.4592 -0.4608 -0.6901
   7023SM   O12 9096   4.782   1.858  16.639  0.5068 -0.2029 -0.0424
   7023SM   C1S 9097   4.650   2.031  16.340 -0.8424 -0.0655  0.4406
   7023SM   H1S 9098   4.681   2.137  16.354  1.1374 -0.4417 -0.6660
   7023SM   H1T 9099   4.539   2.032  16.336 -0.8610  0.7833  0.9861
   7023SM    NF 9100   4.735   2.097  16.113 -1.2475  0.1670 -0.6822
   7023SM   HNF 9101   4.674   2.100  16.034 -1.0635  2.2470 -0.8058
   7023SM   C2S 9102   4.717   1.984  16.205 -0.3856 -0.0307 -0.1107
   7023SM   H2S 9103   4.819   1.946  16.222 -0.7753 -0.8048  0.5699
   7023SM   C3S 9104   4.638   1.866  16.146  0.5633 -0.6789 -0.1541
   7023SM   H3S 9105   4.540   1.906  16.112 -0.5298 -1.6354  1.7412
   7023SM    O3 9106   4.614   1.766  16.246 -0.1236  0.2251 -0.2499
   7023SM   HO3 9107   4.650   1.819  16.317  1.6769  0.8488 -1.5508
   7023SM   C4S 9108   4.708   1.811  16.027 -0.1358  0.2214 -0.2961
   7023SM   H4S 9109   4.797   1.753  16.056 -1.9713 -1.0516  3.4756
   7023SM   C5S 9110   4.660   1.806  15.903  0.1444 -0.3482  0.5596
   7023SM   H5S 9111   4.566   1.860  15.884 -0.0051 -0.5040  0.8585
   7023SM   C6S 9112   4.718   1.743  15.776 -0.8512  0.0355 -0.2506
   7023SM   H6S 9113   4.738   1.822  15.701  2.3880 -1.1747 -0.8623
   7023SM   H6T 9114   4.636   1.680  15.734  1.3412 -2.0350 -1.7371
   7023SM   C7S 9115   4.842   1.654  15.778 -0.2525 -0.6460 -0.5853
   7023SM   H7S 9116   4.825   1.589  15.867  1.0814 -0.5059 -0.1984
   7023SM   H7T 9117   4.928   1.717  15.810 -0.4303 -0.3495 -0.6962
   7023SM   C8S 9118   4.872   1.567  15.653 -0.3809  0.4571 -0.6035
   7023SM   H8S 9119   4.795   1.488  15.643  2.5394 -2.3113 -3.6511
   7023SM   H8T 9120   4.965   1.506  15.658 -1.0890 -0.6460 -0.6141
   7023SM   C9S 9121   4.875   1.657  15.525 -0.0375 -0.6098 -0.8318
   7023SM   H9S 9122   4.962   1.723  15.544 -0.4665 -0.2761  0.0198
   7023SM   H9T 9123   4.788   1.727  15.524  2.0204  2.1536 -2.6275
   7023SM  C10S 9124   4.902   1.581  15.398  0.2952  0.3101 -0.3807
   7023SM  H10S 9125   4.830   1.498  15.386  0.6995  0.1785 -2.3055
   7023SM  H10T 9126   5.002   1.533  15.394  0.4369  0.3485  1.7700
   7023SM  C11S 9127   4.882   1.669  15.271  0.4796 -0.1492 -1.1846
   7023SM  H11S 9128   4.944   1.762  15.275  1.3067 -0.7254  0.2158
   7023SM  H11T 9129   4.775   1.700  15.271 -0.1001 -1.4198  3.1335
   7023SM  C12S 9130   4.906   1.594  15.148 -0.1402 -0.1377  0.4306
   7023SM  H12S 9131   4.864   1.492  15.148  2.9528 -1.6338  3.3976
   7023SM  H12T 9132   5.017   1.582  15.149 -0.0489  0.4178  2.2431
   7023SM  C13S 9133   4.872   1.672  15.026  0.2993  0.6460  0.3507
   7023SM  H13S 9134   4.939   1.761  15.021 -1.4414  2.0039  0.0501
   7023SM  H13T 9135   4.771   1.716  15.043 -0.1440 -0.0389 -0.4533
   7023SM  C14S 9136   4.881   1.587  14.902  0.6820  0.2797 -0.6417
   7023SM  H14S 9137   4.828   1.492  14.924 -1.8495  1.2956 -1.8743
   7023SM  H14T 9138   4.989   1.571  14.882  0.3734  0.0522 -2.2281
   7023SM  C15S 9139   4.816   1.644  14.774  0.2665 -0.7942 -0.1278
   7023SM  H15S 9140   4.859   1.745  14.756 -1.1040 -0.0926  0.3993
   7023SM  H15T 9141   4.707   1.655  14.791  0.4837  0.9161  0.3263
   7023SM  C16S 9142   4.835   1.549  14.648  0.1730 -0.2197  0.6595
   7023SM  H16S 9143   4.798   1.447  14.671 -1.5935 -0.1024 -1.3226
   7023SM  H16T 9144   4.944   1.529  14.636  0.4996 -0.1078  3.0739
   7023SM  C17S 9145   4.767   1.598  14.517 -0.0775  0.1731  0.4007
   7023SM  H17S 9146   4.657   1.599  14.529 -0.1807  0.2920 -0.5215
   7023SM  H17T 9147   4.779   1.529  14.431 -0.4210 -1.0834  1.3270
   7023SM  C18S 9148   4.812   1.740  14.477 -0.1253  0.1056 -0.0803
   7023SM  H18S 9149   4.771   1.809  14.554  1.6547  1.1074  0.0075
   7023SM  H18T 9150   4.770   1.763  14.377  2.2566  0.5868 -1.0296
   7023SM  H18U 9151   4.923   1.740  14.469 -0.1667 -1.8866 -1.1411
   7023SM   C1F 9152   4.828   2.193  16.137  0.5104 -0.4112 -0.0750
   7023SM    OF 9153   4.910   2.184  16.227 -0.0002  0.1018  0.0123
   7023SM   C2F 9154   4.823   2.312  16.045 -0.1880 -0.0434 -0.3614
   7023SM   H2F 9155   4.815   2.400  16.113  0.9498  0.3521 -0.7141
   7023SM   H2G 9156   4.728   2.316  15.988 -0.1517  2.3679 -0.3739
   7023SM   C3F 9157   4.948   2.329  15.951  0.1404 -0.4696 -0.1746
   7023SM   H3F 9158   5.040   2.351  16.009  0.6153 -0.3791 -0.9544
   7023SM   H3G 9159   4.917   2.420  15.896  1.4955 -0.2638 -0.6314
   7023SM   C4F 9160   4.963   2.218  15.850  0.6221 -0.1290  0.2736
   7023SM   H4F 9161   4.963   2.119  15.902  1.4617  0.6233  1.7602
   7023SM   H4G 9162   5.062   2.213  15.800  0.3665 -1.8266 -0.1344
   7023SM   C5F 9163   4.848   2.215  15.751 -0.0084  0.7839  1.4361
   7023SM   H5F 9164   4.813   2.309  15.704 -1.4660 -1.4191 -2.3359
   7023SM   H5G 9165   4.765   2.174  15.812 -0.0370  0.2739  1.0677
   7023SM   C6F 9166   4.882   2.109  15.635  0.2573  0.1865  0.2733
   7023SM   H6F 9167   4.912   2.010  15.675  0.1322  0.2766  0.5962
   7023SM   H6G 9168   4.974   2.149  15.586 -0.3142 -1.1589 -2.0050
   7023SM   C7F 9169   4.777   2.102  15.526 -0.8262  0.4112  0.6923
   7023SM   H7F 9170   4.757   2.206  15.493 -1.5794  0.4508  1.2604
   7023SM   H7G 9171   4.682   2.067  15.570 -0.8224 -0.0918  0.3220
   7023SM   C8F 9172   4.811   2.011  15.411 -0.5226  0.1660  0.2666
   7023SM   H8F 9173   4.805   1.903  15.437  1.8042 -0.3875 -1.1536
   7023SM   H8G 9174   4.915   2.026  15.373 -0.1709  0.1278  1.1998
   7023SM   C9F 9175   4.718   2.036  15.290 -0.6404 -0.2010  0.8726
   7023SM   H9F 9176   4.687   2.142  15.302  0.9846  0.2809  1.0738
   7023SM   H9G 9177   4.625   1.975  15.289 -0.9509  0.2484  1.4176
   7023SM  C10F 9178   4.791   2.025  15.155  0.7667 -0.1792 -0.5871
   7023SM  H10F 9179   4.819   1.919  15.138  0.5696  0.0392 -2.5213
   7023SM  H10G 9180   4.886   2.081  15.164  0.1763  0.6443  1.0185
   7023SM  C11F 9181   4.709   2.073  15.031  0.2543  0.0490 -0.9383
   7023SM  H11F 9182   4.781   2.056  14.949 -0.2941 -2.3733 -0.9922
   7023SM  H11G 9183   4.682   2.180  15.041  0.3362 -0.0501  0.7134
   7023SM  C12F 9184   4.579   1.997  14.988 -0.4827 -0.2132 -0.5125
   7023SM  H12F 9185   4.501   2.023  15.063  0.0359  0.4732 -0.1991
   7023SM  H12G 9186   4.609   1.890  14.994 -1.9564 -0.6475 -0.4902
   7023SM  C13F 9187   4.544   2.030  14.834 -0.0569  0.3837  0.3662
   7023SM  H13F 9188   4.643   2.023  14.785 -0.1627 -3.4077  0.4143
   7023SM  H13G 9189   4.511   2.136  14.832  2.2763  1.1717 -0.5382
   7023SM  C14F 9190   4.437   1.933  14.768  0.1698  0.0519  0.2354
   7023SM  H14F 9191   4.337   1.966  14.804  0.3491 -0.2864  1.0622
   7023SM  H14G 9192   4.460   1.832  14.810 -0.0253 -1.3925 -2.8202
   7023SM  C15F 9193   4.447   1.924  14.609  0.7681  0.2555 -0.4230
   7023SM  H15F 9194   4.535   1.861  14.584  2.0286  2.1303 -0.8673
   7023SM  H15G 9195   4.475   2.026  14.576  1.9678  0.5717  1.4136
   7023SM  C16F 9196   4.314   1.886  14.552 -0.8459  0.3348 -0.4927
   7023SM  H16F 9197   4.328   1.865  14.444  2.2908 -2.1031  0.2330
   7023SM  H16G 9198   4.242   1.967  14.577  0.2154  1.7411 -1.8763
   7023SM  C17F 9199   4.238   1.766  14.614  0.5315  0.4523 -0.7247
   7023SM  H17F 9200   4.211   1.799  14.716 -1.5848  1.8372 -1.6629
   7023SM  H17G 9201   4.307   1.679  14.613 -0.3544 -0.3737  2.0377
   7023SM  C18F 9202   4.103   1.733  14.547  0.5403  0.4071  0.0435
   7023SM  H18F 9203   4.053   1.647  14.596 -0.8266  0.7620 -0.7101
   7023SM  H18G 9204   4.129   1.705  14.443 -1.1557 -1.6301  0.1094
   7023SM  C19F 9205   4.002   1.847  14.536  0.0109  0.6919 -0.5351
   7023SM  H19F 9206   4.026   1.930  14.466 -1.5909  1.1612 -0.5573
   7023SM  H19G 9207   4.001   1.895  14.636 -0.2442 -1.6714  0.6610
   7023SM  C20F 9208   3.863   1.807  14.489 -0.0572 -0.5093  0.5908
   7023SM  H20F 9209   3.832   1.716  14.545 -1.6249 -1.1449 -1.2023
   7023SM  H20G 9210   3.874   1.771  14.385 -0.1926 -0.1481  0.4509
   7023SM  C21F 9211   3.756   1.917  14.491  0.2464 -0.1556 -0.0250
   7023SM  H21F 9212   3.799   2.017  14.470 -0.0225 -0.0268  0.0346
   7023SM  H21G 9213   3.705   1.924  14.590  1.1768 -0.4517  0.4907
   7023SM  C22F 9214   3.645   1.901  14.390 -0.3309  0.4800  0.0216
   7023SM  H22F 9215   3.579   1.815  14.416  2.0633 -1.8763 -1.2217
   7023SM  H22G 9216   3.682   1.863  14.293 -2.4625  1.7434 -1.3658
   7023SM  C23F 9217   3.564   2.024  14.370  0.3865 -1.0462 -0.8278
   7023SM  H23F 9218   3.631   2.112  14.366 -1.1981  0.3811  1.6864
   7023SM  H23G 9219   3.505   2.047  14.461 -0.4125  3.0392 -2.1762
   7023SM  H23H 9220   3.499   2.026  14.280 -0.4566  0.9984 -0.2206
   7123SM     N 9221   4.625   6.612  17.170  0.3679  0.8694  0.0949
   7123SM   C15 9222   4.508   6.644  17.256 -0.0432  0.8024  0.4105
   7123SM  H15A 9223   4.485   6.565  17.326  0.6358 -0.1591 -0.4203
   7123SM  H15B 9224   4.417   6.667  17.203 -0.2174 -0.1808  0.2661
   7123SM  H15C 9225   4.551   6.728  17.309 -1.2266  1.9262 -0.3695
   7123SM   C14 9226   4.740   6.593  17.253  0.7497  0.4792 -0.7194
   7123SM  H14A 9227   4.722   6.525  17.336 -0.6264  0.2457 -1.1850
   7123SM  H14B 9228   4.761   6.683  17.308  0.9019  0.3915 -0.6318
   7123SM  H14C 9229   4.832   6.555  17.210 -0.5855 -0.8706 -2.5291
   7123SM   C13 9230   4.598   6.485  17.099  0.0591  0.2038  0.5002
   7123SM  H13A 9231   4.685   6.461  17.039  1.2752  1.8153  1.5185
   7123SM  H13B 9232   4.521   6.485  17.024 -0.8467 -1.0614  1.3877
   7123SM  H13C 9233   4.579   6.402  17.165  0.1439 -0.0792  0.1757
   7123SM   C12 9234   4.657   6.723  17.074  0.2034 -0.0982 -0.3088
   7123SM  H12A 9235   4.750   6.707  17.022  0.0746  0.3174 -0.6741
   7123SM  H12B 9236   4.671   6.812  17.134  1.2441 -1.1683  1.0938
   7123SM   C11 9237   4.550   6.763  16.977  0.7858  0.5516  0.4709
   7123SM  H11A 9238   4.527   6.679  16.908 -0.7036 -0.1797  1.7945
   7123SM  H11B 9239   4.594   6.841  16.911  0.0979 -0.4128 -1.1963
   7123SM     P 9240   4.291   6.769  16.997 -0.3823 -0.0728  0.0393
   7123SM   O13 9241   4.306   6.658  16.900  0.0787 -0.2607  0.8952
   7123SM   O14 9242   4.200   6.751  17.115  0.3065  0.2124 -0.5165
   7123SM   O11 9243   4.241   6.897  16.918  0.0155 -0.1146  0.3979
   7123SM   O12 9244   4.430   6.813  17.041 -0.2726 -0.2992 -0.3237
   7123SM   C1S 9245   4.294   6.916  16.783 -0.0109 -0.0108  0.3677
   7123SM   H1S 9246   4.247   6.845  16.712  0.5700 -0.7788  0.7317
   7123SM   H1T 9247   4.403   6.897  16.779 -0.0405 -0.5900  1.6491
   7123SM    NF 9248   4.309   7.079  16.600  0.6268  0.5118  0.4347
   7123SM   HNF 9249   4.403   7.101  16.574 -0.1954  0.0289 -3.5025
   7123SM   C2S 9250   4.269   7.066  16.736 -0.6192 -0.0267  0.4757
   7123SM   H2S 9251   4.162   7.092  16.739 -0.5281  0.3260  0.7151
   7123SM   C3S 9252   4.352   7.161  16.826  0.2337 -0.1687 -0.0915
   7123SM   H3S 9253   4.454   7.120  16.837 -0.3655 -1.5531  0.5304
   7123SM    O3 9254   4.294   7.171  16.958  0.8028  0.1523  0.1876
   7123SM   HO3 9255   4.232   7.099  16.968  1.7887 -0.6955  0.4768
   7123SM   C4S 9256   4.357   7.298  16.768 -0.1849 -0.5219  0.1399
   7123SM   H4S 9257   4.262   7.354  16.758  0.7657  1.1347 -0.0026
   7123SM   C5S 9258   4.469   7.342  16.700  0.6413 -0.1712 -0.0062
   7123SM   H5S 9259   4.560   7.281  16.691 -0.1302 -1.0445 -3.1728
   7123SM   C6S 9260   4.474   7.471  16.625  0.1075 -0.3912  0.6328
   7123SM   H6S 9261   4.575   7.518  16.635  1.3606 -2.7492 -0.0573
   7123SM   H6T 9262   4.390   7.536  16.655 -0.7705 -1.6874  1.0764
   7123SM   C7S 9263   4.467   7.437  16.470 -0.6385 -0.4746  0.1006
   7123SM   H7S 9264   4.371   7.390  16.438 -0.5615  0.5432 -1.7474
   7123SM   H7T 9265   4.551   7.375  16.430 -0.7229 -0.2049 -0.5106
   7123SM   C8S 9266   4.468   7.576  16.395 -0.2910  0.5488  0.2891
   7123SM   H8S 9267   4.534   7.649  16.446  0.5392 -0.2282  0.3525
   7123SM   H8T 9268   4.368   7.625  16.400 -2.4501 -3.4661  1.6292
   7123SM   C9S 9269   4.501   7.566  16.248 -0.1542 -0.1179  0.0999
   7123SM   H9S 9270   4.607   7.542  16.223 -0.4200 -0.9003 -0.3054
   7123SM   H9T 9271   4.483   7.665  16.201 -0.0335 -0.8030 -1.4167
   7123SM  C10S 9272   4.423   7.466  16.165 -0.2736  0.3295 -0.1692
   7123SM  H10S 9273   4.316   7.485  16.190 -0.3287 -0.6100  0.3597
   7123SM  H10T 9274   4.437   7.360  16.195 -1.1662  0.6633  1.5671
   7123SM  C11S 9275   4.453   7.466  16.015 -0.3523  0.4845 -0.1413
   7123SM  H11S 9276   4.383   7.394  15.968 -0.7970  1.3947 -0.8786
   7123SM  H11T 9277   4.551   7.420  15.988 -0.5097 -1.8151  2.6186
   7123SM  C12S 9278   4.441   7.605  15.939  0.4858 -0.6235  1.1145
   7123SM  H12S 9279   4.506   7.677  15.993  0.0419  1.7394 -1.2932
   7123SM  H12T 9280   4.338   7.640  15.957  0.1246 -1.4752  0.7543
   7123SM  C13S 9281   4.485   7.609  15.794 -0.4680 -0.1250  0.0194
   7123SM  H13S 9282   4.430   7.541  15.726  0.4041 -0.6056 -0.2180
   7123SM  H13T 9283   4.592   7.580  15.798 -0.6316 -0.9340 -1.0092
   7123SM  C14S 9284   4.481   7.756  15.745  0.1132  0.1128  0.3789
   7123SM  H14S 9285   4.567   7.818  15.781 -0.0026  1.8326 -2.0235
   7123SM  H14T 9286   4.387   7.805  15.779  0.9620  3.0598 -1.1881
   7123SM  C15S 9287   4.476   7.773  15.597  0.7248 -0.0187 -0.1195
   7123SM  H15S 9288   4.371   7.751  15.567  1.7205 -2.7348 -2.0136
   7123SM  H15T 9289   4.527   7.691  15.541 -2.7849 -2.1479 -0.4876
   7123SM  C16S 9290   4.502   7.907  15.542  0.4331 -0.9201  0.4789
   7123SM  H16S 9291   4.601   7.943  15.578 -0.7409 -1.8380  5.4031
   7123SM  H16T 9292   4.427   7.982  15.575 -0.5316 -0.5091 -2.4169
   7123SM  C17S 9293   4.490   7.896  15.390  0.3804  0.0308  0.3185
   7123SM  H17S 9294   4.405   7.826  15.372  1.7232 -2.1026  1.7471
   7123SM  H17T 9295   4.576   7.829  15.366 -0.9198 -1.2367 -1.0850
   7123SM  C18S 9296   4.494   8.022  15.307 -0.3131 -0.5640  0.1498
   7123SM  H18S 9297   4.479   7.996  15.200 -3.5091  1.2145  0.0276
   7123SM  H18T 9298   4.593   8.070  15.319 -0.9391  0.9002 -0.2963
   7123SM  H18U 9299   4.408   8.087  15.334 -1.8007 -1.5522 -1.8980
   7123SM   C1F 9300   4.247   7.029  16.497 -0.5341  0.1604 -0.3363
   7123SM    OF 9301   4.136   6.989  16.526  0.4420  0.1211 -0.1095
   7123SM   C2F 9302   4.309   7.039  16.362  0.0152  0.3523  0.3031
   7123SM   H2F 9303   4.380   7.124  16.365 -1.2120  1.5898 -2.2836
   7123SM   H2G 9304   4.226   7.055  16.290  0.0721 -0.5443  0.0228
   7123SM   C3F 9305   4.384   6.908  16.309  0.6336  0.5634 -0.1530
   7123SM   H3F 9306   4.311   6.825  16.299 -1.3788  2.4244 -1.6697
   7123SM   H3G 9307   4.462   6.891  16.386  0.2694 -1.1373 -0.1073
   7123SM   C4F 9308   4.454   6.919  16.165  0.5116  0.8560 -0.1986
   7123SM   H4F 9309   4.513   6.825  16.158 -1.3607 -0.7130  2.8382
   7123SM   H4G 9310   4.541   6.987  16.162  0.8578  0.4050 -0.5194
   7123SM   C5F 9311   4.349   6.922  16.053 -0.1319  0.2672  0.4269
   7123SM   H5F 9312   4.265   6.989  16.079 -0.3338 -0.7223  2.4929
   7123SM   H5G 9313   4.302   6.821  16.050 -1.2255  0.7311  1.4387
   7123SM   C6F 9314   4.405   6.963  15.916  0.0252 -1.2954 -0.4159
   7123SM   H6F 9315   4.353   6.911  15.833  0.1652 -0.1136 -1.2767
   7123SM   H6G 9316   4.511   6.935  15.899 -0.3111 -1.2394 -2.9069
   7123SM   C7F 9317   4.382   7.117  15.890 -0.7699 -0.0201 -0.5200
   7123SM   H7F 9318   4.435   7.166  15.974 -0.8397  0.7544 -0.9177
   7123SM   H7G 9319   4.275   7.147  15.893 -0.9418 -0.3469  4.0415
   7123SM   C8F 9320   4.440   7.172  15.761  0.2435 -0.2828 -0.0665
   7123SM   H8F 9321   4.548   7.148  15.752  0.3023  0.4541 -1.8276
   7123SM   H8G 9322   4.421   7.282  15.760  0.0687 -0.2701  1.9923
   7123SM   C9F 9323   4.370   7.136  15.630 -0.2339  0.0835 -0.5387
   7123SM   H9F 9324   4.260   7.142  15.640 -0.2296 -1.6454  1.0580
   7123SM   H9G 9325   4.388   7.027  15.615  2.0810  0.1855  1.0347
   7123SM  C10F 9326   4.418   7.220  15.510  0.4241  0.2007 -0.0557
   7123SM  H10F 9327   4.527   7.203  15.502  0.6074  0.9733  0.6621
   7123SM  H10G 9328   4.400   7.328  15.530 -1.8253 -0.4437  1.7977
   7123SM  C11F 9329   4.354   7.181  15.377  0.1494  0.1850 -1.0389
   7123SM  H11F 9330   4.243   7.189  15.382  0.1642  0.4520 -1.1549
   7123SM  H11G 9331   4.380   7.078  15.343 -2.4690 -0.5521 -1.0553
   7123SM  C12F 9332   4.385   7.270  15.253 -0.1503  0.1926  0.1658
   7123SM  H12F 9333   4.494   7.272  15.232  0.5732 -3.1621  2.6378
   7123SM  H12G 9334   4.354   7.373  15.279  0.4096  0.6010 -0.7636
   7123SM  C13F 9335   4.321   7.198  15.126  0.0441 -0.1400 -0.0990
   7123SM  H13F 9336   4.221   7.170  15.166  0.4724  0.0190  1.1431
   7123SM  H13G 9337   4.368   7.104  15.091 -1.8171 -0.7122 -1.1741
   7123SM  C14F 9338   4.302   7.287  15.009 -0.7843 -0.0833 -0.1622
   7123SM  H14F 9339   4.398   7.327  14.971  0.1199 -2.1499 -0.1720
   7123SM  H14G 9340   4.237   7.374  15.034 -0.1621  0.9437 -1.9239
   7123SM  C15F 9341   4.221   7.220  14.903  0.5894  0.3948  0.0651
   7123SM  H15F 9342   4.156   7.147  14.956  1.6693 -0.8235 -0.2206
   7123SM  H15G 9343   4.272   7.151  14.832 -1.4672 -0.3354 -0.7822
   7123SM  C16F 9344   4.116   7.308  14.830  0.7286 -0.2269  0.7326
   7123SM  H16F 9345   4.095   7.393  14.898  1.2650 -0.2327  0.9087
   7123SM  H16G 9346   4.026   7.247  14.806  0.7900  0.4310 -1.4609
   7123SM  C17F 9347   4.156   7.361  14.690  0.4131  0.4445 -0.5369
   7123SM  H17F 9348   4.229   7.296  14.638  3.3647  2.5785  0.6823
   7123SM  H17G 9349   4.203   7.459  14.714  3.7971 -0.0877 -4.0625
   7123SM  C18F 9350   4.039   7.349  14.589 -0.0767  0.4617  0.0701
   7123SM  H18F 9351   3.943   7.373  14.640  0.2038 -0.4765  1.0941
   7123SM  H18G 9352   4.032   7.240  14.565 -0.3765  0.7854 -1.3957
   7123SM  C19F 9353   4.054   7.433  14.461  0.1078 -0.4881 -0.4083
   7123SM  H19F 9354   3.976   7.389  14.394 -2.8759  0.2659  2.2984
   7123SM  H19G 9355   4.159   7.416  14.429  0.5963 -1.0905  1.4164
   7123SM  C20F 9356   4.048   7.589  14.479 -0.0008 -0.1439  0.0099
   7123SM  H20F 9357   4.071   7.634  14.380 -1.2699 -0.1970 -0.3226
   7123SM  H20G 9358   4.126   7.616  14.553 -1.1677 -0.0304  1.2379
   7123SM  C21F 9359   3.908   7.634  14.529  0.4388  0.1665 -0.5342
   7123SM  H21F 9360   3.898   7.620  14.639 -2.3278 -0.3362 -0.7949
   7123SM  H21G 9361   3.835   7.570  14.476  1.2542 -1.1528 -0.1230
   7123SM  C22F 9362   3.885   7.781  14.512  0.1289  0.1855 -0.3051
   7123SM  H22F 9363   3.894   7.818  14.408  0.2231  1.9850  0.3208
   7123SM  H22G 9364   3.946   7.861  14.559 -1.8199  2.7299 -1.8272
   7123SM  C23F 9365   3.743   7.822  14.558  0.0589  0.3750  0.4130
   7123SM  H23F 9366   3.673   7.759  14.499  1.2463  0.5300 -1.2281
   7123SM  H23G 9367   3.712   7.928  14.544 -3.3899 -0.1363  2.9922
   7123SM  H23H 9368   3.737   7.809  14.668 -0.4513  1.5135  0.5337
   7223SM     N 9369   5.893   2.048  16.764  0.0559 -0.0062 -0.3996
   7223SM   C15 9370   5.961   2.168  16.707  0.8821 -0.1312 -0.3448
   7223SM  H15A 9371   6.004   2.228  16.787  1.6755 -1.9648  0.6649
   7223SM  H15B 9372   5.880   2.216  16.655 -1.3040 -1.6037  1.5245
   7223SM  H15C 9373   6.039   2.139  16.638  0.2385  1.0590 -1.6282
   7223SM   C14 9374   5.999   1.965  16.834 -0.1844  0.4869  0.1519
   7223SM  H14A 9375   6.068   1.927  16.760  0.0020  1.5201 -0.2225
   7223SM  H14B 9376   5.957   1.882  16.888  2.2160 -1.3448 -0.6086
   7223SM  H14C 9377   6.052   2.021  16.910  1.4408  0.0463 -0.6155
   7223SM   C13 9378   5.799   2.103  16.872  0.5874 -0.2789  0.0442
   7223SM  H13A 9379   5.849   2.175  16.934 -0.4926  0.3844  0.1748
   7223SM  H13B 9380   5.758   2.032  16.942  0.4719  1.1365  1.4503
   7223SM  H13C 9381   5.714   2.157  16.832  1.9077  0.5529 -1.8218
   7223SM   C12 9382   5.807   1.958  16.671 -0.1172 -1.1406  0.0964
   7223SM  H12A 9383   5.771   1.872  16.726  1.3356 -1.7366  0.1681
   7223SM  H12B 9384   5.867   1.907  16.597 -1.5807 -0.3635 -1.7002
   7223SM   C11 9385   5.677   2.021  16.608 -0.1257  0.3955 -0.3924
   7223SM  H11A 9386   5.603   2.022  16.691 -0.7545  0.3079 -0.9388
   7223SM  H11B 9387   5.648   1.945  16.532 -0.5167  1.6152 -1.5123
   7223SM     P 9388   5.590   2.224  16.467 -0.2476  0.0195  0.0839
   7223SM   O13 9389   5.484   2.240  16.571  0.5427 -0.4461  0.5044
   7223SM   O14 9390   5.643   2.342  16.402 -0.4136 -0.1025  0.0473
   7223SM   O11 9391   5.544   2.107  16.361  0.3489  0.0563 -0.1387
   7223SM   O12 9392   5.708   2.148  16.539 -0.2082 -0.2692  0.2244
   7223SM   C1S 9393   5.469   2.158  16.253 -0.3786 -0.1340 -0.1313
   7223SM   H1S 9394   5.466   2.269  16.258 -0.3516 -0.1809  2.2152
   7223SM   H1T 9395   5.368   2.111  16.250 -0.2837 -0.2826 -1.3316
   7223SM    NF 9396   5.453   2.163  16.008  0.4584 -0.2449 -0.0958
   7223SM   HNF 9397   5.390   2.099  15.964  1.0756 -0.8614 -0.1041
   7223SM   C2S 9398   5.538   2.122  16.118 -0.6512 -0.4580 -0.4314
   7223SM   H2S 9399   5.631   2.183  16.111 -1.6282  1.1751  0.0800
   7223SM   C3S 9400   5.574   1.966  16.106  0.0004  0.4252  0.2984
   7223SM   H3S 9401   5.479   1.911  16.090  0.5419 -0.0733 -1.5714
   7223SM    O3 9402   5.628   1.903  16.215  0.7931  0.1644 -0.5980
   7223SM   HO3 9403   5.632   1.965  16.288  0.8483 -0.9427  0.3705
   7223SM   C4S 9404   5.654   1.935  15.987  0.4763 -0.2937 -0.0063
   7223SM   H4S 9405   5.608   1.880  15.903  3.2832 -1.3852 -0.9494
   7223SM   C5S 9406   5.789   1.965  15.986 -0.0222  0.3182  0.4459
   7223SM   H5S 9407   5.846   1.988  16.077  2.4582 -1.9050 -0.4158
   7223SM   C6S 9408   5.878   1.952  15.866  0.3149 -0.3129  0.7248
   7223SM   H6S 9409   5.929   1.853  15.860  1.7306  0.3521  1.3005
   7223SM   H6T 9410   5.967   2.018  15.877  0.4225 -0.6120  1.7505
   7223SM   C7S 9411   5.806   1.980  15.728  0.1356 -0.2728 -1.1290
   7223SM   H7S 9412   5.710   1.925  15.731 -0.8564  1.3973  2.4601
   7223SM   H7T 9413   5.873   1.951  15.643  1.0502  0.8267 -0.8163
   7223SM   C8S 9414   5.778   2.128  15.697 -0.2258 -0.0356  0.2101
   7223SM   H8S 9415   5.874   2.181  15.682 -0.6519  0.6722 -0.1017
   7223SM   H8T 9416   5.732   2.172  15.789 -0.7345 -0.5450  0.2027
   7223SM   C9S 9417   5.687   2.158  15.578  0.3613 -0.2859  0.0442
   7223SM   H9S 9418   5.638   2.256  15.596 -0.2099 -0.9366  2.3144
   7223SM   H9T 9419   5.606   2.082  15.571  0.4700 -0.4083  0.1313
   7223SM  C10S 9420   5.761   2.164  15.443  0.3394  0.0622  0.0448
   7223SM  H10S 9421   5.793   2.061  15.416 -1.1202 -0.3260 -0.2551
   7223SM  H10T 9422   5.855   2.223  15.456  0.5000  0.1310 -1.3272
   7223SM  C11S 9423   5.675   2.234  15.344 -0.3998 -0.4179 -0.4152
   7223SM  H11S 9424   5.694   2.344  15.345 -1.5048 -0.1985 -1.2477
   7223SM  H11T 9425   5.571   2.210  15.374  0.4714  0.2213  3.6967
   7223SM  C12S 9426   5.707   2.178  15.214  0.8068  0.3010 -0.2169
   7223SM  H12S 9427   5.683   2.069  15.221  1.2783  0.1404 -0.9837
   7223SM  H12T 9428   5.815   2.193  15.193  1.2550 -0.7293  1.1609
   7223SM  C13S 9429   5.619   2.231  15.103  0.4604 -0.4413  0.8671
   7223SM  H13S 9430   5.613   2.341  15.116 -0.4644 -0.6681  2.7597
   7223SM  H13T 9431   5.511   2.207  15.116  0.0261  0.0657 -1.3490
   7223SM  C14S 9432   5.662   2.187  14.960 -0.1929 -0.5198 -1.0576
   7223SM  H14S 9433   5.606   2.094  14.934 -0.1913 -0.4420 -1.3418
   7223SM  H14T 9434   5.772   2.178  14.971 -0.1356  1.8925  1.3037
   7223SM  C15S 9435   5.630   2.306  14.859  0.4828  0.5355 -0.0965
   7223SM  H15S 9436   5.697   2.392  14.878 -1.0439  1.2656  2.5079
   7223SM  H15T 9437   5.521   2.324  14.871  0.3714 -0.5371  0.6781
   7223SM  C16S 9438   5.654   2.263  14.716 -0.3027  0.4817  0.4268
   7223SM  H16S 9439   5.606   2.167  14.687  0.1276 -0.0437  1.4153
   7223SM  H16T 9440   5.761   2.245  14.693 -0.6799 -1.2643 -0.1199
   7223SM  C17S 9441   5.612   2.377  14.617 -0.8801  0.5436 -0.2402
   7223SM  H17S 9442   5.706   2.410  14.568 -0.5749  0.7333  0.4639
   7223SM  H17T 9443   5.582   2.467  14.674  2.1112  0.9602  0.8255
   7223SM  C18S 9444   5.505   2.335  14.514  0.0303  0.1610 -0.1487
   7223SM  H18S 9445   5.545   2.244  14.463  0.7837  0.5244 -0.2111
   7223SM  H18T 9446   5.485   2.414  14.438  1.4608  1.5048  0.8249
   7223SM  H18U 9447   5.411   2.306  14.566  0.5412 -0.0478  0.6810
   7223SM   C1F 9448   5.447   2.288  15.968 -0.0373 -0.6728 -0.9834
   7223SM    OF 9449   5.503   2.378  16.034  0.8197 -0.2842  0.4217
   7223SM   C2F 9450   5.361   2.317  15.842 -0.4236  1.2855  0.3142
   7223SM   H2F 9451   5.259   2.280  15.866 -0.3132  0.4054 -0.5166
   7223SM   H2G 9452   5.403   2.251  15.762 -0.8620 -1.2296  2.0414
   7223SM   C3F 9453   5.362   2.469  15.814 -0.2413 -0.3190  0.7283
   7223SM   H3F 9454   5.467   2.503  15.811 -0.1667 -0.5218 -2.1703
   7223SM   H3G 9455   5.302   2.511  15.897  0.2210 -0.0214  0.9111
   7223SM   C4F 9456   5.301   2.512  15.681  0.4748 -0.2459 -0.4845
   7223SM   H4F 9457   5.252   2.611  15.691 -0.9038 -1.0649  1.5582
   7223SM   H4G 9458   5.218   2.441  15.663 -0.3418  0.2991  0.9396
   7223SM   C5F 9459   5.398   2.501  15.562  0.7366  0.1389 -0.8684
   7223SM   H5F 9460   5.431   2.395  15.551 -0.5334 -0.1422 -2.4592
   7223SM   H5G 9461   5.486   2.561  15.591  0.9155 -1.1980  1.5818
   7223SM   C6F 9462   5.334   2.553  15.428 -0.3326 -0.8081 -0.1350
   7223SM   H6F 9463   5.306   2.659  15.443 -1.2763 -0.8082 -1.6606
   7223SM   H6G 9464   5.237   2.504  15.406 -0.4131 -0.0822 -1.5329
   7223SM   C7F 9465   5.410   2.533  15.303 -0.0223 -0.4152  0.0227
   7223SM   H7F 9466   5.443   2.427  15.309  0.6900 -0.1781  0.3210
   7223SM   H7G 9467   5.503   2.592  15.296 -0.3288 -0.0919 -3.3656
   7223SM   C8F 9468   5.325   2.552  15.171 -0.1136  0.4761 -0.7249
   7223SM   H8F 9469   5.293   2.658  15.164  2.1106  1.1474 -1.5570
   7223SM   H8G 9470   5.237   2.484  15.175  0.7172 -0.7169 -1.9634
   7223SM   C9F 9471   5.404   2.539  15.041  0.1976 -0.3342 -0.4738
   7223SM   H9F 9472   5.388   2.432  15.015  1.5792 -0.2691 -1.6711
   7223SM   H9G 9473   5.512   2.558  15.057 -0.0608  1.0786 -0.2974
   7223SM  C10F 9474   5.336   2.629  14.938 -0.1973 -0.0530 -0.2300
   7223SM  H10F 9475   5.348   2.733  14.976 -1.5790 -0.5409  1.6772
   7223SM  H10G 9476   5.226   2.616  14.939 -0.2716  0.5663  0.5689
   7223SM  C11F 9477   5.382   2.615  14.800  0.0419 -0.4923  0.1665
   7223SM  H11F 9478   5.354   2.520  14.751 -0.5413 -0.7454  0.9836
   7223SM  H11G 9479   5.493   2.621  14.804  0.0367  1.1748 -0.9152
   7223SM  C12F 9480   5.346   2.726  14.699 -0.1312  0.5493 -0.9159
   7223SM  H12F 9481   5.360   2.831  14.734  1.7927 -0.3161  1.1287
   7223SM  H12G 9482   5.239   2.712  14.673  0.2037 -1.0113 -1.5617
   7223SM  C13F 9483   5.417   2.705  14.566 -0.1879 -0.4985  0.2530
   7223SM  H13F 9484   5.372   2.607  14.540 -0.3455 -0.6228  0.9558
   7223SM  H13G 9485   5.528   2.701  14.577  0.2392  1.9078 -2.0272
   7223SM  C14F 9486   5.382   2.824  14.470  0.3481 -0.8561 -0.2111
   7223SM  H14F 9487   5.438   2.912  14.508  0.7131  0.0052 -2.5874
   7223SM  H14G 9488   5.278   2.863  14.473 -0.0529 -1.9684  1.3133
   7223SM  C15F 9489   5.410   2.789  14.326 -0.4632 -0.6116 -0.0337
   7223SM  H15F 9490   5.357   2.692  14.315 -0.0790 -0.9909  1.1706
   7223SM  H15G 9491   5.519   2.769  14.320 -0.1971  0.5029  0.6669
   7223SM  C16F 9492   5.367   2.895  14.223  0.0152  0.0593  0.1422
   7223SM  H16F 9493   5.257   2.903  14.233  0.1410  0.1407  1.6662
   7223SM  H16G 9494   5.391   2.853  14.123  0.3337  0.9774 -0.1840
   7223SM  C17F 9495   5.414   3.037  14.249  0.7664 -0.0728 -0.7089
   7223SM  H17F 9496   5.524   3.043  14.239  1.2061 -3.4625  0.7054
   7223SM  H17G 9497   5.393   3.070  14.353 -0.2514  0.7312 -1.1517
   7223SM  C18F 9498   5.339   3.136  14.164  0.4918  0.4135  0.0372
   7223SM  H18F 9499   5.231   3.120  14.183  0.5781 -1.1765 -0.7134
   7223SM  H18G 9500   5.369   3.119  14.058 -1.7843 -1.2410 -0.3988
   7223SM  C19F 9501   5.359   3.286  14.182  0.3993  0.2926 -0.5823
   7223SM  H19F 9502   5.464   3.317  14.163  0.4506 -0.9912 -2.7792
   7223SM  H19G 9503   5.344   3.313  14.288  0.0331  0.6869 -0.7304
   7223SM  C20F 9504   5.282   3.376  14.089  0.0423  0.0128  0.1884
   7223SM  H20F 9505   5.303   3.343  13.985  0.1075 -0.7269  0.4317
   7223SM  H20G 9506   5.333   3.475  14.086  1.5927 -0.7242  0.9322
   7223SM  C21F 9507   5.132   3.370  14.122  0.3250 -0.1296  0.0603
   7223SM  H21F 9508   5.110   3.412  14.222  0.9944  0.7003 -0.1330
   7223SM  H21G 9509   5.084   3.270  14.114 -0.5544  0.1181  1.9422
   7223SM  C22F 9510   5.047   3.471  14.033 -0.2758  0.0733  0.0966
   7223SM  H22F 9511   5.053   3.435  13.928 -0.3989  0.3361 -0.0016
   7223SM  H22G 9512   5.084   3.575  14.047  2.6846 -0.9821  0.8863
   7223SM  C23F 9513   4.899   3.459  14.068  0.8457 -0.1012 -0.1032
   7223SM  H23F 9514   4.861   3.355  14.064 -0.0799  0.2596 -0.8711
   7223SM  H23G 9515   4.835   3.531  14.013  1.4324  0.9459  0.5569
   7223SM  H23H 9516   4.879   3.492  14.172 -2.5385 -2.2383  0.0587
   7323SM     N 9517   4.696   0.940  16.978 -0.4563  0.9896  0.2427
   7323SM   C15 9518   4.684   0.798  16.933  0.1883  0.7025  0.5531
   7323SM  H15A 9519   4.739   0.783  16.842 -1.6992 -0.3707 -0.4713
   7323SM  H15B 9520   4.583   0.765  16.911  0.0508  1.3632  0.1912
   7323SM  H15C 9521   4.716   0.729  17.010 -0.5198 -2.6553 -1.9478
   7323SM   C14 9522   4.650   0.944  17.121  0.3407 -0.5011 -0.6064
   7323SM  H14A 9523   4.546   0.915  17.125  0.5674 -1.2553 -0.0565
   7323SM  H14B 9524   4.659   1.044  17.161 -3.3486 -0.8005  1.4805
   7323SM  H14C 9525   4.698   0.881  17.194 -0.6701  0.5756  1.0559
   7323SM   C13 9526   4.833   0.990  16.960  0.7401 -0.4982 -0.4925
   7323SM  H13A 9527   4.884   0.963  16.869 -1.0099 -1.4708 -1.2308
   7323SM  H13B 9528   4.897   0.950  17.038  1.3857 -1.9341 -1.7201
   7323SM  H13C 9529   4.843   1.097  16.969  1.3204 -0.2849 -2.9502
   7323SM   C12 9530   4.599   1.022  16.896 -0.1105  0.5586  0.0091
   7323SM  H12A 9531   4.614   1.129  16.906 -0.2595  0.4796  1.2217
   7323SM  H12B 9532   4.500   0.998  16.929 -0.3986  0.1490 -1.1164
   7323SM   C11 9533   4.616   1.020  16.741  0.0388 -0.1392  0.1041
   7323SM  H11A 9534   4.521   1.066  16.707 -0.4640 -1.8342 -0.9272
   7323SM  H11B 9535   4.606   0.917  16.701  2.1153  0.0687 -1.0643
   7323SM     P 9536   4.745   1.240  16.677  0.4541 -0.3498 -0.1043
   7323SM   O13 9537   4.692   1.296  16.800  0.0316  0.1562 -0.7564
   7323SM   O14 9538   4.887   1.278  16.640  0.4425 -0.1645  0.0547
   7323SM   O11 9539   4.648   1.273  16.556  0.1763 -0.3978 -0.1909
   7323SM   O12 9540   4.730   1.081  16.690  0.3599 -0.0797  0.1403
   7323SM   C1S 9541   4.687   1.246  16.421 -0.1335 -0.2143  0.3813
   7323SM   H1S 9542   4.777   1.182  16.412  0.2477  0.3499  0.1167
   7323SM   H1T 9543   4.712   1.345  16.378 -1.1195 -0.6806 -1.3410
   7323SM    NF 9544   4.617   1.129  16.215 -0.1359 -0.4417 -0.0254
   7323SM   HNF 9545   4.571   1.177  16.140 -0.3772 -0.8743 -0.1543
   7323SM   C2S 9546   4.576   1.171  16.348  0.5804  0.6878 -0.6081
   7323SM   H2S 9547   4.571   1.077  16.407  2.1656 -1.0781 -3.0575
   7323SM   C3S 9548   4.430   1.236  16.357 -0.0961  0.6284  0.3976
   7323SM   H3S 9549   4.421   1.323  16.288  1.8832  0.1068 -0.5761
   7323SM    O3 9550   4.395   1.272  16.487  0.1000  0.2878  0.3356
   7323SM   HO3 9551   4.479   1.259  16.532  0.8204  1.0197 -0.7415
   7323SM   C4S 9552   4.335   1.130  16.313  0.2778 -0.5324  0.1409
   7323SM   H4S 9553   4.284   1.073  16.392 -1.6624  0.9906  0.0743
   7323SM   C5S 9554   4.286   1.108  16.191  0.1086  0.4056  0.1394
   7323SM   H5S 9555   4.311   1.175  16.107  4.6540  0.3252  1.1791
   7323SM   C6S 9556   4.173   1.002  16.178 -0.6404 -0.1685 -0.0510
   7323SM   H6S 9557   4.160   0.946  16.273 -1.2201 -4.4421 -2.3669
   7323SM   H6T 9558   4.207   0.927  16.104 -0.7772  0.4300 -0.7277
   7323SM   C7S 9559   4.039   1.070  16.129 -0.3391 -0.0910 -0.6454
   7323SM   H7S 9560   3.992   1.128  16.211 -0.6093 -0.9727 -0.1751
   7323SM   H7T 9561   3.964   0.994  16.098 -1.5993  0.9849 -0.3316
   7323SM   C8S 9562   4.047   1.162  16.007 -0.4601 -0.0271  0.2107
   7323SM   H8S 9563   4.126   1.241  16.015 -1.1069  1.0339 -2.5501
   7323SM   H8T 9564   3.952   1.220  15.999  0.4158  1.2311 -1.8917
   7323SM   C9S 9565   4.057   1.077  15.881  0.5579  0.1514 -0.3866
   7323SM   H9S 9566   3.970   1.009  15.866  0.4541  0.2102 -0.0386
   7323SM   H9T 9567   4.147   1.012  15.887 -0.8062 -2.1472 -2.5813
   7323SM  C10S 9568   4.069   1.166  15.763  0.4468  0.4142 -0.5060
   7323SM  H10S 9569   4.169   1.213  15.772  0.2697  0.4664  1.5733
   7323SM  H10T 9570   3.993   1.246  15.777  0.5539  0.3273  0.6699
   7323SM  C11S 9571   4.067   1.106  15.618  0.4596  0.5267 -0.6687
   7323SM  H11S 9572   3.966   1.061  15.603  0.1353  0.5464  1.2621
   7323SM  H11T 9573   4.148   1.031  15.605 -0.9136 -0.9455 -1.0529
   7323SM  C12S 9574   4.086   1.215  15.516  0.1536  0.2575  0.5381
   7323SM  H12S 9575   4.188   1.257  15.529 -0.3515  1.4209  0.8250
   7323SM  H12T 9576   4.016   1.294  15.551  1.5833  2.9390 -2.2521
   7323SM  C13S 9577   4.057   1.168  15.374  0.1327  0.1403 -0.0764
   7323SM  H13S 9578   3.955   1.125  15.367  1.1920 -2.5255 -0.2998
   7323SM  H13T 9579   4.139   1.095  15.356  1.0001  1.1301 -0.2160
   7323SM  C14S 9580   4.059   1.279  15.272  0.2569 -0.0651  0.1750
   7323SM  H14S 9581   4.152   1.340  15.282  0.3446 -0.3290  1.0805
   7323SM  H14T 9582   3.973   1.345  15.293 -0.1138 -0.0590 -1.3006
   7323SM  C15S 9583   4.033   1.223  15.130  0.5102 -0.5344 -0.5520
   7323SM  H15S 9584   3.923   1.234  15.120  0.8646  2.7185 -2.4448
   7323SM  H15T 9585   4.068   1.118  15.124  0.2465 -0.5561 -2.2215
   7323SM  C16S 9586   4.108   1.299  15.018  0.0280 -0.8227 -0.3913
   7323SM  H16S 9587   4.216   1.286  15.036 -0.0367  1.8611  2.6739
   7323SM  H16T 9588   4.091   1.408  15.016 -0.9517 -0.9597 -0.3244
   7323SM  C17S 9589   4.081   1.243  14.874  0.4286  0.5605  0.1165
   7323SM  H17S 9590   3.990   1.296  14.837 -0.0701 -1.6953 -2.1485
   7323SM  H17T 9591   4.062   1.133  14.882 -1.6428  0.8658 -0.0028
   7323SM  C18S 9592   4.192   1.276  14.781 -0.4641 -0.1243 -0.4482
   7323SM  H18S 9593   4.286   1.233  14.821 -0.7216 -0.0502  0.2430
   7323SM  H18T 9594   4.223   1.382  14.765  0.8403 -0.6817 -1.8546
   7323SM  H18U 9595   4.168   1.233  14.682 -3.0627 -0.6669  0.3407
   7323SM   C1F 9596   4.716   1.043  16.177 -0.4429  0.4010 -0.4896
   7323SM    OF 9597   4.768   0.969  16.260  0.4101  0.0600  0.2097
   7323SM   C2F 9598   4.742   1.039  16.031  0.1439 -0.5416  0.4943
   7323SM   H2F 9599   4.794   1.132  16.001 -0.5114 -0.9600 -2.2199
   7323SM   H2G 9600   4.647   1.030  15.973 -0.8683  2.2862  1.5308
   7323SM   C3F 9601   4.836   0.924  15.977  0.2518 -0.0020 -0.2343
   7323SM   H3F 9602   4.782   0.835  16.016 -1.6952  1.4161  0.4913
   7323SM   H3G 9603   4.933   0.920  16.030 -1.0108 -0.5048  2.1930
   7323SM   C4F 9604   4.867   0.924  15.828  0.5066  0.1116  0.6492
   7323SM   H4F 9605   4.778   0.891  15.771  0.8782 -0.0387  0.1425
   7323SM   H4G 9606   4.946   0.847  15.811  0.9708  0.7976 -0.3839
   7323SM   C5F 9607   4.903   1.060  15.769  0.1477 -0.6635 -0.0713
   7323SM   H5F 9608   5.000   1.098  15.808 -0.4327  1.3543 -0.4667
   7323SM   H5G 9609   4.823   1.133  15.796 -0.9662 -1.4561 -1.0858
   7323SM   C6F 9610   4.907   1.065  15.616 -0.8576  0.1895  0.0681
   7323SM   H6F 9611   4.805   1.040  15.580 -1.7456  0.8263  2.0161
   7323SM   H6G 9612   4.983   0.989  15.589 -1.7910 -0.5376 -0.5494
   7323SM   C7F 9613   4.957   1.198  15.549  0.2325 -0.1439 -0.1100
   7323SM   H7F 9614   5.042   1.244  15.603 -1.9958  4.3821  0.0348
   7323SM   H7G 9615   4.876   1.275  15.550  1.6313  1.3945 -0.2510
   7323SM   C8F 9616   4.996   1.173  15.404 -0.1791  0.1500  0.2789
   7323SM   H8F 9617   5.057   1.080  15.400  0.2068  0.4314 -0.4072
   7323SM   H8G 9618   5.063   1.251  15.362  0.6734 -0.7911 -0.1385
   7323SM   C9F 9619   4.870   1.178  15.316 -0.4461  0.3121 -0.0114
   7323SM   H9F 9620   4.818   1.273  15.341  0.9700  0.9748  0.5397
   7323SM   H9G 9621   4.803   1.097  15.352 -1.9119  1.2677 -0.5007
   7323SM  C10F 9622   4.905   1.172  15.168  0.6181  0.3806 -0.2645
   7323SM  H10F 9623   4.949   1.075  15.137  0.2847 -0.0373  0.5361
   7323SM  H10G 9624   4.971   1.256  15.138  1.7050  0.2660  1.6268
   7323SM  C11F 9625   4.769   1.186  15.088  0.4160  0.8626  0.0974
   7323SM  H11F 9626   4.708   1.275  15.117 -1.0234  0.2730 -0.9773
   7323SM  H11G 9627   4.709   1.095  15.108 -0.9925  1.8248  0.3730
   7323SM  C12F 9628   4.795   1.191  14.936 -0.4754 -0.0225  0.1919
   7323SM  H12F 9629   4.839   1.102  14.885 -1.4118  0.0024 -0.6981
   7323SM  H12G 9630   4.868   1.274  14.923  0.3859 -1.0610 -2.1488
   7323SM  C13F 9631   4.681   1.242  14.852 -0.7196 -0.1686 -0.2481
   7323SM  H13F 9632   4.661   1.351  14.859  0.7661  0.2289 -1.5167
   7323SM  H13G 9633   4.587   1.203  14.896 -1.8120  1.5501 -0.9507
   7323SM  C14F 9634   4.691   1.195  14.705 -0.1634  0.0216 -0.5283
   7323SM  H14F 9635   4.713   1.086  14.715 -3.3470 -0.5859  1.1053
   7323SM  H14G 9636   4.773   1.248  14.653 -1.1932  2.5309  0.2872
   7323SM  C15F 9637   4.559   1.212  14.629 -0.2521  0.1659  0.9524
   7323SM  H15F 9638   4.564   1.312  14.582  1.0780  0.4906  1.7227
   7323SM  H15G 9639   4.482   1.212  14.709 -4.0955 -3.8042 -2.2219
   7323SM  C16F 9640   4.521   1.099  14.524  0.0124  1.0752  0.0806
   7323SM  H16F 9641   4.534   1.001  14.575  1.6936  0.4084 -1.5161
   7323SM  H16G 9642   4.574   1.098  14.427 -0.2723 -2.3029 -0.1520
   7323SM  C17F 9643   4.377   1.099  14.476  0.2648  0.0147  0.3012
   7323SM  H17F 9644   4.324   1.078  14.571  0.1900  1.2998  0.5712
   7323SM  H17G 9645   4.360   1.013  14.408 -1.2684 -0.7848  1.6287
   7323SM  C18F 9646   4.325   1.236  14.434  0.0801 -0.3261  1.0691
   7323SM  H18F 9647   4.371   1.272  14.340 -0.8267 -1.9944 -0.0560
   7323SM  H18G 9648   4.345   1.307  14.518  0.9357 -1.0857  1.5259
   7323SM  C19F 9649   4.168   1.237  14.400 -0.9617 -0.5468 -0.9192
   7323SM  H19F 9650   4.114   1.213  14.495 -0.9037  2.0454 -0.1508
   7323SM  H19G 9651   4.150   1.149  14.335 -1.7004 -0.7558 -0.4465
   7323SM  C20F 9652   4.120   1.371  14.345  0.0946 -0.2633 -0.3698
   7323SM  H20F 9653   4.171   1.409  14.254  3.4552  0.3435  1.6026
   7323SM  H20G 9654   4.149   1.450  14.418  1.2242  0.0074 -1.0880
   7323SM  C21F 9655   3.963   1.377  14.327 -0.2907  0.6621  0.8060
   7323SM  H21F 9656   3.932   1.276  14.293 -0.0286  0.5688  0.8425
   7323SM  H21G 9657   3.938   1.459  14.257 -1.4549 -3.1250 -3.7007
   7323SM  C22F 9658   3.883   1.395  14.460 -0.0502  0.3152  0.2037
   7323SM  H22F 9659   3.926   1.482  14.513  0.4180  1.0720 -1.3622
   7323SM  H22G 9660   3.886   1.305  14.526 -1.8118  0.8161  1.0077
   7323SM  C23F 9661   3.737   1.411  14.430 -0.0067  0.0731  0.0656
   7323SM  H23F 9662   3.711   1.326  14.362  1.4758  0.4092 -0.9699
   7323SM  H23G 9663   3.724   1.507  14.376  2.4962  0.6035  0.2557
   7323SM  H23H 9664   3.672   1.394  14.518 -0.0532  0.1524  0.0450
   7423SM     N 9665   0.457   3.919  16.974 -0.0658 -0.3617  0.4208
   7423SM   C15 9666   0.564   3.824  16.969  0.4005 -0.3463  0.2037
   7423SM  H15A 9667   0.555   3.772  16.875  0.7726  0.5168 -0.3180
   7423SM  H15B 9668   0.564   3.756  17.053  2.0567  2.1974  2.4293
   7423SM  H15C 9669   0.661   3.867  16.954  0.8620 -2.0898 -2.4989
   7423SM   C14 9670   0.337   3.838  17.010 -0.1466  0.3092 -0.6277
   7423SM  H14A 9671   0.246   3.894  17.025  0.4687  0.8780  1.2839
   7423SM  H14B 9672   0.352   3.797  17.108 -3.1127  1.4008  0.4067
   7423SM  H14C 9673   0.318   3.751  16.949  0.5504 -0.6180  0.4546
   7423SM   C13 9674   0.473   4.007  17.094  0.0581 -0.3629  0.0164
   7423SM  H13A 9675   0.392   4.079  17.101 -0.7299 -1.3824  2.0312
   7423SM  H13B 9676   0.567   4.059  17.084 -0.1050  0.0379  0.4825
   7423SM  H13C 9677   0.477   3.953  17.188  2.5857  0.3067  0.3632
   7423SM   C12 9678   0.441   4.007  16.846 -0.6531  0.4291  0.4303
   7423SM  H12A 9679   0.530   4.066  16.827 -0.5368  1.6962  4.1157
   7423SM  H12B 9680   0.370   4.084  16.872  0.6287  1.9370 -0.4023
   7423SM   C11 9681   0.395   3.928  16.718  0.0820  0.6207  0.5824
   7423SM  H11A 9682   0.357   3.995  16.638  0.3660  1.8980  1.4934
   7423SM  H11B 9683   0.313   3.866  16.759 -0.2501  1.0007  0.4967
   7423SM     P 9684   0.469   3.704  16.591  0.2896  0.3417 -0.4856
   7423SM   O13 9685   0.588   3.663  16.508 -0.8003 -0.1114 -0.1257
   7423SM   O14 9686   0.408   3.603  16.684  0.2549 -0.5014  0.1840
   7423SM   O11 9687   0.351   3.741  16.489 -0.2003 -0.6999 -0.2496
   7423SM   O12 9688   0.500   3.842  16.669 -0.1154  0.0474  0.2839
   7423SM   C1S 9689   0.333   3.662  16.364  0.0200 -0.7049  0.5249
   7423SM   H1S 9690   0.265   3.575  16.376  1.4984 -1.8266  1.1339
   7423SM   H1T 9691   0.432   3.623  16.333 -0.8380 -3.4957  1.0026
   7423SM    NF 9692   0.259   3.660  16.141 -0.4890  0.3468 -0.3933
   7423SM   HNF 9693   0.329   3.671  16.071  1.2215 -1.9990  0.7882
   7423SM   C2S 9694   0.274   3.753  16.251  0.0383  0.4180  0.5863
   7423SM   H2S 9695   0.168   3.777  16.276 -0.7783  0.1208 -2.2104
   7423SM   C3S 9696   0.350   3.890  16.230  0.0734 -0.0124 -0.0130
   7423SM   H3S 9697   0.451   3.859  16.193 -0.6595 -0.6128 -1.6055
   7423SM    O3 9698   0.393   3.952  16.350 -0.0241  0.3889 -0.0689
   7423SM   HO3 9699   0.384   3.887  16.419  3.2804  0.0990  0.2372
   7423SM   C4S 9700   0.282   3.981  16.135  0.7278  0.3932 -0.1680
   7423SM   H4S 9701   0.300   3.953  16.030  1.7877  2.2433 -0.5247
   7423SM   C5S 9702   0.211   4.097  16.162 -0.3587  0.3223 -0.6867
   7423SM   H5S 9703   0.166   4.118  16.260  0.7929  0.0802 -0.0909
   7423SM   C6S 9704   0.145   4.188  16.067  0.7815 -0.4687  0.0752
   7423SM   H6S 9705   0.147   4.293  16.102  0.8875 -0.0386 -1.1691
   7423SM   H6T 9706   0.035   4.178  16.064  0.7829 -0.5925 -2.9193
   7423SM   C7S 9707   0.190   4.180  15.919 -0.4114 -0.5907  0.3511
   7423SM   H7S 9708   0.165   4.078  15.885 -0.4355 -0.5395  0.2153
   7423SM   H7T 9709   0.299   4.198  15.915 -0.3646 -0.9500 -0.0419
   7423SM   C8S 9710   0.122   4.278  15.825  0.1042 -0.7528 -0.2936
   7423SM   H8S 9711   0.151   4.378  15.862  1.4408 -1.4211  0.5251
   7423SM   H8T 9712   0.013   4.260  15.837  0.3138 -1.4323  0.6242
   7423SM   C9S 9713   0.166   4.256  15.681 -0.7512 -0.2161  0.0157
   7423SM   H9S 9714   0.083   4.190  15.645  1.2621 -3.2382  0.5808
   7423SM   H9T 9715   0.252   4.187  15.679 -1.2537 -0.8782  0.6613
   7423SM  C10S 9716   0.168   4.387  15.605  0.7316 -0.4054 -0.3528
   7423SM  H10S 9717   0.258   4.448  15.630 -0.3193  0.8154  0.5665
   7423SM  H10T 9718   0.084   4.444  15.650  1.4051 -0.0082  0.4316
   7423SM  C11S 9719   0.157   4.370  15.452 -0.0887 -0.0097  0.3705
   7423SM  H11S 9720   0.070   4.311  15.417  0.4590  0.3139 -1.7021
   7423SM  H11T 9721   0.238   4.309  15.406 -0.8641  0.1946 -1.3793
   7423SM  C12S 9722   0.143   4.510  15.385  0.1221  0.0517 -0.0585
   7423SM  H12S 9723   0.237   4.566  15.404  0.3047 -0.6315  1.1643
   7423SM  H12T 9724   0.058   4.565  15.430 -0.7767 -3.2040  2.6116
   7423SM  C13S 9725   0.115   4.493  15.233 -0.3127 -0.1022 -0.4267
   7423SM  H13S 9726   0.010   4.459  15.218  0.3359 -2.6919  0.2973
   7423SM  H13T 9727   0.176   4.407  15.196  1.1252  0.2532  0.9875
   7423SM  C14S 9728   0.149   4.615  15.145 -0.0565 -0.2750  0.0914
   7423SM  H14S 9729   0.258   4.632  15.132 -0.3179  0.4607 -1.2368
   7423SM  H14T 9730   0.107   4.710  15.185 -0.0106 -0.1027 -0.2635
   7423SM  C15S 9731   0.090   4.600  15.005  0.1466 -0.1174 -0.1495
   7423SM  H15S 9732   0.056   4.700  14.971 -1.6102 -0.9383 -0.9401
   7423SM  H15T 9733  -0.005   4.542  15.003  0.4184 -0.5664 -1.5686
   7423SM  C16S 9734   0.193   4.547  14.909  0.3738  0.3947  0.3635
   7423SM  H16S 9735   0.214   4.443  14.940 -0.7684  0.3328  0.9603
   7423SM  H16T 9736   0.285   4.609  14.916  0.4645  0.4282 -0.8534
   7423SM  C17S 9737   0.148   4.537  14.764  0.5172  0.2747 -0.3793
   7423SM  H17S 9738   0.109   4.636  14.731 -0.3075  0.0893  0.0203
   7423SM  H17T 9739   0.066   4.464  14.748 -1.8902  2.9003 -0.7867
   7423SM  C18S 9740   0.265   4.489  14.672  0.6049 -0.3029  0.8293
   7423SM  H18S 9741   0.220   4.467  14.572  0.0060 -2.8127  1.5680
   7423SM  H18T 9742   0.300   4.391  14.712  0.6113  0.7017  3.4320
   7423SM  H18U 9743   0.345   4.566  14.667 -1.6651  2.1727  0.5781
   7423SM   C1F 9744   0.164   3.567  16.130  0.2124  0.0654 -0.5249
   7423SM    OF 9745   0.069   3.562  16.209  0.4124 -0.1184  0.0166
   7423SM   C2F 9746   0.185   3.465  16.018 -0.0575  0.0042 -0.3971
   7423SM   H2F 9747   0.146   3.371  16.062 -0.8937 -1.0025 -3.0975
   7423SM   H2G 9748   0.293   3.445  16.003  0.6592  0.3114  3.3376
   7423SM   C3F 9749   0.116   3.499  15.886 -0.4678  0.7565  0.3171
   7423SM   H3F 9750   0.155   3.600  15.860 -0.1469  0.3828 -0.7449
   7423SM   H3G 9751   0.007   3.510  15.905 -0.7841 -0.8805 -0.3684
   7423SM   C4F 9752   0.150   3.394  15.783 -0.1679 -0.6238 -0.0552
   7423SM   H4F 9753   0.143   3.290  15.821  0.3734 -1.1456 -1.3269
   7423SM   H4G 9754   0.253   3.409  15.743 -0.4498  0.3248 -0.4539
   7423SM   C5F 9755   0.056   3.417  15.661 -0.6285  0.3719  0.0910
   7423SM   H5F 9756  -0.036   3.466  15.700 -0.6033  0.7763 -0.3476
   7423SM   H5G 9757   0.015   3.327  15.609 -2.1847  0.4286  1.1434
   7423SM   C6F 9758   0.108   3.510  15.542 -0.5618  0.2227 -0.2566
   7423SM   H6F 9759   0.195   3.461  15.495 -1.0428 -2.3463  1.3387
   7423SM   H6G 9760   0.144   3.607  15.583 -1.0712  0.6336 -0.7611
   7423SM   C7F 9761  -0.001   3.539  15.433 -0.0962  0.2482  0.1366
   7423SM   H7F 9762  -0.086   3.591  15.483 -0.3705 -0.6578  0.6272
   7423SM   H7G 9763  -0.048   3.445  15.398  0.1113 -0.4350  1.6418
   7423SM   C8F 9764   0.054   3.623  15.308 -0.6236 -0.3363 -0.2279
   7423SM   H8F 9765   0.144   3.565  15.277  0.8754  1.3611  0.7194
   7423SM   H8G 9766   0.090   3.722  15.343 -0.0454 -0.8692  0.7640
   7423SM   C9F 9767  -0.041   3.628  15.193  0.0739  0.7397  0.1321
   7423SM   H9F 9768  -0.142   3.666  15.219  0.0662  1.0612 -0.3508
   7423SM   H9G 9769  -0.058   3.525  15.155 -2.8989  1.7979 -1.7660
   7423SM  C10F 9770   0.015   3.713  15.080 -0.2218 -0.3207  0.1965
   7423SM  H10F 9771   0.057   3.804  15.126 -1.0246 -0.0764  0.4636
   7423SM  H10G 9772  -0.070   3.750  15.019 -0.9227 -3.0601 -0.6511
   7423SM  C11F 9773   0.105   3.647  14.967  0.0293 -0.2833  0.5041
   7423SM  H11F 9774   0.167   3.570  15.017 -0.1788  0.1497  1.4493
   7423SM  H11G 9775   0.167   3.728  14.922 -0.7602 -0.3269 -0.6943
   7423SM  C12F 9776   0.027   3.590  14.850  0.6292  0.5614  0.3910
   7423SM  H12F 9777  -0.035   3.668  14.799  0.2190  2.2862  3.2924
   7423SM  H12G 9778  -0.044   3.516  14.893 -1.3430  0.6598 -2.4430
   7423SM  C13F 9779   0.106   3.534  14.734  0.1777 -0.1197  1.1706
   7423SM  H13F 9780   0.030   3.490  14.666  1.1466  2.1633 -1.5624
   7423SM  H13G 9781   0.172   3.451  14.768  1.2557  0.0969 -0.3173
   7423SM  C14F 9782   0.201   3.635  14.662  0.7779 -0.1231  0.2705
   7423SM  H14F 9783   0.283   3.666  14.731  0.2318 -1.4763  1.5675
   7423SM  H14G 9784   0.137   3.725  14.646  0.4530 -0.2433  0.8656
   7423SM  C15F 9785   0.243   3.577  14.526 -0.6475  0.9649 -0.9986
   7423SM  H15F 9786   0.318   3.641  14.474  3.0017 -2.8156 -0.9629
   7423SM  H15G 9787   0.159   3.544  14.461  0.1361 -2.9896 -0.2592
   7423SM  C16F 9788   0.324   3.446  14.550 -0.1038  0.7723  0.2348
   7423SM  H16F 9789   0.249   3.381  14.599 -1.2528  2.1516  0.3803
   7423SM  H16G 9790   0.417   3.460  14.610 -0.2069 -1.3131  0.9447
   7423SM  C17F 9791   0.375   3.367  14.428  0.0441  1.2697  0.4641
   7423SM  H17F 9792   0.448   3.286  14.451  0.6827  0.2558 -4.1373
   7423SM  H17G 9793   0.425   3.444  14.366  1.2173  0.8103  0.8062
   7423SM  C18F 9794   0.255   3.310  14.351 -0.7340 -0.2488  0.3729
   7423SM  H18F 9795   0.194   3.390  14.304  1.4994  1.4952  0.2955
   7423SM  H18G 9796   0.191   3.257  14.425  1.2993 -0.3192  2.1785
   7423SM  C19F 9797   0.307   3.224  14.237  0.0876  0.8597  0.4285
   7423SM  H19F 9798   0.370   3.145  14.282  0.5999 -1.5341 -3.9296
   7423SM  H19G 9799   0.382   3.284  14.181  1.8435 -1.6673 -0.0896
   7423SM  C20F 9800   0.197   3.166  14.137 -0.5816 -0.1510 -0.2793
   7423SM  H20F 9801   0.243   3.123  14.046 -1.0842 -3.8330  1.0541
   7423SM  H20G 9802   0.126   3.248  14.111  1.2212  1.4423 -0.4548
   7423SM  C21F 9803   0.113   3.052  14.197  0.2658 -0.2437 -0.8816
   7423SM  H21F 9804   0.062   3.083  14.291 -1.7006 -1.3051 -1.5585
   7423SM  H21G 9805   0.173   2.965  14.231 -0.0632  0.5773  2.1251
   7423SM  C22F 9806   0.015   2.981  14.099 -0.2466 -1.0696  0.1050
   7423SM  H22F 9807   0.066   2.943  14.008  1.1931 -1.4210  1.0341
   7423SM  H22G 9808  -0.057   3.058  14.065  2.3021  0.7945 -1.3788
   7423SM  C23F 9809  -0.073   2.886  14.181  0.0420  0.5584 -0.2571
   7423SM  H23F 9810  -0.150   2.834  14.121 -2.0824 -1.7567  4.0099
   7423SM  H23G 9811  -0.128   2.926  14.269  1.3610  0.7183  0.5267
   7423SM  H23H 9812  -0.000   2.810  14.216  0.6389  1.7264  1.1410
   7523SM     N 9813   5.399   5.803  16.745  0.9125  0.6375 -0.2590
   7523SM   C15 9814   5.373   5.892  16.860  0.2505 -0.4178  0.1701
   7523SM  H15A 9815   5.415   5.990  16.842 -0.7942  0.2574  1.2595
   7523SM  H15B 9816   5.411   5.861  16.956  1.6850 -1.2871 -0.6433
   7523SM  H15C 9817   5.268   5.916  16.872  0.9372  1.8539  2.7159
   7523SM   C14 9818   5.348   5.666  16.776  0.6717 -0.8432  0.3188
   7523SM  H14A 9819   5.356   5.598  16.693 -0.2428 -2.3539  1.4175
   7523SM  H14B 9820   5.245   5.683  16.806 -0.0745 -1.1888 -1.8616
   7523SM  H14C 9821   5.392   5.617  16.862 -2.3764 -0.6982  2.1066
   7523SM   C13 9822   5.332   5.863  16.618  0.0862 -0.3319 -0.6110
   7523SM  H13A 9823   5.227   5.881  16.632 -0.0435 -1.7413  0.4445
   7523SM  H13B 9824   5.343   5.802  16.530 -1.3805  0.2129 -1.1822
   7523SM  H13C 9825   5.372   5.959  16.590  1.0319 -1.0334 -1.7246
   7523SM   C12 9826   5.545   5.793  16.715  0.5270  0.4097 -0.0644
   7523SM  H12A 9827   5.587   5.740  16.799 -2.6995 -0.3033  1.2603
   7523SM  H12B 9828   5.588   5.891  16.700  2.0706 -0.6068 -3.0178
   7523SM   C11 9829   5.595   5.712  16.592  0.5041  0.0498  0.1981
   7523SM  H11A 9830   5.556   5.749  16.495 -0.1782 -1.0895  0.0233
   7523SM  H11B 9831   5.559   5.608  16.606  3.5462 -0.9757  1.2945
   7523SM     P 9832   5.816   5.817  16.517  0.3461  0.1844 -0.0531
   7523SM   O13 9833   5.751   5.947  16.530 -0.5604 -0.0713 -0.8252
   7523SM   O14 9834   5.959   5.808  16.559 -0.1694 -0.2803 -0.1585
   7523SM   O11 9835   5.803   5.769  16.370  0.1529 -0.6714  0.1005
   7523SM   O12 9836   5.738   5.710  16.602 -0.3181  0.6794  0.1326
   7523SM   C1S 9837   5.835   5.633  16.336 -0.1617  0.2053 -0.1646
   7523SM   H1S 9838   5.785   5.553  16.396 -0.8622  0.8269  0.1023
   7523SM   H1T 9839   5.942   5.608  16.352  0.3121  1.2488 -1.5959
   7523SM    NF 9840   5.849   5.473  16.145 -0.2854 -0.0672  0.0366
   7523SM   HNF 9841   5.931   5.462  16.090  0.6955  0.7657  1.2654
   7523SM   C2S 9842   5.804   5.604  16.186 -0.7889  0.4245  0.7429
   7523SM   H2S 9843   5.694   5.605  16.171 -0.8333 -1.1043  0.7842
   7523SM   C3S 9844   5.859   5.721  16.101 -0.0532  0.2728  0.4351
   7523SM   H3S 9845   5.959   5.751  16.138 -0.0935  1.5893 -0.4799
   7523SM    O3 9846   5.782   5.834  16.113 -0.8146 -0.7182  0.0099
   7523SM   HO3 9847   5.760   5.828  16.206  1.0986  0.5017  0.5800
   7523SM   C4S 9848   5.875   5.688  15.951 -0.1180  0.2002  0.4457
   7523SM   H4S 9849   5.976   5.654  15.921  0.3131 -0.0469  2.0512
   7523SM   C5S 9850   5.773   5.684  15.861  0.1201  0.6249 -0.3908
   7523SM   H5S 9851   5.667   5.709  15.879 -0.5702 -1.4358 -1.3736
   7523SM   C6S 9852   5.793   5.637  15.717 -0.6705 -0.1708 -0.6051
   7523SM   H6S 9853   5.731   5.546  15.707 -0.5905 -0.1358 -1.4703
   7523SM   H6T 9854   5.902   5.625  15.699  0.1226  2.6848  1.4692
   7523SM   C7S 9855   5.741   5.747  15.615 -0.0769  0.1820 -0.1480
   7523SM   H7S 9856   5.794   5.843  15.632 -0.1837  0.4967 -1.4867
   7523SM   H7T 9857   5.637   5.767  15.646  0.0259 -1.1447  1.1422
   7523SM   C8S 9858   5.762   5.715  15.461  1.1764  0.2655  0.2831
   7523SM   H8S 9859   5.716   5.617  15.435  0.4099  1.1234 -1.8098
   7523SM   H8T 9860   5.869   5.701  15.437  2.0678  3.1498  2.0480
   7523SM   C9S 9861   5.689   5.818  15.363 -0.3160 -0.3961 -0.2216
   7523SM   H9S 9862   5.732   5.916  15.391  1.0754 -1.4696  1.6582
   7523SM   H9T 9863   5.580   5.824  15.386 -0.6137 -0.7627 -1.4563
   7523SM  C10S 9864   5.712   5.790  15.212 -0.4621 -0.3162  0.1708
   7523SM  H10S 9865   5.682   5.684  15.193 -0.5775 -0.3612  0.5778
   7523SM  H10T 9866   5.818   5.796  15.182 -0.1721  3.2179  1.4548
   7523SM  C11S 9867   5.621   5.881  15.132  0.0053  0.5232 -0.1351
   7523SM  H11S 9868   5.640   5.986  15.162 -1.6744  1.5435 -2.3485
   7523SM  H11T 9869   5.520   5.846  15.163  1.1293 -2.2876  0.6092
   7523SM  C12S 9870   5.634   5.867  14.984 -0.4005  0.0059  0.0641
   7523SM  H12S 9871   5.742   5.871  14.960 -0.4555  1.7393 -0.0609
   7523SM  H12T 9872   5.591   5.962  14.944  0.9231  0.2021 -0.9901
   7523SM  C13S 9873   5.564   5.747  14.929  0.1221  0.2170 -0.0815
   7523SM  H13S 9874   5.454   5.758  14.935 -0.1587 -1.2115 -1.6981
   7523SM  H13T 9875   5.605   5.657  14.979  0.9582  0.3474 -0.5125
   7523SM  C14S 9876   5.595   5.720  14.781 -0.7559  0.5623 -0.2477
   7523SM  H14S 9877   5.518   5.644  14.757 -2.1597  2.6018 -2.6793
   7523SM  H14T 9878   5.697   5.675  14.781 -1.5240 -1.5812  3.3334
   7523SM  C15S 9879   5.566   5.840  14.689  0.1773 -0.5385  0.4957
   7523SM  H15S 9880   5.607   5.929  14.742 -2.1913  0.8940  0.0753
   7523SM  H15T 9881   5.460   5.869  14.675  0.0316 -0.4044  1.8271
   7523SM  C16S 9882   5.633   5.830  14.550  0.0420  0.0945  0.4644
   7523SM  H16S 9883   5.734   5.789  14.569  0.2046  0.2948  0.0442
   7523SM  H16T 9884   5.631   5.926  14.494 -2.3732  0.0423  0.3752
   7523SM  C17S 9885   5.548   5.736  14.459  0.3556 -0.1598 -0.4926
   7523SM  H17S 9886   5.446   5.779  14.450  0.0186 -1.0473 -1.0180
   7523SM  H17T 9887   5.532   5.639  14.512  0.1483 -0.4964 -1.1680
   7523SM  C18S 9888   5.605   5.720  14.317 -1.3160 -0.4563  0.0045
   7523SM  H18S 9889   5.609   5.812  14.254  0.0372 -0.8263 -0.4582
   7523SM  H18T 9890   5.561   5.636  14.260  1.4577 -2.9614  1.3082
   7523SM  H18U 9891   5.713   5.700  14.331 -1.5113 -0.6298  1.4275
   7523SM   C1F 9892   5.800   5.363  16.200 -0.0894 -0.3231 -0.2814
   7523SM    OF 9893   5.703   5.369  16.276 -0.0859  0.6513  0.9755
   7523SM   C2F 9894   5.864   5.231  16.164 -0.5522  0.1672  0.1575
   7523SM   H2F 9895   5.860   5.170  16.257 -4.2116 -1.6267 -0.9648
   7523SM   H2G 9896   5.970   5.254  16.143 -0.8651  5.0998  2.5524
   7523SM   C3F 9897   5.797   5.154  16.048  0.2073  0.0426 -0.4022
   7523SM   H3F 9898   5.698   5.143  16.098  0.2147  0.7035 -0.2426
   7523SM   H3G 9899   5.849   5.056  16.033  0.0491 -0.0103 -0.6123
   7523SM   C4F 9900   5.811   5.222  15.921  0.1539  0.3961  0.2622
   7523SM   H4F 9901   5.914   5.263  15.923  0.8801 -1.3455  0.1260
   7523SM   H4G 9902   5.732   5.300  15.932  0.1915  0.3978  0.5169
   7523SM   C5F 9903   5.792   5.143  15.792 -0.1308 -0.0994  0.0025
   7523SM   H5F 9904   5.686   5.116  15.773  0.1572  0.6181 -3.0057
   7523SM   H5G 9905   5.846   5.046  15.805  1.6903  0.7320 -0.9617
   7523SM   C6F 9906   5.861   5.210  15.671  0.1817  0.0955 -0.1665
   7523SM   H6F 9907   5.963   5.242  15.699  0.1637  0.9537 -1.0306
   7523SM   H6G 9908   5.808   5.306  15.654 -1.4086 -0.6185  0.5683
   7523SM   C7F 9909   5.858   5.119  15.546 -0.1291  0.2594 -0.4802
   7523SM   H7F 9910   5.754   5.080  15.545 -0.6059  1.4721 -0.0031
   7523SM   H7G 9911   5.930   5.036  15.557 -0.0909  0.4523  0.9690
   7523SM   C8F 9912   5.898   5.198  15.425 -0.0917 -0.6663  0.0613
   7523SM   H8F 9913   6.005   5.225  15.441 -0.0341 -1.1672  0.5786
   7523SM   H8G 9914   5.848   5.297  15.422  2.9646  1.2298  3.3155
   7523SM   C9F 9915   5.870   5.117  15.299 -0.6299  0.1158  1.1847
   7523SM   H9F 9916   5.760   5.105  15.295 -0.4260 -1.8645 -2.4618
   7523SM   H9G 9917   5.917   5.019  15.320  1.1590  0.0480 -2.4267
   7523SM  C10F 9918   5.924   5.178  15.168  0.1460  0.0181  0.4891
   7523SM  H10F 9919   5.916   5.103  15.087  0.2984 -1.0386  1.4167
   7523SM  H10G 9920   6.032   5.201  15.182  0.3866 -1.3457  1.0534
   7523SM  C11F 9921   5.850   5.304  15.116  0.2716  0.1450  1.0204
   7523SM  H11F 9922   5.867   5.377  15.198  0.3845  0.9161  0.3189
   7523SM  H11G 9923   5.741   5.284  15.107  0.5467 -1.7862  1.4933
   7523SM  C12F 9924   5.914   5.360  14.989  0.1863  0.5611 -0.1813
   7523SM  H12F 9925   5.884   5.287  14.910 -1.9100  0.4987  0.6083
   7523SM  H12G 9926   6.023   5.371  15.010  0.7601 -2.1086 -1.3684
   7523SM  C13F 9927   5.858   5.502  14.968 -0.2401  0.3366 -0.1211
   7523SM  H13F 9928   5.829   5.545  15.066 -1.9713  0.6558 -0.7374
   7523SM  H13G 9929   5.753   5.495  14.933 -1.3511  1.8978  2.5536
   7523SM  C14F 9930   5.937   5.607  14.889  0.3964  0.2251  0.4008
   7523SM  H14F 9931   6.029   5.640  14.942  0.8788  0.2396 -0.4404
   7523SM  H14G 9932   5.873   5.698  14.892  2.1565  1.4983  1.4186
   7523SM  C15F 9933   5.962   5.566  14.747  0.2185  0.5625  0.5867
   7523SM  H15F 9934   5.866   5.527  14.708  0.3888  0.3855  0.3467
   7523SM  H15G 9935   6.033   5.481  14.752 -1.3998 -1.0156 -1.4765
   7523SM  C16F 9936   6.006   5.671  14.653  0.2521  0.2322  0.4467
   7523SM  H16F 9937   6.103   5.715  14.685  1.3724 -0.8086 -1.3080
   7523SM  H16G 9938   5.937   5.757  14.666  0.5237  1.1556 -3.0326
   7523SM  C17F 9939   6.006   5.624  14.505 -0.0309 -0.6068  0.3121
   7523SM  H17F 9940   5.917   5.569  14.467  1.4104 -0.0466 -4.5240
   7523SM  H17G 9941   6.082   5.543  14.506 -0.2494 -0.9468 -2.4138
   7523SM  C18F 9942   6.052   5.733  14.405 -0.2102  0.0519  0.2998
   7523SM  H18F 9943   6.151   5.770  14.440  0.5139 -1.3618 -0.1782
   7523SM  H18G 9944   5.977   5.814  14.394  0.0004  0.3021  0.7107
   7523SM  C19F 9945   6.074   5.677  14.265 -0.4774  0.7259  0.8875
   7523SM  H19F 9946   5.985   5.630  14.218  0.5851  1.2294 -1.8637
   7523SM  H19G 9947   6.147   5.593  14.269 -1.2062 -0.4323 -3.8292
   7523SM  C20F 9948   6.143   5.777  14.164 -0.1060  0.2844  0.2850
   7523SM  H20F 9949   6.231   5.823  14.213  2.3605  0.1390 -3.5758
   7523SM  H20G 9950   6.069   5.855  14.135  1.7924  1.4985 -1.6473
   7523SM  C21F 9951   6.194   5.702  14.041 -1.2164 -0.1653 -0.2867
   7523SM  H21F 9952   6.278   5.631  14.056 -1.0932 -0.3485 -1.6600
   7523SM  H21G 9953   6.225   5.779  13.966  0.0441 -0.0276  0.3437
   7523SM  C22F 9954   6.085   5.634  13.952 -0.6354 -0.2125  0.5747
   7523SM  H22F 9955   6.023   5.570  14.018  0.3926 -0.0477  1.7355
   7523SM  H22G 9956   6.136   5.561  13.885 -0.6014  0.9109 -0.6705
   7523SM  C23F 9957   5.989   5.729  13.879  0.1089  0.4206 -0.2740
   7523SM  H23F 9958   5.961   5.812  13.947 -1.4186 -0.7862  0.6288
   7523SM  H23G 9959   5.906   5.662  13.847 -0.6128 -0.6096  3.3212
   7523SM  H23H 9960   6.037   5.775  13.790  0.5357  0.3063 -0.1058
   7623SM     N 9961   6.671   4.562  17.180 -0.5851 -0.0820  0.1440
   7623SM   C15 9962   6.565   4.651  17.129  0.2447  0.2900 -0.3480
   7623SM  H15A 9963   6.586   4.757  17.127 -1.7984  0.7233 -0.7562
   7623SM  H15B 9964   6.480   4.650  17.196 -2.2661 -1.2796 -3.2712
   7623SM  H15C 9965   6.520   4.619  17.036  1.2549 -0.0501 -0.7372
   7623SM   C14 9966   6.718   4.613  17.314  0.0690 -0.2485  0.5278
   7623SM  H14A 9967   6.739   4.717  17.292 -2.0500 -0.1941 -1.6979
   7623SM  H14B 9968   6.800   4.558  17.357  1.7500  0.3752 -1.6464
   7623SM  H14C 9969   6.635   4.623  17.382  0.3329  0.0844  0.8015
   7623SM   C13 9970   6.613   4.428  17.201  0.3018 -0.4825  0.0452
   7623SM  H13A 9971   6.692   4.360  17.228  0.8585  0.8234  1.9304
   7623SM  H13B 9972   6.561   4.390  17.115  1.4150  1.1260 -1.4040
   7623SM  H13C 9973   6.545   4.433  17.285  0.9426  0.8561  0.5061
   7623SM   C12 9974   6.783   4.562  17.083 -0.2120 -0.8285  0.3553
   7623SM  H12A 9975   6.876   4.530  17.129  0.3780 -0.5421 -0.6093
   7623SM  H12B 9976   6.797   4.662  17.043  0.1551 -1.5731 -1.4970
   7623SM   C11 9977   6.764   4.478  16.956 -0.3473  1.2343 -0.0506
   7623SM  H11A 9978   6.751   4.372  16.987 -2.1662  1.0909 -1.1643
   7623SM  H11B 9979   6.860   4.477  16.900  0.1145 -0.8102  0.6932
   7623SM     P 9980   6.682   4.651  16.771 -0.4925  0.2520  0.1569
   7623SM   O13 9981   6.564   4.738  16.776  0.1150 -0.5735 -0.2583
   7623SM   O14 9982   6.813   4.714  16.803  0.5089  0.6692 -0.0835
   7623SM   O11 9983   6.696   4.601  16.623  0.4649  0.7460  0.2470
   7623SM   O12 9984   6.657   4.524  16.869 -0.6621  0.5199 -0.0829
   7623SM   C1S 9985   6.827   4.582  16.562  0.7542  0.6434 -0.0275
   7623SM   H1S 9986   6.878   4.493  16.605 -0.5380  0.2033  0.6155
   7623SM   H1T 9987   6.900   4.662  16.590  2.9926 -1.5260  0.7061
   7623SM    NF 9988   6.965   4.543  16.357 -0.4335  0.6132 -0.4403
   7623SM   HNF 9989   7.014   4.628  16.336  1.5169 -0.0198  1.2024
   7623SM   C2S 9990   6.827   4.563  16.405 -0.6259  0.9932  0.4371
   7623SM   H2S 9991   6.770   4.472  16.378 -0.9677  1.0210  1.0544
   7623SM   C3S 9992   6.755   4.686  16.346  0.0810  0.0340 -0.1974
   7623SM   H3S 9993   6.796   4.777  16.396 -0.4541  0.5289 -0.6547
   7623SM    O3 9994   6.620   4.697  16.392  0.1548 -0.7743 -0.3061
   7623SM   HO3 9995   6.616   4.648  16.474 -2.3188  1.3740  1.0295
   7623SM   C4S 9996   6.774   4.694  16.194  0.3571 -0.2075  0.0832
   7623SM   H4S 9997   6.868   4.746  16.172  0.3266  0.7031  1.8371
   7623SM   C5S 9998   6.683   4.634  16.109  0.1495 -0.8049 -0.0733
   7623SM   H5S 9999   6.603   4.569  16.148  0.5737 -1.1043  0.3059
   7623SM   C6S10000   6.697   4.626  15.962 -0.2354 -0.5683 -0.9748
   7623SM   H6S10001   6.596   4.600  15.923 -0.8362  0.3367 -0.0687
   7623SM   H6T10002   6.773   4.554  15.926  0.3191 -0.2914 -0.3730
   7623SM   C7S10003   6.727   4.763  15.902 -0.1634  0.2029  0.0218
   7623SM   H7S10004   6.812   4.806  15.959 -0.5775  0.1459  0.6887
   7623SM   H7T10005   6.652   4.845  15.903  0.4467  0.7928 -1.1452
   7623SM   C8S10006   6.759   4.743  15.747  0.6036 -0.1978  0.2437
   7623SM   H8S10007   6.680   4.676  15.707 -0.1379  0.5252  0.4668
   7623SM   H8T10008   6.853   4.687  15.728  1.0238 -0.5024  2.9007
   7623SM   C9S10009   6.761   4.865  15.663  0.1797 -0.1962 -0.6013
   7623SM   H9S10010   6.848   4.932  15.675  1.1976 -1.8762  2.1543
   7623SM   H9T10011   6.671   4.927  15.683 -0.9064 -2.3100  1.5454
   7623SM  C10S10012   6.759   4.833  15.511 -0.2397  0.5137  0.4089
   7623SM  H10S10013   6.672   4.766  15.493  0.1719  0.5376 -1.9654
   7623SM  H10T10014   6.846   4.773  15.479 -0.7509 -0.5683  1.0140
   7623SM  C11S10015   6.745   4.958  15.428  0.0978 -0.0201  0.8899
   7623SM  H11S10016   6.838   5.014  15.452  0.9384 -0.8921 -0.2009
   7623SM  H11T10017   6.652   5.012  15.455 -0.6947 -0.0421 -1.5141
   7623SM  C12S10018   6.743   4.923  15.277  0.1036 -0.6484  0.4627
   7623SM  H12S10019   6.676   4.836  15.267  1.8552 -1.9388 -0.6509
   7623SM  H12T10020   6.850   4.904  15.253  0.5241  0.7757  1.1095
   7623SM  C13S10021   6.705   5.032  15.183  1.0727  0.7663 -0.0386
   7623SM  H13S10022   6.782   5.113  15.186  4.0457 -1.8338 -0.1561
   7623SM  H13T10023   6.605   5.076  15.201 -0.1552 -1.8700 -0.0923
   7623SM  C14S10024   6.710   4.977  15.039  0.4407 -0.7806 -0.2029
   7623SM  H14S10025   6.641   4.890  15.032 -2.1354  0.9989  1.1925
   7623SM  H14T10026   6.813   4.949  15.008  1.1190  0.1575  1.1375
   7623SM  C15S10027   6.659   5.084  14.925 -0.3878 -0.9818 -0.4296
   7623SM  H15S10028   6.716   5.175  14.951  1.0936 -1.6460 -1.2227
   7623SM  H15T10029   6.550   5.098  14.940 -0.1940 -0.3686  0.4955
   7623SM  C16S10030   6.691   5.034  14.780  0.0116  0.1447 -0.6265
   7623SM  H16S10031   6.642   4.938  14.756 -0.1974  0.2593 -0.6588
   7623SM  H16T10032   6.801   5.021  14.772 -0.0743 -1.1910  0.1334
   7623SM  C17S10033   6.626   5.122  14.675 -0.3320 -0.3369 -0.4036
   7623SM  H17S10034   6.657   5.228  14.688  1.1079 -0.8119  0.3308
   7623SM  H17T10035   6.516   5.109  14.680 -0.5152  0.7625 -1.3327
   7623SM  C18S10036   6.671   5.083  14.537  0.1314 -0.6323  0.7539
   7623SM  H18S10037   6.656   4.974  14.515  0.8692 -0.7696  0.9238
   7623SM  H18T10038   6.772   5.123  14.515 -0.0124  1.2028  3.0941
   7623SM  H18U10039   6.602   5.126  14.461  0.0851 -1.0589  0.5484
   7623SM   C1F10040   7.020   4.421  16.379 -0.0544 -0.0421  0.2007
   7623SM    OF10041   6.950   4.334  16.425 -0.5031  0.1527 -0.6993
   7623SM   C2F10042   7.162   4.390  16.335  0.8917  0.5930 -0.0160
   7623SM   H2F10043   7.166   4.287  16.294  1.1169  0.9078 -0.8194
   7623SM   H2G10044   7.223   4.388  16.428 -0.4530 -0.1309  0.8752
   7623SM   C3F10045   7.228   4.490  16.235  0.4781 -0.3739 -0.0560
   7623SM   H3F10046   7.334   4.460  16.227  0.5991 -0.0432  0.2854
   7623SM   H3G10047   7.226   4.591  16.281  0.1801 -0.2513 -0.3335
   7623SM   C4F10048   7.152   4.504  16.098 -0.6709  0.2001  0.2232
   7623SM   H4F10049   7.048   4.533  16.122 -0.4006  0.0535  1.6241
   7623SM   H4G10050   7.161   4.409  16.040  1.8353 -0.3092  1.3025
   7623SM   C5F10051   7.211   4.630  16.025  0.3518  0.0517  0.4115
   7623SM   H5F10052   7.311   4.614  15.980 -0.2823 -2.0227 -0.3980
   7623SM   H5G10053   7.227   4.714  16.096  0.0814  0.1013  0.4140
   7623SM   C6F10054   7.127   4.676  15.909 -0.3505 -0.5843 -0.1761
   7623SM   H6F10055   7.045   4.738  15.951 -0.0460 -1.8669  2.5021
   7623SM   H6G10056   7.085   4.582  15.868  3.1016 -2.0812 -0.5694
   7623SM   C7F10057   7.225   4.753  15.810 -0.0405  0.1145 -0.6556
   7623SM   H7F10058   7.303   4.685  15.769 -1.7225 -3.2622  1.2775
   7623SM   H7G10059   7.280   4.825  15.874  1.2020 -1.0059 -0.4255
   7623SM   C8F10060   7.151   4.821  15.692  0.2920  0.0475  0.2929
   7623SM   H8F10061   7.097   4.910  15.731  1.1752  0.7351 -0.0270
   7623SM   H8G10062   7.080   4.741  15.662  0.3481  0.3790 -0.7695
   7623SM   C9F10063   7.250   4.860  15.589  0.4987 -0.4288  0.0947
   7623SM   H9F10064   7.323   4.778  15.571  3.0486  1.2252  2.0846
   7623SM   H9G10065   7.302   4.948  15.633 -0.1913  1.1567 -2.0543
   7623SM  C10F10066   7.176   4.899  15.453 -0.9756  0.0468 -0.4456
   7623SM  H10F10067   7.094   4.974  15.458 -0.4269  0.7954 -2.0536
   7623SM  H10G10068   7.130   4.803  15.420  0.3615 -0.8973  0.3251
   7623SM  C11F10069   7.268   4.953  15.342 -0.0863  0.6841  0.5023
   7623SM  H11F10070   7.311   5.045  15.388  0.6025  0.0160  1.2479
   7623SM  H11G10071   7.205   4.977  15.254 -0.3043  0.9330  0.7243
   7623SM  C12F10072   7.386   4.860  15.297  0.1258  0.0151 -0.0230
   7623SM  H12F10073   7.345   4.757  15.285  1.0527 -0.4711  0.7929
   7623SM  H12G10074   7.471   4.876  15.366  0.6696  1.9293 -1.0845
   7623SM  C13F10075   7.447   4.924  15.173 -0.4624  0.3397  0.2960
   7623SM  H13F10076   7.467   5.033  15.184 -1.1529  0.4810  0.1614
   7623SM  H13G10077   7.381   4.916  15.084 -0.2910 -0.6599  0.2482
   7623SM  C14F10078   7.572   4.851  15.125 -0.2502 -0.5471  0.4732
   7623SM  H14F10079   7.548   4.754  15.078  0.2850 -0.4608  0.0125
   7623SM  H14G10080   7.643   4.834  15.209 -0.3104 -0.5088  0.5326
   7623SM  C15F10081   7.661   4.921  15.020 -0.0314  0.0395  0.3372
   7623SM  H15F10082   7.744   4.857  14.984  2.2028  3.3389 -0.8613
   7623SM  H15G10083   7.716   5.004  15.069 -0.7628  0.2256  0.8688
   7623SM  C16F10084   7.589   4.973  14.895  0.3040 -0.3226 -0.2391
   7623SM  H16F10085   7.665   5.046  14.859  0.3530 -1.4077 -2.4624
   7623SM  H16G10086   7.492   5.023  14.918  0.6519 -0.3296  1.3890
   7623SM  C17F10087   7.559   4.865  14.793 -0.5269  0.3811 -0.1665
   7623SM  H17F10088   7.476   4.805  14.835 -0.0867  1.2480  2.0907
   7623SM  H17G10089   7.638   4.792  14.765  0.1932  1.5066 -1.1844
   7623SM  C18F10090   7.502   4.913  14.656  0.2154 -0.4235  0.0225
   7623SM  H18F10091   7.569   4.996  14.625 -2.0514  2.2861  1.8655
   7623SM  H18G10092   7.409   4.970  14.676  0.5377  1.2162 -2.6527
   7623SM  C19F10093   7.491   4.797  14.554  0.1424  0.2159  0.5273
   7623SM  H19F10094   7.409   4.736  14.597 -0.0678  0.4474  0.4601
   7623SM  H19G10095   7.582   4.734  14.559 -0.1371 -0.5051 -2.1254
   7623SM  C20F10096   7.467   4.836  14.412  0.4017 -0.1912  0.1340
   7623SM  H20F10097   7.376   4.900  14.422 -0.9014 -2.3268  5.3357
   7623SM  H20G10098   7.433   4.747  14.355 -0.7250  0.6046 -0.5073
   7623SM  C21F10099   7.597   4.893  14.358  0.2352 -0.0711  0.3862
   7623SM  H21F10100   7.683   4.830  14.391  0.4596  1.2090  2.4635
   7623SM  H21G10101   7.608   4.993  14.407  0.7027  0.4157 -0.6690
   7623SM  C22F10102   7.592   4.941  14.209 -0.0594 -0.9632 -0.3829
   7623SM  H22F10103   7.563   4.849  14.155  1.0657 -1.9002  0.5396
   7623SM  H22G10104   7.683   4.982  14.161 -1.4215 -0.5410 -2.7471
   7623SM  C23F10105   7.493   5.058  14.179 -0.4011  0.2914 -0.2079
   7623SM  H23F10106   7.405   5.042  14.244 -0.9208 -0.4023 -1.0630
   7623SM  H23G10107   7.461   5.059  14.073 -0.6836 -0.2955 -0.1351
   7623SM  H23H10108   7.540   5.155  14.206  2.7627 -1.3887  0.9190
   7723SM     N10109   1.017   1.383  16.716  0.2102  0.2606 -0.4597
   7723SM   C1510110   1.122   1.273  16.712  0.3480 -0.1612  0.8531
   7723SM  H15A10111   1.212   1.303  16.660  0.8574 -0.9324  1.2702
   7723SM  H15B10112   1.077   1.188  16.662  0.4791  0.6021 -0.6180
   7723SM  H15C10113   1.157   1.255  16.812  1.0805 -0.1702  0.6010
   7723SM   C1410114   0.904   1.327  16.799  0.5814 -0.3384  0.0471
   7723SM  H14A10115   0.953   1.280  16.884 -0.3163 -0.7987  0.3157
   7723SM  H14B10116   0.849   1.255  16.741  3.1431 -0.2252 -2.7863
   7723SM  H14C10117   0.830   1.402  16.820  0.0158 -1.3349  1.7700
   7723SM   C1310118   1.082   1.487  16.792 -0.2234  0.5011  0.5724
   7723SM  H13A10119   1.177   1.510  16.746  0.5707  0.4408  2.1027
   7723SM  H13B10120   1.103   1.467  16.896 -1.2660  2.2892  1.1611
   7723SM  H13C10121   1.011   1.567  16.779 -0.4000  0.0817 -1.2153
   7723SM   C1210122   0.978   1.429  16.572 -0.5489  0.9664  0.2123
   7723SM  H12A10123   0.969   1.339  16.513 -0.2267  0.2540  1.2276
   7723SM  H12B10124   1.058   1.477  16.519 -1.1334  2.2745  0.4596
   7723SM   C1110125   0.851   1.521  16.558 -0.4922 -0.1632  0.0593
   7723SM  H11A10126   0.861   1.565  16.457 -0.1646 -1.5479 -0.5428
   7723SM  H11B10127   0.856   1.599  16.636  0.3152 -2.3471  2.3270
   7723SM     P10128   0.696   1.331  16.471 -0.0309 -0.1216 -0.2565
   7723SM   O1310129   0.787   1.218  16.488 -0.1109 -0.2855 -0.3159
   7723SM   O1410130   0.553   1.287  16.484 -0.4714  0.3184 -0.4343
   7723SM   O1110131   0.723   1.394  16.324  0.0978 -0.5056 -0.4758
   7723SM   O1210132   0.727   1.450  16.574  0.1362  0.4784  0.0700
   7723SM   C1S10133   0.666   1.516  16.267  0.2473 -0.4089 -0.5928
   7723SM   H1S10134   0.721   1.605  16.304 -3.4527  2.4585 -1.3761
   7723SM   H1T10135   0.560   1.536  16.291  0.3562 -1.8334  1.3204
   7723SM    NF10136   0.673   1.652  16.070 -0.6869  0.3934  0.1228
   7723SM   HNF10137   0.595   1.680  16.013  0.3788  0.8710 -1.1504
   7723SM   C2S10138   0.679   1.520  16.109  0.1248  0.4254 -0.0800
   7723SM   H2S10139   0.778   1.482  16.074  0.7940  2.1601 -0.1615
   7723SM   C3S10140   0.563   1.427  16.057 -0.1815 -0.7204 -0.5159
   7723SM   H3S10141   0.464   1.472  16.080 -0.2586 -1.8606  1.6743
   7723SM    O310142   0.569   1.303  16.123  0.4165 -0.1736 -0.4334
   7723SM   HO310143   0.628   1.326  16.195  0.1748  1.9637 -0.8278
   7723SM   C4S10144   0.579   1.403  15.907 -0.1414  0.2580 -0.0752
   7723SM   H4S10145   0.655   1.329  15.878  0.5598  1.0330 -0.2407
   7723SM   C5S10146   0.499   1.457  15.811 -0.4989 -0.4155 -0.4725
   7723SM   H5S10147   0.408   1.514  15.834  0.7398  2.8538 -2.8258
   7723SM   C6S10148   0.519   1.438  15.666 -0.0646  0.0997  0.4990
   7723SM   H6S10149   0.475   1.528  15.619  0.3607 -0.3837 -0.8887
   7723SM   H6T10150   0.463   1.351  15.626  0.1389 -0.0976  0.6385
   7723SM   C7S10151   0.662   1.439  15.609  0.0483 -0.3820  0.1861
   7723SM   H7S10152   0.707   1.348  15.654  0.1295 -0.8829 -0.8792
   7723SM   H7T10153   0.711   1.534  15.642 -3.2994  1.2253  1.0163
   7723SM   C8S10154   0.678   1.428  15.461  0.2942 -0.4444 -0.0066
   7723SM   H8S10155   0.601   1.356  15.426 -0.4673 -0.0849  0.8625
   7723SM   H8T10156   0.778   1.388  15.434  0.9666  0.9806  0.2779
   7723SM   C9S10157   0.640   1.561  15.385  0.4904  0.1213 -0.1460
   7723SM   H9S10158   0.703   1.642  15.428 -0.3035  0.0362  1.2459
   7723SM   H9T10159   0.536   1.587  15.416  0.8021 -0.6588  1.7110
   7723SM  C10S10160   0.655   1.563  15.232  0.9492  0.2385  0.4401
   7723SM  H10S10161   0.758   1.525  15.213  1.0374  0.3964  0.5937
   7723SM  H10T10162   0.665   1.671  15.207  1.2880 -0.1540 -1.2425
   7723SM  C11S10163   0.542   1.486  15.152 -0.2255 -0.0752 -0.2129
   7723SM  H11S10164   0.445   1.537  15.170 -0.9994 -2.0278  1.5094
   7723SM  H11T10165   0.528   1.387  15.199 -1.7777 -0.0618 -0.6009
   7723SM  C12S10166   0.565   1.475  15.001  0.2332 -0.3310 -0.2248
   7723SM  H12S10167   0.564   1.582  14.968  0.9716 -0.6358 -1.2857
   7723SM  H12T10168   0.471   1.436  14.956 -0.0259 -0.7463  0.6661
   7723SM  C13S10169   0.692   1.398  14.962 -0.5616 -0.2064  0.1827
   7723SM  H13S10170   0.697   1.288  14.974  1.6386 -0.2122 -0.4753
   7723SM  H13T10171   0.773   1.462  15.003 -0.3321  0.4370 -1.2100
   7723SM  C14S10172   0.723   1.403  14.811 -0.1750 -0.6835  0.6372
   7723SM  H14S10173   0.731   1.510  14.782 -0.2463 -1.5221 -2.9340
   7723SM  H14T10174   0.637   1.342  14.774 -0.6590 -0.8164  1.9134
   7723SM  C15S10175   0.848   1.318  14.778 -0.0415  0.3272  0.4575
   7723SM  H15S10176   0.825   1.217  14.816 -1.3757  1.2779  2.3628
   7723SM  H15T10177   0.937   1.344  14.840  1.7867 -0.2669 -1.7914
   7723SM  C16S10178   0.880   1.330  14.627  0.5510  0.1485  0.4206
   7723SM  H16S10179   0.901   1.437  14.605 -0.3238  0.4556  1.0122
   7723SM  H16T10180   0.789   1.305  14.569  1.1485 -0.9721 -0.0689
   7723SM  C17S10181   1.007   1.250  14.586 -0.4251  0.1163  1.0776
   7723SM  H17S10182   0.987   1.147  14.623 -0.4002 -0.7239 -1.0836
   7723SM  H17T10183   1.096   1.289  14.640 -0.7217  2.7969 -0.2240
   7723SM  C18S10184   1.038   1.254  14.436  0.7141 -0.0558  0.5504
   7723SM  H18S10185   1.030   1.360  14.404  1.3336  0.1584  1.0579
   7723SM  H18T10186   0.967   1.196  14.374 -0.2275  0.0965  1.4555
   7723SM  H18U10187   1.140   1.217  14.410  0.3610  1.1727 -3.0100
   7723SM   C1F10188   0.761   1.752  16.091 -0.0205  0.2430 -0.1055
   7723SM    OF10189   0.870   1.745  16.153 -0.0467 -0.2278 -0.4047
   7723SM   C2F10190   0.714   1.885  16.056 -0.2411 -0.4113  0.1335
   7723SM   H2F10191   0.740   1.947  16.144 -1.4986  1.0351 -0.4710
   7723SM   H2G10192   0.605   1.889  16.035 -0.4125  0.8703  1.1559
   7723SM   C3F10193   0.804   1.944  15.943  0.3404 -0.4855  0.0787
   7723SM   H3F10194   0.913   1.945  15.963  0.1092  0.0705  1.3883
   7723SM   H3G10195   0.761   2.046  15.940 -2.5109 -1.5967 -0.5081
   7723SM   C4F10196   0.779   1.876  15.810 -0.1610  0.3778  0.3574
   7723SM   H4F10197   0.670   1.865  15.789 -0.2191 -0.7873  1.1540
   7723SM   H4G10198   0.822   1.774  15.819 -2.1585 -0.6347 -0.8359
   7723SM   C5F10199   0.844   1.957  15.691  0.3679  0.4506 -0.6069
   7723SM   H5F10200   0.954   1.951  15.710  0.1062  1.3367  1.4917
   7723SM   H5G10201   0.820   2.064  15.709 -0.4259 -0.0679  1.8588
   7723SM   C6F10202   0.811   1.897  15.558  0.2098 -0.4138  0.4341
   7723SM   H6F10203   0.700   1.896  15.550  0.1395  0.8196  0.9673
   7723SM   H6G10204   0.833   1.789  15.566 -2.6344 -1.1246 -0.0656
   7723SM   C7F10205   0.868   1.977  15.444  0.0267 -0.0832  1.0843
   7723SM   H7F10206   0.978   1.991  15.444  0.2077 -1.2283 -0.5433
   7723SM   H7G10207   0.824   2.079  15.449  0.5571  0.2317 -0.2296
   7723SM   C8F10208   0.835   1.910  15.311 -0.2460  0.1922  0.5400
   7723SM   H8F10209   0.724   1.899  15.307 -0.1439 -0.9043  0.3534
   7723SM   H8G10210   0.875   1.807  15.308 -0.1792  0.2307 -0.2562
   7723SM   C9F10211   0.865   1.990  15.191  0.1801 -0.3129  0.3123
   7723SM   H9F10212   0.975   1.979  15.178  0.0201 -0.0373 -1.6310
   7723SM   H9G10213   0.845   2.098  15.211  0.4597  0.2084 -1.9202
   7723SM  C10F10214   0.786   1.940  15.074 -0.2503 -0.9035  0.0722
   7723SM  H10F10215   0.679   1.929  15.099 -0.6164 -4.0847 -2.2230
   7723SM  H10G10216   0.828   1.838  15.056  3.6811 -0.1176  3.2054
   7723SM  C11F10217   0.779   2.038  14.953  0.0639  0.4970 -0.2793
   7723SM  H11F10218   0.874   2.074  14.909  1.3323 -0.7867  1.2710
   7723SM  H11G10219   0.726   2.127  14.993  1.9450  1.4999  0.0955
   7723SM  C12F10220   0.688   1.982  14.842 -0.2372  0.1704  0.3325
   7723SM  H12F10221   0.612   2.054  14.805 -0.1723  0.8758  1.5022
   7723SM  H12G10222   0.625   1.909  14.897 -1.4106  2.5003  2.2736
   7723SM  C13F10223   0.765   1.919  14.726 -0.2952  0.0609  0.2399
   7723SM  H13F10224   0.858   1.866  14.757 -0.2089 -1.0074 -1.7029
   7723SM  H13G10225   0.792   1.995  14.650  1.6701 -0.6672  0.1565
   7723SM  C14F10226   0.692   1.802  14.662  0.5322 -0.0560  0.2214
   7723SM  H14F10227   0.602   1.831  14.604  2.1145  2.1001 -1.3434
   7723SM  H14G10228   0.644   1.742  14.742 -2.7930  0.1549 -1.4625
   7723SM  C15F10229   0.776   1.711  14.566 -0.3035 -0.0866 -0.3518
   7723SM  H15F10230   0.723   1.615  14.548 -0.8034  0.0033  0.5571
   7723SM  H15G10231   0.876   1.686  14.608 -0.4986  0.0797  0.2281
   7723SM  C16F10232   0.793   1.783  14.433  0.0400  0.6532  0.5963
   7723SM  H16F10233   0.841   1.881  14.453 -1.0219  0.8958  2.1124
   7723SM  H16G10234   0.696   1.800  14.382  2.0387 -3.0611 -5.6281
   7723SM  C17F10235   0.879   1.701  14.326 -0.4415 -0.1830 -0.2391
   7723SM  H17F10236   0.984   1.691  14.359 -0.0212 -3.6930 -2.1492
   7723SM  H17G10237   0.870   1.759  14.231 -2.0268  2.3005  1.2971
   7723SM  C18F10238   0.821   1.560  14.295 -0.3141 -0.3912  0.3622
   7723SM  H18F10239   0.810   1.514  14.395  1.0743  2.1106  1.7706
   7723SM  H18G10240   0.894   1.502  14.235  0.3911 -0.9002  1.6808
   7723SM  C19F10241   0.690   1.576  14.219 -0.2834  0.0490 -0.1347
   7723SM  H19F10242   0.716   1.646  14.137  0.9351 -0.2646 -0.0292
   7723SM  H19G10243   0.605   1.621  14.276  2.3927  1.4772  3.0728
   7723SM  C20F10244   0.649   1.441  14.156 -0.2389  0.0414  0.1500
   7723SM  H20F10245   0.623   1.367  14.235 -1.0896  0.8250  0.6252
   7723SM  H20G10246   0.725   1.399  14.087  0.0387  1.7552 -0.6369
   7723SM  C21F10247   0.525   1.440  14.061 -0.2442  0.2105  0.2164
   7723SM  H21F10248   0.534   1.508  13.973  0.5758  2.2703  1.7938
   7723SM  H21G10249   0.446   1.493  14.119 -2.3357  0.2309 -2.4572
   7723SM  C22F10250   0.468   1.303  14.019 -0.1378  0.8195  0.3227
   7723SM  H22F10251   0.363   1.314  13.984  0.2258 -0.9040 -1.4977
   7723SM  H22G10252   0.448   1.252  14.115 -1.4929  1.0710  0.1836
   7723SM  C23F10253   0.554   1.215  13.926  0.7199 -0.0797 -0.2268
   7723SM  H23F10254   0.646   1.189  13.984  0.0278  0.3833  1.1351
   7723SM  H23G10255   0.587   1.280  13.843  4.3679 -1.5646 -0.1188
   7723SM  H23H10256   0.493   1.128  13.892  0.7715 -0.0943 -0.2820
   7823SM     N10257   0.670   0.138  17.187  0.2814  0.4267 -0.1256
   7823SM   C1510258   0.558   0.210  17.264 -0.6503  0.2769  0.5454
   7823SM  H15A10259   0.550   0.315  17.239 -0.3955  0.1603 -0.0576
   7823SM  H15B10260   0.580   0.208  17.369 -2.1054 -1.4501  0.8543
   7823SM  H15C10261   0.458   0.176  17.244 -0.6540  0.0001  1.0310
   7823SM   C1410262   0.805   0.204  17.216  0.3668  0.5131 -0.5725
   7823SM  H14A10263   0.788   0.311  17.209  1.5010  0.7822  0.5114
   7823SM  H14B10264   0.886   0.173  17.151  0.1220  0.8366 -1.0451
   7823SM  H14C10265   0.837   0.182  17.316 -0.5163 -0.4831 -0.4913
   7823SM   C1310266   0.676   0.001  17.238 -0.1190  0.4291  0.3067
   7823SM  H13A10267   0.713  -0.008  17.339 -0.3313  0.6601  0.4038
   7823SM  H13B10268   0.738  -0.053  17.168  0.4964  0.4995  0.7929
   7823SM  H13C10269   0.579  -0.047  17.238 -0.8377  1.8487 -0.5835
   7823SM   C1210270   0.642   0.141  17.033 -0.4419  0.1860 -0.0693
   7823SM  H12A10271   0.635   0.244  17.001 -1.5967  0.8130  2.0048
   7823SM  H12B10272   0.552   0.082  17.019 -1.5036  1.6126  0.4797
   7823SM   C1110273   0.749   0.074  16.940 -0.2628 -0.5578  0.0730
   7823SM  H11A10274   0.838   0.138  16.958 -0.3680  0.0264 -1.3422
   7823SM  H11B10275   0.701   0.094  16.841 -2.0055  2.1072  1.3379
   7823SM     P10276   0.677  -0.170  16.907 -0.1943 -0.3347  0.1984
   7823SM   O1310277   0.731  -0.304  16.946  0.0798 -0.2570 -0.0855
   7823SM   O1410278   0.541  -0.133  16.957 -0.7557 -0.5279  0.0773
   7823SM   O1110279   0.691  -0.146  16.750  0.1446  0.3348 -0.0762
   7823SM   O1210280   0.776  -0.062  16.964 -0.3209 -0.2061  0.4658
   7823SM   C1S10281   0.819  -0.129  16.692 -0.5050  0.1842 -0.2827
   7823SM   H1S10282   0.881  -0.222  16.690 -1.6412 -0.5821 -1.0064
   7823SM   H1T10283   0.877  -0.052  16.747  0.6942 -0.9399  0.0846
   7823SM    NF10284   0.957  -0.088  16.497 -0.0067 -0.3068 -0.2888
   7823SM   HNF10285   1.024  -0.014  16.501  1.3088 -1.4781  0.7386
   7823SM   C2S10286   0.827  -0.071  16.549  0.5213  0.7467  0.7747
   7823SM   H2S10287   0.758  -0.142  16.498 -0.2205  0.2867  2.3693
   7823SM   C3S10288   0.762   0.065  16.536 -0.2908 -0.6462 -0.4554
   7823SM   H3S10289   0.828   0.139  16.586 -0.3656  0.2670 -1.6764
   7823SM    O310290   0.625   0.074  16.582  0.0109  0.2761 -0.1384
   7823SM   HO310291   0.618  -0.004  16.637 -2.1126  1.4016  1.3085
   7823SM   C4S10292   0.759   0.104  16.390 -0.0470 -0.5541 -0.1190
   7823SM   H4S10293   0.740   0.016  16.326  1.1108 -0.5471 -0.4872
   7823SM   C5S10294   0.813   0.219  16.340 -0.3020 -0.0501  0.5031
   7823SM   H5S10295   0.850   0.295  16.410 -0.2543  0.2461  0.1623
   7823SM   C6S10296   0.830   0.249  16.187 -0.7712  0.2624  0.1297
   7823SM   H6S10297   0.939   0.241  16.169 -0.4816  0.8303  1.5180
   7823SM   H6T10298   0.808   0.354  16.159 -1.5659 -0.2426 -1.2282
   7823SM   C7S10299   0.767   0.148  16.094 -0.2035  0.6296  0.9012
   7823SM   H7S10300   0.657   0.153  16.113 -0.3482 -0.2019  0.3381
   7823SM   H7T10301   0.796   0.044  16.120 -2.3479  0.0723  1.3009
   7823SM   C8S10302   0.787   0.161  15.947 -0.0241  0.1062  0.6473
   7823SM   H8S10303   0.894   0.188  15.937 -0.1721  0.2082 -1.1468
   7823SM   H8T10304   0.742   0.246  15.891  0.2632 -0.4163 -0.4126
   7823SM   C9S10305   0.754   0.035  15.872  0.2098  0.1967  0.6139
   7823SM   H9S10306   0.647   0.010  15.888 -0.2612  0.3941 -1.8182
   7823SM   H9T10307   0.815  -0.051  15.909  0.6288  0.7734  1.2973
   7823SM  C10S10308   0.775   0.052  15.720 -0.5959 -0.1312 -0.5490
   7823SM  H10S10309   0.879   0.084  15.696  0.3026 -0.6051  2.3230
   7823SM  H10T10310   0.706   0.132  15.687  1.8359  1.6728 -1.5914
   7823SM  C11S10311   0.747  -0.084  15.650 -0.1110  0.1994  0.0586
   7823SM  H11S10312   0.640  -0.099  15.676 -0.1798 -0.0516 -0.3511
   7823SM  H11T10313   0.816  -0.153  15.701 -0.4040 -0.0651  0.1013
   7823SM  C12S10314   0.766  -0.086  15.498 -0.0586  0.0554 -0.2371
   7823SM  H12S10315   0.757  -0.186  15.452 -1.7210  0.2887 -0.4899
   7823SM  H12T10316   0.870  -0.047  15.491  0.1860 -0.3170  1.0896
   7823SM  C13S10317   0.676   0.010  15.418  0.5700 -0.3743 -0.4091
   7823SM  H13S10318   0.696   0.111  15.460  1.5636 -0.4054 -0.7756
   7823SM  H13T10319   0.569  -0.014  15.437  0.9040 -2.4607 -0.8764
   7823SM  C14S10320   0.709   0.001  15.262  0.1982  0.6968 -0.0305
   7823SM  H14S10321   0.696  -0.107  15.241  0.2562  0.8589 -0.9221
   7823SM  H14T10322   0.814   0.024  15.233 -0.3368  2.2323 -0.9153
   7823SM  C15S10323   0.613   0.066  15.160  0.2978  0.7849  0.3720
   7823SM  H15S10324   0.574   0.164  15.193 -1.2188  1.2699 -2.5608
   7823SM  H15T10325   0.526  -0.002  15.148  1.8025 -1.3151  0.6655
   7823SM  C16S10326   0.676   0.074  15.019  0.2938  0.0413  0.4713
   7823SM  H16S10327   0.595   0.085  14.944  0.9357  0.2618 -0.2019
   7823SM  H16T10328   0.725  -0.024  14.999 -0.1275 -0.0733  0.0015
   7823SM  C17S10329   0.784   0.189  15.001 -0.1368  0.4859  0.2364
   7823SM  H17S10330   0.858   0.177  15.083  1.6501 -3.8325 -1.7121
   7823SM  H17T10331   0.729   0.285  15.015  2.5409  2.3424 -0.9862
   7823SM  C18S10332   0.855   0.208  14.868  0.5335  0.0951 -0.1997
   7823SM  H18S10333   0.918   0.120  14.844 -1.9138 -1.6602 -0.5003
   7823SM  H18T10334   0.924   0.294  14.858  1.0140 -0.4014 -1.3367
   7823SM  H18U10335   0.778   0.208  14.788  0.1929 -3.0674 -0.0036
   7823SM   C1F10336   1.003  -0.207  16.466  0.3369 -0.5248  0.2887
   7823SM    OF10337   0.929  -0.300  16.480  0.0423 -0.3805 -0.1623
   7823SM   C2F10338   1.143  -0.209  16.424 -0.5477 -0.4548 -0.0291
   7823SM   H2F10339   1.209  -0.233  16.510 -1.5785 -0.1826  0.8587
   7823SM   H2G10340   1.173  -0.121  16.363  1.2943 -0.7891  0.3606
   7823SM   C3F10341   1.177  -0.323  16.324 -0.9408 -0.2831  0.3231
   7823SM   H3F10342   1.123  -0.419  16.345 -0.3187 -0.3329  1.7985
   7823SM   H3G10343   1.285  -0.345  16.323 -0.8354  0.2482 -0.0263
   7823SM   C4F10344   1.150  -0.274  16.181 -0.0691 -0.3289 -0.0149
   7823SM   H4F10345   1.235  -0.206  16.159 -0.1261 -0.2234  0.0928
   7823SM   H4G10346   1.051  -0.225  16.170  0.3525  0.3676 -0.7668
   7823SM   C5F10347   1.132  -0.394  16.090 -0.1070  0.5153 -0.0883
   7823SM   H5F10348   1.046  -0.457  16.120  1.6961 -1.7435  0.6713
   7823SM   H5G10349   1.225  -0.451  16.111  0.7187  1.3301 -1.3660
   7823SM   C6F10350   1.127  -0.356  15.946  0.6538  0.2811  0.1954
   7823SM   H6F10351   1.218  -0.302  15.915 -0.4316  3.7294  2.3831
   7823SM   H6G10352   1.044  -0.281  15.939  1.4944  1.2060 -0.0350
   7823SM   C7F10353   1.084  -0.469  15.855  0.2049 -0.7977  0.2484
   7823SM   H7F10354   0.979  -0.503  15.868  0.4843 -1.4057  1.0299
   7823SM   H7G10355   1.147  -0.558  15.876  2.9773  1.4506  2.2470
   7823SM   C8F10356   1.107  -0.433  15.714  0.3236  0.3750  0.3299
   7823SM   H8F10357   1.212  -0.405  15.691  0.2973  0.4562  0.3087
   7823SM   H8G10358   1.043  -0.345  15.692  0.9162  0.2883 -2.0454
   7823SM   C9F10359   1.062  -0.547  15.619 -0.1656  0.8112  0.3415
   7823SM   H9F10360   0.963  -0.596  15.631  0.4559 -0.8727 -1.0323
   7823SM   H9G10361   1.139  -0.623  15.644  0.4493  1.6084  0.9106
   7823SM  C10F10362   1.080  -0.508  15.470 -0.3290 -0.5247 -0.2619
   7823SM  H10F10363   1.177  -0.456  15.452  0.1782 -0.3201  2.5761
   7823SM  H10G10364   1.003  -0.429  15.463  1.1515  0.9877 -0.2874
   7823SM  C11F10365   1.065  -0.633  15.377 -0.6009  0.2855  0.6285
   7823SM  H11F10366   0.974  -0.691  15.402 -1.6867  1.1927 -0.9884
   7823SM  H11G10367   1.150  -0.697  15.406 -0.6202  0.1419  0.3659
   7823SM  C12F10368   1.068  -0.602  15.222  0.3791 -0.3182  0.3138
   7823SM  H12F10369   0.998  -0.517  15.205  1.6791  0.9848  1.2464
   7823SM  H12G10370   1.027  -0.694  15.176 -0.7415 -0.9121  2.3688
   7823SM  C13F10371   1.198  -0.557  15.148  0.1422 -0.1040 -0.0237
   7823SM  H13F10372   1.281  -0.625  15.178  1.0784  1.0031 -0.0462
   7823SM  H13G10373   1.232  -0.456  15.177 -1.7138  1.0148 -1.5219
   7823SM  C14F10374   1.171  -0.566  15.002  0.3885 -0.1609  0.6052
   7823SM  H14F10375   1.095  -0.487  14.982 -2.0415 -1.2441  4.6074
   7823SM  H14G10376   1.128  -0.665  14.975 -3.0047  1.2926  0.1145
   7823SM  C15F10377   1.306  -0.550  14.933  0.2999  0.5881 -0.0114
   7823SM  H15F10378   1.370  -0.635  14.964  1.6994  0.8215 -2.0388
   7823SM  H15G10379   1.350  -0.450  14.952 -1.2232  1.0551  1.2630
   7823SM  C16F10380   1.293  -0.570  14.783 -0.2790 -0.8692  0.3095
   7823SM  H16F10381   1.188  -0.545  14.757  0.0018 -0.6633 -0.6523
   7823SM  H16G10382   1.302  -0.678  14.759  0.2543 -0.8485  0.3974
   7823SM  C17F10383   1.386  -0.485  14.701  0.3046 -0.0257  0.4187
   7823SM  H17F10384   1.348  -0.380  14.704  0.4766  0.0205  1.7471
   7823SM  H17G10385   1.378  -0.529  14.599 -0.5837  1.0586 -0.0035
   7823SM  C18F10386   1.534  -0.476  14.741 -0.3256 -0.2998  0.3377
   7823SM  H18F10387   1.540  -0.449  14.849 -1.2439  1.4950 -0.0223
   7823SM  H18G10388   1.577  -0.400  14.673 -1.0206  0.6227  0.8939
   7823SM  C19F10389   1.608  -0.610  14.727  0.5074 -0.3650 -0.4827
   7823SM  H19F10390   1.607  -0.638  14.619 -0.2994 -0.0741 -0.5543
   7823SM  H19G10391   1.548  -0.685  14.782  1.6279 -1.0558 -0.1641
   7823SM  C20F10392   1.750  -0.618  14.798  0.2694  0.9492  0.4758
   7823SM  H20F10393   1.743  -0.572  14.898  1.3051 -0.9898  1.4962
   7823SM  H20G10394   1.818  -0.555  14.736  0.5623 -2.2911 -2.8323
   7823SM  C21F10395   1.800  -0.762  14.808  0.1362  0.0286  0.5182
   7823SM  H21F10396   1.801  -0.800  14.703 -0.0927 -0.4843  0.7002
   7823SM  H21G10397   1.728  -0.822  14.869 -1.2906 -0.5269 -1.5815
   7823SM  C22F10398   1.940  -0.769  14.846 -0.0738 -0.2372 -0.7732
   7823SM  H22F10399   1.944  -0.747  14.955  2.6995  0.4366 -0.9384
   7823SM  H22G10400   2.002  -0.699  14.786 -0.3289  0.0816 -0.6680
   7823SM  C23F10401   2.001  -0.902  14.824  0.1585 -0.6993  0.3825
   7823SM  H23F10402   1.991  -0.935  14.719 -0.7258  0.1810  0.1728
   7823SM  H23G10403   1.963  -0.987  14.883 -0.2876 -1.5470 -1.0831
   7823SM  H23H10404   2.108  -0.900  14.856 -0.3730  0.3497  2.2418
   7923SM     N10405   5.985   0.207  16.601 -0.3433 -0.6153 -0.8116
   7923SM   C1510406   5.875   0.194  16.707 -0.0889  0.0427  0.7103
   7923SM  H15A10407   5.808   0.115  16.678  1.4198 -1.6053  1.5613
   7923SM  H15B10408   5.819   0.285  16.725  0.9965  0.8102  0.3652
   7923SM  H15C10409   5.918   0.170  16.803  1.2292  1.1759  0.4465
   7923SM   C1410410   6.051   0.067  16.597  0.5084 -0.1541 -0.3680
   7923SM  H14A10411   6.106   0.060  16.505 -0.4318 -0.2412 -0.9408
   7923SM  H14B10412   5.979  -0.013  16.583 -1.6521  1.5341  0.6570
   7923SM  H14C10413   6.115   0.048  16.682 -1.1948 -1.8598  0.6278
   7923SM   C1310414   5.920   0.227  16.469 -0.1305 -0.1888 -0.3168
   7923SM  H13A10415   5.848   0.308  16.461  0.7799  0.6500 -0.2253
   7923SM  H13B10416   5.879   0.134  16.433 -0.1831 -0.0954 -0.5004
   7923SM  H13C10417   5.995   0.259  16.398 -1.3266  0.8990 -1.1411
   7923SM   C1210418   6.086   0.313  16.636  0.5487  0.4349 -0.0174
   7923SM  H12A10419   6.178   0.308  16.580  0.7970  0.2402  0.4035
   7923SM  H12B10420   6.115   0.298  16.739 -0.5723  1.6004  0.4938
   7923SM   C1110421   6.043   0.467  16.624 -0.0361 -0.2685  0.5329
   7923SM  H11A10422   6.125   0.520  16.677 -0.1019 -1.7302  2.1983
   7923SM  H11B10423   5.956   0.487  16.690  0.6517 -0.9840  1.7172
   7923SM     P10424   5.956   0.662  16.463 -0.1910  0.3665  0.0492
   7923SM   O1310425   5.832   0.693  16.543  0.5198 -0.8626  0.2852
   7923SM   O1410426   6.064   0.763  16.454 -0.2481  0.2456 -0.0542
   7923SM   O1110427   5.910   0.634  16.317  0.5292  0.6692 -0.1583
   7923SM   O1210428   6.019   0.514  16.495  0.0330  0.1624 -0.1286
   7923SM   C1S10429   5.851   0.514  16.267  0.0701  0.3417 -0.9893
   7923SM   H1S10430   5.777   0.470  16.337  1.0981  0.7880  0.4230
   7923SM   H1T10431   5.938   0.445  16.256 -0.5286 -0.4871 -0.6084
   7923SM    NF10432   5.683   0.425  16.097 -0.1164  0.3083 -0.5436
   7923SM   HNF10433   5.716   0.356  16.033 -0.4175 -0.1960 -0.1592
   7923SM   C2S10434   5.771   0.535  16.137 -0.2275  0.0950  1.2500
   7923SM   H2S10435   5.711   0.625  16.163  0.6296  0.9185  0.4519
   7923SM   C3S10436   5.874   0.577  16.027  0.2629 -0.2582 -0.2155
   7923SM   H3S10437   5.938   0.491  15.999 -0.7004 -0.7870 -0.8269
   7923SM    O310438   5.965   0.674  16.071  0.3675 -0.4171 -0.2306
   7923SM   HO310439   5.955   0.676  16.166 -0.3800  0.6250 -0.3140
   7923SM   C4S10440   5.814   0.631  15.905  0.7567  0.1241 -0.5992
   7923SM   H4S10441   5.753   0.722  15.916  0.7062  0.2542 -1.8259
   7923SM   C5S10442   5.813   0.584  15.778 -1.3975  0.0168 -0.0862
   7923SM   H5S10443   5.855   0.484  15.764 -1.1440  0.5204 -3.6576
   7923SM   C6S10444   5.730   0.637  15.672 -0.0809  0.1513 -0.7274
   7923SM   H6S10445   5.702   0.744  15.684 -2.9909 -0.7088  1.3112
   7923SM   H6T10446   5.631   0.588  15.670  0.0381 -0.0970 -0.5431
   7923SM   C7S10447   5.808   0.650  15.540  0.4236  0.3025  0.1060
   7923SM   H7S10448   5.854   0.552  15.516 -1.4135 -0.8470  1.0767
   7923SM   H7T10449   5.894   0.720  15.551  1.4284 -1.1746  2.2332
   7923SM   C8S10450   5.723   0.698  15.424  0.6056 -0.6158  1.0454
   7923SM   H8S10451   5.673   0.796  15.444 -0.5659 -0.9345 -0.1625
   7923SM   H8T10452   5.644   0.624  15.402 -1.0232  0.7945  1.9401
   7923SM   C9S10453   5.815   0.724  15.304  0.0970  0.3686  0.4048
   7923SM   H9S10454   5.891   0.649  15.275 -0.7281 -0.5694  0.6476
   7923SM   H9T10455   5.882   0.806  15.338 -0.1266  0.7169  0.0197
   7923SM  C10S10456   5.748   0.790  15.170  0.6690  0.4571 -0.1752
   7923SM  H10S10457   5.684   0.878  15.195 -0.5266 -1.0006  2.2366
   7923SM  H10T10458   5.661   0.733  15.133  1.4711  0.8152 -2.7685
   7923SM  C11S10459   5.851   0.829  15.062  0.1407 -0.4072  0.0532
   7923SM  H11S10460   5.941   0.878  15.105  0.3390 -1.3160  0.7145
   7923SM  H11T10461   5.798   0.900  14.996 -2.7319 -3.5068 -1.2314
   7923SM  C12S10462   5.897   0.709  14.972 -0.6542 -0.2303  0.3342
   7923SM  H12S10463   5.853   0.617  15.018  1.1222 -2.1010 -1.5081
   7923SM  H12T10464   6.006   0.692  14.981 -1.0064 -2.6395  0.7517
   7923SM  C13S10465   5.854   0.730  14.830  0.3586 -0.0056  0.3068
   7923SM  H13S10466   5.871   0.640  14.768  0.0769 -0.0398  0.2759
   7923SM  H13T10467   5.901   0.825  14.796 -0.7077 -0.7124 -3.6630
   7923SM  C14S10468   5.698   0.736  14.814 -0.3674  0.3834  0.4821
   7923SM  H14S10469   5.665   0.827  14.869  0.4038  2.0011 -1.6228
   7923SM  H14T10470   5.649   0.646  14.858  0.5635 -0.2444  0.2605
   7923SM  C15S10471   5.652   0.749  14.664 -0.3362  0.2642 -0.2303
   7923SM  H15S10472   5.667   0.649  14.617  3.0906  1.5129 -2.1687
   7923SM  H15T10473   5.727   0.812  14.612  0.4484 -1.3641 -1.1481
   7923SM  C16S10474   5.502   0.791  14.648 -0.0982  0.5248 -0.8044
   7923SM  H16S10475   5.489   0.894  14.687  0.3573 -0.1404  1.2554
   7923SM  H16T10476   5.439   0.720  14.707 -0.0568  0.5355 -0.7469
   7923SM  C17S10477   5.460   0.804  14.500  0.0103 -0.2652  0.6862
   7923SM  H17S10478   5.350   0.824  14.503  0.0617 -0.0544  2.0771
   7923SM  H17T10479   5.470   0.704  14.453 -1.4682 -0.8348  1.5273
   7923SM  C18S10480   5.543   0.906  14.419 -0.3102  0.8359  0.2260
   7923SM  H18S10481   5.652   0.883  14.423 -0.7907 -1.8775 -0.4119
   7923SM  H18T10482   5.533   1.011  14.453 -1.2200  0.0024  2.7460
   7923SM  H18U10483   5.529   0.910  14.309 -1.4851 -2.6646  0.1217
   7923SM   C1F10484   5.568   0.407  16.161 -0.4174 -0.2869  0.1847
   7923SM    OF10485   5.536   0.474  16.260 -0.5906  0.3657  0.2282
   7923SM   C2F10486   5.481   0.289  16.111 -0.6967  0.2543  0.4655
   7923SM   H2F10487   5.464   0.214  16.191 -1.3997  0.2897  0.3571
   7923SM   H2G10488   5.533   0.244  16.023 -2.0731 -0.4054 -0.0437
   7923SM   C3F10489   5.345   0.343  16.057 -0.2933  0.2845  0.1917
   7923SM   H3F10490   5.293   0.399  16.138 -0.2824 -2.7302  2.4563
   7923SM   H3G10491   5.287   0.254  16.025 -0.3259  0.3886 -0.0397
   7923SM   C4F10492   5.366   0.431  15.933  0.4681 -0.9495 -0.7315
   7923SM   H4F10493   5.431   0.517  15.959  0.1941 -1.5632  2.3488
   7923SM   H4G10494   5.266   0.469  15.903 -0.0697 -0.3685  1.6289
   7923SM   C5F10495   5.411   0.360  15.808 -0.8162 -0.1637  0.5031
   7923SM   H5F10496   5.365   0.259  15.812  0.1255 -0.7819 -2.3290
   7923SM   H5G10497   5.521   0.353  15.821 -0.9057 -1.3962  0.6793
   7923SM   C6F10498   5.375   0.432  15.674 -0.6033  0.0947 -0.2552
   7923SM   H6F10499   5.457   0.500  15.644  0.9912 -0.9772  1.4176
   7923SM   H6G10500   5.277   0.482  15.688 -1.6644 -2.1105  0.8089
   7923SM   C7F10501   5.344   0.331  15.560  0.1301 -0.2977  0.5398
   7923SM   H7F10502   5.273   0.252  15.594  1.0163 -2.5143 -2.3536
   7923SM   H7G10503   5.432   0.274  15.524 -0.0728 -0.3735  0.1517
   7923SM   C8F10504   5.283   0.401  15.433 -0.6751  0.6870  0.2947
   7923SM   H8F10505   5.371   0.453  15.389  0.0272 -1.2829 -0.7504
   7923SM   H8G10506   5.206   0.473  15.467 -3.3605 -2.1891  0.6939
   7923SM   C9F10507   5.240   0.304  15.323 -0.4350  0.3534  0.5546
   7923SM   H9F10508   5.151   0.241  15.348 -0.2065 -1.0345 -1.8275
   7923SM   H9G10509   5.324   0.234  15.304  1.3012  2.1582  1.2164
   7923SM  C10F10510   5.213   0.379  15.195  0.4078  0.9492 -0.0542
   7923SM  H10F10511   5.294   0.449  15.166 -0.6637  1.5833 -1.6303
   7923SM  H10G10512   5.116   0.431  15.215 -1.2121 -2.1587  0.7117
   7923SM  C11F10513   5.192   0.287  15.076 -0.2181  0.3383 -0.2037
   7923SM  H11F10514   5.127   0.201  15.101 -1.3194  0.5207 -2.2073
   7923SM  H11G10515   5.294   0.255  15.049  0.7056  0.8720  2.3683
   7923SM  C12F10516   5.134   0.370  14.963  0.2106 -1.0135  0.2809
   7923SM  H12F10517   5.223   0.431  14.939  1.5258 -2.2222  1.8293
   7923SM  H12G10518   5.047   0.428  15.000  1.8304  2.8224 -1.3745
   7923SM  C13F10519   5.099   0.277  14.843  0.2917  0.0115 -0.0955
   7923SM  H13F10520   5.018   0.209  14.876 -0.5419  0.6689 -0.7595
   7923SM  H13G10521   5.184   0.217  14.804  1.5976  1.0227  1.0608
   7923SM  C14F10522   5.050   0.360  14.726  0.7569 -0.2284 -0.1869
   7923SM  H14F10523   4.968   0.427  14.760 -0.0892 -1.2600 -0.1631
   7923SM  H14G10524   4.998   0.294  14.653 -1.1530 -2.1021  2.6606
   7923SM  C15F10525   5.167   0.432  14.655 -0.3125  0.9710  0.5086
   7923SM  H15F10526   5.234   0.352  14.614  0.5411  0.7402  2.2827
   7923SM  H15G10527   5.238   0.474  14.729 -0.1859 -1.4559  1.8763
   7923SM  C16F10528   5.123   0.529  14.546  0.3894  0.2834  0.7471
   7923SM  H16F10529   5.219   0.580  14.520 -1.8310  4.8598  0.4834
   7923SM  H16G10530   5.064   0.611  14.592 -2.1113 -1.3656  0.6439
   7923SM  C17F10531   5.052   0.460  14.423 -0.2465  0.0508  0.0987
   7923SM  H17F10532   4.965   0.406  14.466 -0.0041  0.7669  1.5640
   7923SM  H17G10533   5.119   0.383  14.379  1.1026  1.8984 -1.2355
   7923SM  C18F10534   5.014   0.565  14.319 -0.2865 -0.7455  1.4005
   7923SM  H18F10535   5.113   0.609  14.293 -0.1349 -2.4684 -1.3064
   7923SM  H18G10536   4.947   0.645  14.356  0.4627  0.3302  0.5145
   7923SM  C19F10537   4.954   0.505  14.196 -0.1665 -0.0456  0.1045
   7923SM  H19F10538   4.865   0.443  14.220 -0.3960  0.5597  0.8457
   7923SM  H19G10539   5.028   0.444  14.140  1.9653  0.7822  1.9148
   7923SM  C20F10540   4.908   0.611  14.097  0.1295  0.5154 -0.6702
   7923SM  H20F10541   5.004   0.661  14.071 -0.1781  0.9995 -0.9008
   7923SM  H20G10542   4.844   0.690  14.142 -0.1659  0.5157 -1.0810
   7923SM  C21F10543   4.852   0.569  13.963  0.3622 -0.2702  0.5127
   7923SM  H21F10544   4.746   0.547  13.987  0.8880 -3.8950  0.0316
   7923SM  H21G10545   4.889   0.468  13.935  0.5258 -0.1543  0.3029
   7923SM  C22F10546   4.877   0.668  13.851  0.2392  0.3995 -0.0426
   7923SM  H22F10547   4.984   0.663  13.821  1.0526 -1.0328  2.7592
   7923SM  H22G10548   4.873   0.764  13.906  0.0407  0.9169 -0.9379
   7923SM  C23F10549   4.778   0.673  13.729  0.2397  0.1207 -0.2374
   7923SM  H23F10550   4.822   0.730  13.645 -0.7044  0.3169 -0.6181
   7923SM  H23G10551   4.678   0.705  13.767 -0.7516 -1.5293 -1.3134
   7923SM  H23H10552   4.769   0.570  13.689 -1.3433  0.6118 -1.2702
   8023SM     N10553   0.309   6.462  16.747 -0.0397 -0.1814 -0.0355
   8023SM   C1510554   0.309   6.368  16.864  0.8990  0.1037 -1.2380
   8023SM  H15A10555   0.221   6.372  16.925  2.4030  0.4175  1.0418
   8023SM  H15B10556   0.393   6.376  16.932 -0.8079  0.6398  0.8904
   8023SM  H15C10557   0.306   6.265  16.831  1.0164 -0.5572  0.6900
   8023SM   C1410558   0.302   6.605  16.796  0.2173  0.3903 -1.2302
   8023SM  H14A10559   0.398   6.638  16.833  0.0932  0.1544 -0.6841
   8023SM  H14B10560   0.239   6.597  16.883  1.9127  0.6993  0.0924
   8023SM  H14C10561   0.257   6.669  16.722 -0.0445 -0.4285 -1.7988
   8023SM   C1310562   0.436   6.453  16.679 -0.7235 -0.2278  0.3923
   8023SM  H13A10563   0.447   6.351  16.643  1.2967  0.2222 -0.3885
   8023SM  H13B10564   0.516   6.482  16.745 -0.5312 -0.8845  0.4539
   8023SM  H13C10565   0.445   6.524  16.598  1.9677  0.0960  0.9075
   8023SM   C1210566   0.194   6.425  16.656  0.4506  0.4766  0.4005
   8023SM  H12A10567   0.102   6.435  16.711  0.3067 -1.0180  0.4698
   8023SM  H12B10568   0.206   6.320  16.633  2.5295  0.8745 -0.5302
   8023SM   C1110569   0.190   6.517  16.526 -0.0550  0.4667 -0.0302
   8023SM  H11A10570   0.118   6.464  16.460  0.9343 -1.5498  0.4229
   8023SM  H11B10571   0.289   6.513  16.474 -0.9098 -0.3134 -1.6682
   8023SM     P10572   0.184   6.788  16.516 -0.2187  0.1334  0.4014
   8023SM   O1310573   0.067   6.843  16.449  0.1198 -0.2082  0.1224
   8023SM   O1410574   0.228   6.850  16.640 -0.2671 -0.0454 -0.3712
   8023SM   O1110575   0.309   6.766  16.422 -0.0958  0.2217  0.0777
   8023SM   O1210576   0.136   6.646  16.556  0.1889  0.0537 -0.3559
   8023SM   C1S10577   0.293   6.771  16.277 -0.1369  0.3997 -0.3005
   8023SM   H1S10578   0.256   6.871  16.244 -0.7879  0.4153  0.4420
   8023SM   H1T10579   0.225   6.692  16.239  1.2434 -0.2144 -1.5743
   8023SM    NF10580   0.402   6.736  16.054  0.5892 -0.3786 -0.0636
   8023SM   HNF10581   0.385   6.643  16.021 -0.4163  0.2225 -1.3602
   8023SM   C2S10582   0.423   6.741  16.196  0.3078 -0.4935  0.6635
   8023SM   H2S10583   0.503   6.814  16.221  0.9761 -1.1330  0.4476
   8023SM   C3S10584   0.483   6.609  16.251  0.4383  0.8464  0.3896
   8023SM   H3S10585   0.406   6.530  16.237 -1.3938  2.5385  0.4670
   8023SM    O310586   0.507   6.598  16.388  0.2872  0.4463  0.1689
   8023SM   HO310587   0.460   6.670  16.429  0.2144  0.3240  0.3025
   8023SM   C4S10588   0.614   6.576  16.174 -1.2496 -0.0230 -0.5974
   8023SM   H4S10589   0.675   6.664  16.149  0.7913 -1.1753  0.0475
   8023SM   C5S10590   0.641   6.468  16.099 -0.1082 -0.5789  0.8291
   8023SM   H5S10591   0.567   6.387  16.093  0.2272 -0.8047 -0.4956
   8023SM   C6S10592   0.756   6.460  16.003 -0.0765  0.3306 -0.1861
   8023SM   H6S10593   0.835   6.388  16.036 -0.5002 -0.3485 -0.6392
   8023SM   H6T10594   0.811   6.557  16.005  0.0589  0.2490  1.3317
   8023SM   C7S10595   0.709   6.437  15.864  0.0885  0.2268 -0.5752
   8023SM   H7S10596   0.803   6.446  15.805  0.6755  1.4254  0.4998
   8023SM   H7T10597   0.641   6.521  15.842 -0.0842 -0.2197 -1.8104
   8023SM   C8S10598   0.628   6.312  15.846  0.0662  0.8576  0.7894
   8023SM   H8S10599   0.523   6.347  15.855 -0.0499  0.2699  1.8671
   8023SM   H8T10600   0.648   6.240  15.928  1.0182 -1.8325 -1.6312
   8023SM   C9S10601   0.667   6.229  15.718  0.5449 -0.1440  0.1164
   8023SM   H9S10602   0.594   6.145  15.710  0.9299 -0.4186 -0.6487
   8023SM   H9T10603   0.766   6.182  15.735 -0.0634 -1.4407  0.1790
   8023SM  C10S10604   0.658   6.303  15.584  0.3524 -0.9650  0.0398
   8023SM  H10S10605   0.745   6.370  15.569 -0.5058  0.1426 -0.0779
   8023SM  H10T10606   0.564   6.361  15.576  2.0593  1.8913 -0.4648
   8023SM  C11S10607   0.648   6.198  15.464 -0.1222  0.7316 -1.0731
   8023SM  H11S10608   0.559   6.131  15.466 -0.0171  0.6189  0.4035
   8023SM  H11T10609   0.738   6.133  15.471  0.7380  2.0145  0.2169
   8023SM  C12S10610   0.654   6.264  15.323 -0.5168 -0.4783  0.4411
   8023SM  H12S10611   0.761   6.274  15.297 -0.2978  1.7437  1.8928
   8023SM  H12T10612   0.610   6.366  15.335 -0.5954 -0.5136  0.4506
   8023SM  C13S10613   0.574   6.203  15.211  0.3650  0.3883  0.1017
   8023SM  H13S10614   0.476   6.161  15.244  1.9844 -3.0769  0.9302
   8023SM  H13T10615   0.636   6.118  15.175  0.0536  0.8601 -1.6471
   8023SM  C14S10616   0.537   6.292  15.095  0.0832 -0.4915 -1.2748
   8023SM  H14S10617   0.488   6.383  15.134 -0.5368 -0.4425 -2.1298
   8023SM  H14T10618   0.464   6.254  15.020 -0.7176 -1.9145  0.1782
   8023SM  C15S10619   0.661   6.345  15.025  0.1384 -0.8295 -0.1916
   8023SM  H15S10620   0.700   6.266  14.958  2.6952 -1.4265  1.8569
   8023SM  H15T10621   0.744   6.368  15.096  0.1150  2.7665 -1.1386
   8023SM  C16S10622   0.647   6.485  14.950 -0.0043 -0.1793  0.2226
   8023SM  H16S10623   0.626   6.562  15.027  0.7750 -0.7231  0.9959
   8023SM  H16T10624   0.557   6.474  14.886 -1.4597 -1.0590  2.3360
   8023SM  C17S10625   0.775   6.533  14.879 -0.7068  0.4811 -0.6412
   8023SM  H17S10626   0.862   6.546  14.947  0.4744 -2.6452 -1.3916
   8023SM  H17T10627   0.749   6.634  14.842 -1.9601  0.8778  1.1883
   8023SM  C18S10628   0.819   6.436  14.766 -0.0919 -0.1698 -0.4043
   8023SM  H18S10629   0.910   6.470  14.713  0.9222 -0.0926  1.3277
   8023SM  H18T10630   0.733   6.423  14.697  0.2373 -2.2583 -0.4740
   8023SM  H18U10631   0.840   6.331  14.795 -1.4954 -1.0218 -2.3026
   8023SM   C1F10632   0.372   6.845  15.987 -0.4555  0.1632  0.3665
   8023SM    OF10633   0.369   6.952  16.043 -0.2164  0.1354 -0.3076
   8023SM   C2F10634   0.341   6.828  15.845  0.8647  0.4863 -0.5301
   8023SM   H2F10635   0.232   6.825  15.826  0.9720  1.0417 -1.3043
   8023SM   H2G10636   0.383   6.733  15.805 -0.4257 -0.3753  0.1080
   8023SM   C3F10637   0.403   6.937  15.756  0.0112 -0.3532 -0.4801
   8023SM   H3F10638   0.513   6.925  15.746  0.4876 -0.9422  3.6346
   8023SM   H3G10639   0.389   7.036  15.804 -0.2697 -0.8345  0.4513
   8023SM   C4F10640   0.324   6.938  15.623 -0.0719  0.5315  0.3338
   8023SM   H4F10641   0.214   6.947  15.640 -0.3739 -0.4517 -0.9586
   8023SM   H4G10642   0.330   6.841  15.570 -3.4054  0.2645  0.1965
   8023SM   C5F10643   0.374   7.053  15.538 -0.9171 -0.8652 -0.6230
   8023SM   H5F10644   0.485   7.054  15.536 -0.8874 -1.2046  0.2561
   8023SM   H5G10645   0.335   7.147  15.583  1.9544  0.4654 -0.7369
   8023SM   C6F10646   0.318   7.060  15.394  0.0658  0.0428  0.3057
   8023SM   H6F10647   0.207   7.060  15.391  0.0802  0.0941 -0.5897
   8023SM   H6G10648   0.365   6.974  15.342  1.6661  0.7574  0.4960
   8023SM   C7F10649   0.377   7.172  15.313 -0.6743 -0.1804 -0.2429
   8023SM   H7F10650   0.488   7.174  15.313 -0.6767  1.2295 -0.8966
   8023SM   H7G10651   0.345   7.271  15.353 -1.6784 -1.1374  1.4288
   8023SM   C8F10652   0.329   7.154  15.162  0.3340 -0.9847 -0.6032
   8023SM   H8F10653   0.221   7.136  15.148  0.6882 -3.1866 -0.8386
   8023SM   H8G10654   0.376   7.059  15.130  3.0008 -0.5815  1.6477
   8023SM   C9F10655   0.377   7.265  15.067 -0.3622 -0.0525 -0.0097
   8023SM   H9F10656   0.485   7.282  15.086 -0.9133  0.5796  3.0767
   8023SM   H9G10657   0.330   7.361  15.097  0.2955  0.9256 -2.0120
   8023SM  C10F10658   0.335   7.226  14.922  1.0213 -0.3048  0.1749
   8023SM  H10F10659   0.225   7.235  14.918  0.9104 -1.4342  0.3232
   8023SM  H10G10660   0.358   7.123  14.888 -1.5567 -0.3172 -1.8044
   8023SM  C11F10661   0.398   7.321  14.818  0.2246 -0.6734 -0.3449
   8023SM  H11F10662   0.507   7.299  14.817  1.5929  4.6173  0.8174
   8023SM  H11G10663   0.402   7.425  14.856  0.7090 -0.3197 -1.3389
   8023SM  C12F10664   0.339   7.311  14.671 -0.7259 -0.1356 -0.0546
   8023SM  H12F10665   0.342   7.412  14.626 -1.5725  0.4848  1.2151
   8023SM  H12G10666   0.229   7.294  14.679 -0.6196 -0.2121  1.8122
   8023SM  C13F10667   0.418   7.212  14.586  0.6129 -0.4895  0.2453
   8023SM  H13F10668   0.435   7.116  14.639  0.3233 -0.6036  0.1353
   8023SM  H13G10669   0.526   7.240  14.587  0.4224  0.2475  1.4434
   8023SM  C14F10670   0.347   7.185  14.447 -0.1235  0.2437  0.5002
   8023SM  H14F10671   0.431   7.154  14.381  0.2922  0.0511  1.1112
   8023SM  H14G10672   0.298   7.280  14.416 -0.6917 -0.3625 -0.4860
   8023SM  C15F10673   0.256   7.067  14.463  0.0270  0.6649  0.0414
   8023SM  H15F10674   0.184   7.102  14.540  1.0083 -0.9581  1.7831
   8023SM  H15G10675   0.308   6.971  14.484  2.9074  2.3560  1.1583
   8023SM  C16F10676   0.170   7.037  14.334 -0.5653  0.1605  0.8491
   8023SM  H16F10677   0.103   6.949  14.349  1.0080 -1.2854 -0.2501
   8023SM  H16G10678   0.235   7.010  14.248  2.1331  0.1231  2.7752
   8023SM  C17F10679   0.064   7.150  14.299 -0.5772  0.0543 -0.1412
   8023SM  H17F10680   0.112   7.248  14.277  0.0165 -0.1248  0.3424
   8023SM  H17G10681  -0.007   7.163  14.384 -3.2409  2.2899 -2.4657
   8023SM  C18F10682  -0.022   7.107  14.184 -0.2498 -0.5389  0.1290
   8023SM  H18F10683  -0.051   7.000  14.195  0.1637 -0.5259  1.6178
   8023SM  H18G10684   0.041   7.121  14.094 -1.0316  3.4365  0.0371
   8023SM  C19F10685  -0.152   7.189  14.160  0.5564 -0.3350 -0.1061
   8023SM  H19F10686  -0.215   7.177  14.250  0.3856  2.5154  0.2466
   8023SM  H19G10687  -0.215   7.153  14.076 -0.4950  0.5483  0.2812
   8023SM  C20F10688  -0.129   7.343  14.138 -0.1598  0.0114 -0.6916
   8023SM  H20F10689  -0.060   7.369  14.055  1.1142 -0.0112  0.3242
   8023SM  H20G10690  -0.076   7.395  14.220 -2.1095  0.8834  0.0665
   8023SM  C21F10691  -0.263   7.411  14.115 -0.7317  0.3091 -0.0141
   8023SM  H21F10692  -0.317   7.415  14.212 -0.7193  2.0127 -0.0408
   8023SM  H21G10693  -0.323   7.371  14.031 -2.4138  2.8080 -0.1175
   8023SM  C22F10694  -0.252   7.559  14.085 -0.6301 -0.4920  0.2390
   8023SM  H22F10695  -0.146   7.570  14.051 -0.8173 -0.7445 -0.4354
   8023SM  H22G10696  -0.287   7.628  14.165 -0.4232  1.3622 -1.2009
   8023SM  C23F10697  -0.329   7.598  13.953 -0.5233  0.1056  0.7213
   8023SM  H23F10698  -0.291   7.688  13.900  0.6754 -0.4612  0.5770
   8023SM  H23G10699  -0.438   7.611  13.966 -0.5219  1.2563 -0.2442
   8023SM  H23H10700  -0.322   7.512  13.882  0.7925  0.9607 -0.2374
   8123SM     N10701   4.534   4.937  11.723  0.2483 -0.3487  0.0934
   8123SM   C1510702   4.676   4.924  11.769  0.1811 -0.4769  0.4077
   8123SM  H15A10703   4.671   4.834  11.828 -1.6808  0.3417  1.6071
   8123SM  H15B10704   4.685   5.006  11.839 -1.3817 -0.7179  0.9296
   8123SM  H15C10705   4.751   4.918  11.692  1.5282  0.7662  1.5479
   8123SM   C1410706   4.514   5.057  11.640 -0.2121 -0.1034  0.7890
   8123SM  H14A10707   4.524   5.148  11.698 -2.5766  0.3160  0.6185
   8123SM  H14B10708   4.417   5.063  11.594  0.4557  0.4381 -0.6098
   8123SM  H14C10709   4.585   5.059  11.558 -0.8557 -1.9821  0.1279
   8123SM   C1310710   4.495   4.817  11.645 -0.3682  0.0264  0.0852
   8123SM  H13A10711   4.405   4.838  11.588 -0.3336  1.3003  0.4694
   8123SM  H13B10712   4.474   4.733  11.709  1.3468 -2.5925 -2.5235
   8123SM  H13C10713   4.577   4.780  11.584 -1.2322 -0.2488 -0.9503
   8123SM   C1210714   4.440   4.959  11.840 -0.2854 -0.4980 -0.6101
   8123SM  H12A10715   4.446   4.870  11.901  0.4882 -0.0524 -0.0133
   8123SM  H12B10716   4.338   4.967  11.806 -0.3650  0.2171 -0.2247
   8123SM   C1110717   4.476   5.067  11.947  0.6703 -0.5915  0.4096
   8123SM  H11A10718   4.389   5.058  12.015 -1.8482  1.1821 -2.3727
   8123SM  H11B10719   4.464   5.169  11.905  1.7294 -1.6823 -2.8389
   8123SM     P10720   4.633   4.947  12.122 -0.1144 -0.0539 -0.3023
   8123SM   O1310721   4.755   4.878  12.074 -0.1328 -0.5918  0.0819
   8123SM   O1410722   4.637   5.016  12.251 -0.0592  0.0771  0.4910
   8123SM   O1110723   4.513   4.844  12.120 -0.1984 -0.4159  0.1065
   8123SM   O1210724   4.600   5.055  12.020  0.3847 -0.1811  0.1383
   8123SM   C1S10725   4.495   4.703  12.164 -0.0166 -0.6858  0.0449
   8123SM   H1S10726   4.586   4.679  12.223 -0.9209 -0.8500  1.4107
   8123SM   H1T10727   4.480   4.643  12.071  1.0782 -0.0170 -0.5948
   8123SM    NF10728   4.375   4.557  12.328 -0.0683 -0.2132  0.1822
   8123SM   HNF10729   4.287   4.512  12.319  0.8346 -2.5364  2.0025
   8123SM   C2S10730   4.385   4.692  12.269  0.8128  0.2653 -1.2024
   8123SM   H2S10731   4.417   4.763  12.349 -1.0015  0.2236 -0.3908
   8123SM   C3S10732   4.255   4.768  12.231  0.1020  0.4396  0.8079
   8123SM   H3S10733   4.216   4.708  12.147  1.0107  0.2819  0.4845
   8123SM    O310734   4.265   4.900  12.177 -0.2477  0.1705 -0.4939
   8123SM   HO310735   4.357   4.919  12.155 -0.7828  4.4962  0.2482
   8123SM   C4S10736   4.163   4.764  12.349  0.0157  0.6899  0.1679
   8123SM   H4S10737   4.099   4.675  12.348  1.1571 -0.1600 -1.3166
   8123SM   C5S10738   4.168   4.847  12.454 -0.0973 -0.3440  0.1450
   8123SM   H5S10739   4.247   4.923  12.458  1.3839 -1.8347  0.4570
   8123SM   C6S10740   4.080   4.834  12.578 -0.2385  0.7130 -0.0994
   8123SM   H6S10741   3.985   4.782  12.557  1.0853 -1.5956 -0.7384
   8123SM   H6T10742   4.045   4.935  12.610 -3.4081 -0.1697 -0.5127
   8123SM   C7S10743   4.140   4.766  12.703 -0.4236 -0.2281 -0.0491
   8123SM   H7S10744   4.154   4.655  12.702  1.1185 -0.0666  0.0457
   8123SM   H7T10745   4.085   4.788  12.796  1.2920 -1.9786  1.4831
   8123SM   C8S10746   4.271   4.823  12.757  0.2174  0.4136  0.2631
   8123SM   H8S10747   4.257   4.932  12.772 -1.6397  0.3888 -0.9413
   8123SM   H8T10748   4.351   4.811  12.681 -0.4251  0.1194 -0.3754
   8123SM   C9S10749   4.321   4.758  12.887  0.1984 -0.7685 -0.5640
   8123SM   H9S10750   4.329   4.648  12.876 -3.1932 -1.3960  1.5433
   8123SM   H9T10751   4.236   4.787  12.953  0.8162  2.2301 -0.9699
   8123SM  C10S10752   4.443   4.838  12.948 -0.2620  0.3069 -0.3002
   8123SM  H10S10753   4.427   4.945  12.924  0.2345  0.5731  0.5283
   8123SM  H10T10754   4.533   4.808  12.889 -1.0162 -0.1259 -1.2682
   8123SM  C11S10755   4.473   4.819  13.096  0.2693  0.2903  0.0704
   8123SM  H11S10756   4.489   4.712  13.119 -1.1996  0.5948  2.9267
   8123SM  H11T10757   4.390   4.850  13.163  1.9713 -1.0239  3.0103
   8123SM  C12S10758   4.607   4.891  13.124  0.3357  0.5261  0.2504
   8123SM  H12S10759   4.608   4.992  13.077 -0.0033  0.6376  0.4723
   8123SM  H12T10760   4.689   4.843  13.067  0.3108 -1.0107  1.4475
   8123SM  C13S10761   4.624   4.903  13.272 -0.4522 -0.1674  0.1030
   8123SM  H13S10762   4.615   4.799  13.309  0.2176  0.0005  0.7719
   8123SM  H13T10763   4.536   4.965  13.303  1.2862  1.4937  2.0482
   8123SM  C14S10764   4.756   4.958  13.328  0.6450 -0.5178 -0.2510
   8123SM  H14S10765   4.767   5.066  13.306  2.1244 -0.7239 -0.6601
   8123SM  H14T10766   4.844   4.904  13.286  1.2025  0.1091  0.1025
   8123SM  C15S10767   4.743   4.957  13.479  0.4910 -0.6521 -0.3495
   8123SM  H15S10768   4.734   4.849  13.502 -0.0572 -0.7329 -0.9087
   8123SM  H15T10769   4.645   5.001  13.507  0.6672  0.6677 -1.6559
   8123SM  C16S10770   4.847   5.031  13.562  0.0498 -0.2105 -0.3384
   8123SM  H16S10771   4.836   5.140  13.550 -0.2588 -0.3023 -0.9197
   8123SM  H16T10772   4.952   5.014  13.529 -0.3093  0.4824 -1.8951
   8123SM  C17S10773   4.827   4.979  13.703 -0.1364 -0.3032 -0.2593
   8123SM  H17S10774   4.884   4.884  13.708 -0.5996 -0.5198  1.9800
   8123SM  H17T10775   4.720   4.962  13.728 -0.5976  1.4243 -0.8862
   8123SM  C18S10776   4.885   5.078  13.803  0.0896  0.9449  0.3845
   8123SM  H18S10777   4.812   5.160  13.821 -0.5875 -0.0810  2.5461
   8123SM  H18T10778   4.985   5.117  13.772  2.3032 -3.3516  1.4343
   8123SM  H18U10779   4.898   5.019  13.896 -0.7400 -0.0653 -0.1259
   8123SM   C1F10780   4.484   4.485  12.373 -0.0133 -0.7029  0.4210
   8123SM    OF10781   4.602   4.506  12.353  0.2688  0.0388  0.2975
   8123SM   C2F10782   4.444   4.361  12.439 -0.4039  0.4098 -0.9242
   8123SM   H2F10783   4.523   4.283  12.435  0.0843  0.7985  0.4056
   8123SM   H2G10784   4.343   4.320  12.421 -0.0643 -0.7075 -0.3616
   8123SM   C3F10785   4.437   4.398  12.596  0.1894  0.1852  0.0741
   8123SM   H3F10786   4.362   4.479  12.603 -2.3246 -1.8295 -1.9578
   8123SM   H3G10787   4.536   4.438  12.628  0.9392 -0.3081 -1.5374
   8123SM   C4F10788   4.384   4.280  12.683  0.1182  0.6665 -0.2004
   8123SM   H4F10789   4.460   4.199  12.691 -0.5068  0.1617  0.9126
   8123SM   H4G10790   4.298   4.232  12.629 -0.6634  0.4818  1.1702
   8123SM   C5F10791   4.364   4.318  12.826  0.1335 -0.4851  0.0509
   8123SM   H5F10792   4.306   4.236  12.874 -0.8588  0.8696  1.2608
   8123SM   H5G10793   4.300   4.408  12.839  0.0435 -0.7353  1.4346
   8123SM   C6F10794   4.493   4.339  12.902  0.5482  0.7793  0.4358
   8123SM   H6F10795   4.559   4.416  12.857  1.4733  0.4586  1.2049
   8123SM   H6G10796   4.559   4.249  12.904  1.3822  1.3112 -1.2836
   8123SM   C7F10797   4.476   4.367  13.056  0.6016  0.3189  0.0126
   8123SM   H7F10798   4.412   4.284  13.093 -0.3774  0.3359 -1.5344
   8123SM   H7G10799   4.413   4.458  13.064 -0.9416 -0.8960  4.6756
   8123SM   C8F10800   4.603   4.397  13.129  0.1861  0.1084  0.7080
   8123SM   H8F10801   4.667   4.460  13.064  0.3934 -0.7367  0.0778
   8123SM   H8G10802   4.654   4.299  13.133  0.8229  0.2608 -1.7938
   8123SM   C9F10803   4.576   4.462  13.269  0.8942 -0.4213  0.2606
   8123SM   H9F10804   4.505   4.407  13.335  0.7161  0.4348  0.7948
   8123SM   H9G10805   4.528   4.560  13.249 -1.2653 -0.8994  2.4999
   8123SM  C10F10806   4.705   4.487  13.347  0.8448  0.1612 -0.6471
   8123SM  H10F10807   4.782   4.542  13.287  1.8154 -1.0309 -0.5266
   8123SM  H10G10808   4.753   4.388  13.358  1.5508  0.5071 -0.5180
   8123SM  C11F10809   4.684   4.547  13.487  0.4768  0.2450 -0.5684
   8123SM  H11F10810   4.617   4.483  13.548  0.6687  1.6050  1.1698
   8123SM  H11G10811   4.636   4.647  13.477 -0.5114  0.0028  1.3198
   8123SM  C12F10812   4.812   4.562  13.570  0.1779  0.3713  0.6335
   8123SM  H12F10813   4.876   4.639  13.524  0.0939  0.1526  0.1455
   8123SM  H12G10814   4.862   4.463  13.555  0.0558  0.6813 -2.3756
   8123SM  C13F10815   4.781   4.609  13.708  0.1615  0.8766  0.3066
   8123SM  H13F10816   4.709   4.540  13.756 -1.8560  2.2452 -0.6464
   8123SM  H13G10817   4.729   4.706  13.711  0.7869  1.2906 -1.1467
   8123SM  C14F10818   4.909   4.612  13.787  0.3179  0.3834  0.1330
   8123SM  H14F10819   4.973   4.698  13.759  1.4270 -0.3868  0.2388
   8123SM  H14G10820   4.981   4.531  13.761 -0.0106 -0.0003  0.4111
   8123SM  C15F10821   4.879   4.602  13.939 -0.0447 -0.2977 -0.1573
   8123SM  H15F10822   4.838   4.506  13.976 -0.3432  0.7439  2.4079
   8123SM  H15G10823   4.803   4.680  13.962 -2.2572 -2.6888  1.0497
   8123SM  C16F10824   5.013   4.628  14.007 -0.1502 -0.0885  0.0346
   8123SM  H16F10825   5.074   4.703  13.952  1.3668 -0.4578  1.1511
   8123SM  H16G10826   5.063   4.532  13.984  1.6596  1.3270 -2.4159
   8123SM  C17F10827   5.018   4.647  14.157 -0.5153  0.1349  0.8893
   8123SM  H17F10828   5.124   4.650  14.190 -0.6493 -0.7807  1.4260
   8123SM  H17G10829   4.968   4.562  14.208  0.6849 -0.4940  1.0488
   8123SM  C18F10830   4.961   4.780  14.211 -0.3570 -0.6672  0.5690
   8123SM  H18F10831   4.854   4.790  14.185 -0.0261 -1.2562 -1.1852
   8123SM  H18G10832   5.020   4.860  14.161  0.4688 -0.0601  2.4429
   8123SM  C19F10833   4.976   4.795  14.365 -0.2413 -0.0432 -0.0649
   8123SM  H19F10834   4.929   4.710  14.420  1.3779  0.0975  1.6520
   8123SM  H19G10835   4.915   4.884  14.389  0.7782  0.3486  1.1852
   8123SM  C20F10836   5.119   4.824  14.418 -0.6485  0.4586 -0.0636
   8123SM  H20F10837   5.155   4.912  14.361 -1.1090  0.4078 -0.4315
   8123SM  H20G10838   5.178   4.737  14.381  0.0899  0.4146  1.1399
   8123SM  C21F10839   5.123   4.842  14.563 -0.1534  0.0256 -0.5307
   8123SM  H21F10840   5.069   4.759  14.613 -0.6830  1.4093  1.2967
   8123SM  H21G10841   5.066   4.934  14.588 -2.5330 -1.3970 -0.3837
   8123SM  C22F10842   5.268   4.851  14.617 -0.5739 -0.1108  0.2885
   8123SM  H22F10843   5.314   4.934  14.560 -1.6267  1.4329  1.5832
   8123SM  H22G10844   5.329   4.761  14.595  1.6820  1.1711  0.9375
   8123SM  C23F10845   5.285   4.894  14.755 -0.2724 -0.2181 -0.4395
   8123SM  H23F10846   5.260   4.812  14.825  0.6190 -1.0033 -1.0331
   8123SM  H23G10847   5.230   4.988  14.778  1.0402 -0.0025  2.2236
   8123SM  H23H10848   5.389   4.921  14.781 -1.2427  1.0874  2.5276
   8223SM     N10849   5.884   5.215  11.706  0.0921  0.4960  0.2781
   8223SM   C1510850   5.908   5.260  11.851 -0.2137  0.0180  0.3794
   8223SM  H15A10851   5.815   5.272  11.905 -0.4629  1.3460 -0.3079
   8223SM  H15B10852   5.942   5.362  11.849 -0.1774 -0.0042 -0.2754
   8223SM  H15C10853   5.971   5.199  11.915 -1.8696  1.0543  3.2064
   8223SM   C1410854   6.009   5.213  11.632 -0.4288 -0.9702  0.3528
   8223SM  H14A10855   6.075   5.148  11.688  1.1985 -0.1912 -0.5597
   8223SM  H14B10856   6.063   5.304  11.612 -2.8625  0.1117 -1.7924
   8223SM  H14C10857   5.997   5.174  11.532 -0.6519  0.6044 -0.2529
   8223SM   C1310858   5.845   5.067  11.722  0.6364 -0.4561 -0.5705
   8223SM  H13A10859   5.920   5.005  11.770  0.2197 -1.4809 -1.2082
   8223SM  H13B10860   5.825   5.029  11.623 -1.1681  0.4129 -0.5677
   8223SM  H13C10861   5.753   5.071  11.779  1.1416 -2.0871  0.4496
   8223SM   C1210862   5.777   5.292  11.641  0.5354  0.2281 -0.1135
   8223SM  H12A10863   5.680   5.266  11.680  0.2224 -0.0600 -1.0379
   8223SM  H12B10864   5.771   5.264  11.536  0.9101  1.8268 -0.5906
   8223SM   C1110865   5.787   5.443  11.648 -0.1236  0.3644 -0.7453
   8223SM  H11A10866   5.713   5.481  11.575 -1.0429  0.8194  0.3982
   8223SM  H11B10867   5.890   5.475  11.622  0.7621  1.0104  2.9990
   8223SM     P10868   5.773   5.643  11.821 -0.0782 -0.1939  0.1833
   8223SM   O1310869   5.905   5.661  11.869 -0.0307 -0.6895 -0.0353
   8223SM   O1410870   5.732   5.735  11.712 -0.1355 -0.0204 -0.3663
   8223SM   O1110871   5.681   5.658  11.939  0.4459 -0.1458 -0.3612
   8223SM   O1210872   5.754   5.493  11.778 -0.0740  0.0582  0.1109
   8223SM   C1S10873   5.596   5.554  12.002 -0.5910 -0.4533 -0.1542
   8223SM   H1S10874   5.592   5.469  11.930  2.0392  0.4931 -1.5645
   8223SM   H1T10875   5.490   5.584  12.015 -0.5934 -0.0407 -1.0673
   8223SM    NF10876   5.580   5.387  12.187 -0.3974 -0.4567 -0.2711
   8223SM   HNF10877   5.527   5.398  12.271 -0.6887  1.9576 -0.7158
   8223SM   C2S10878   5.650   5.507  12.138 -0.8775  0.4626 -0.2655
   8223SM   H2S10879   5.756   5.479  12.123 -0.7940 -0.0404  1.2049
   8223SM   C3S10880   5.647   5.629  12.236  0.5754 -0.1339  0.1703
   8223SM   H3S10881   5.543   5.664  12.253  1.0442  0.5758  1.8536
   8223SM    O310882   5.720   5.735  12.186 -0.1005  0.3237 -0.2122
   8223SM   HO310883   5.731   5.714  12.093 -0.3311  0.2276 -0.2164
   8223SM   C4S10884   5.701   5.603  12.374 -0.3892 -0.0631 -0.9267
   8223SM   H4S10885   5.618   5.606  12.445 -1.0250 -1.6819 -1.5567
   8223SM   C5S10886   5.829   5.610  12.422 -0.3745  0.3693  0.7565
   8223SM   H5S10887   5.901   5.663  12.358 -0.0358  1.5101  2.0396
   8223SM   C6S10888   5.873   5.601  12.566 -0.5703  0.1936  0.8978
   8223SM   H6S10889   5.920   5.696  12.600  0.1132  0.2196 -0.0752
   8223SM   H6T10890   5.961   5.534  12.567 -0.7795 -0.0954  0.1533
   8223SM   C7S10891   5.771   5.543  12.669 -0.5392 -0.1117  0.3759
   8223SM   H7S10892   5.737   5.448  12.625  0.2115 -0.4640  0.5408
   8223SM   H7T10893   5.684   5.612  12.659 -0.1966  0.0148 -2.5002
   8223SM   C8S10894   5.822   5.516  12.805 -0.3117  0.1609 -0.2464
   8223SM   H8S10895   5.925   5.477  12.794 -0.8831 -1.5273  0.1747
   8223SM   H8T10896   5.758   5.455  12.872 -0.2623  1.8541  1.4304
   8223SM   C9S10897   5.825   5.650  12.885 -0.2708 -0.6035  0.0402
   8223SM   H9S10898   5.723   5.689  12.907 -0.2356 -0.3590 -0.2276
   8223SM   H9T10899   5.866   5.724  12.814 -0.9110 -1.2124 -0.9983
   8223SM  C10S10900   5.912   5.637  13.012 -0.2069  0.6084 -0.3615
   8223SM  H10S10901   6.015   5.606  12.983 -0.3992 -0.5161  0.1077
   8223SM  H10T10902   5.873   5.558  13.079 -2.3447  1.1187 -0.9092
   8223SM  C11S10903   5.929   5.760  13.095 -0.3602 -0.6864  0.0216
   8223SM  H11S10904   5.832   5.801  13.130 -0.4623  0.4653 -1.4948
   8223SM  H11T10905   5.963   5.833  13.019  1.4487  0.2212  1.6230
   8223SM  C12S10906   6.047   5.744  13.197 -0.3082  0.4642 -0.1347
   8223SM  H12S10907   6.133   5.800  13.154  1.1337 -1.0329  0.6937
   8223SM  H12T10908   6.080   5.638  13.190  0.9691  0.9168 -1.6392
   8223SM  C13S10909   6.005   5.788  13.335 -0.3937  0.4177  0.3760
   8223SM  H13S10910   5.926   5.723  13.378 -1.9927  1.4454 -0.8876
   8223SM  H13T10911   5.961   5.888  13.315 -0.3142  0.2507 -0.6529
   8223SM  C14S10912   6.121   5.810  13.435 -0.5938  0.1812  0.3356
   8223SM  H14S10913   6.100   5.881  13.517  3.0191  1.0743  0.6899
   8223SM  H14T10914   6.207   5.850  13.376 -1.0193 -1.4981 -1.5308
   8223SM  C15S10915   6.166   5.676  13.505  0.3648  0.5747  0.4235
   8223SM  H15S10916   6.185   5.597  13.428 -0.8504  0.4199  0.2544
   8223SM  H15T10917   6.073   5.648  13.560  0.3511 -2.6580 -0.9751
   8223SM  C16S10918   6.283   5.693  13.603  0.2207 -0.1381 -0.0463
   8223SM  H16S10919   6.236   5.749  13.686 -1.5148 -0.8786 -0.4859
   8223SM  H16T10920   6.375   5.742  13.563 -0.1762  0.8601  0.2287
   8223SM  C17S10921   6.326   5.558  13.665 -0.1234 -0.5151  0.4763
   8223SM  H17S10922   6.358   5.498  13.577 -2.1959 -2.3212  0.8769
   8223SM  H17T10923   6.236   5.508  13.708  0.1789 -0.8976  0.6787
   8223SM  C18S10924   6.442   5.563  13.755 -0.5016  0.2669  0.5380
   8223SM  H18S10925   6.426   5.610  13.855 -0.1151 -0.6149  1.0248
   8223SM  H18T10926   6.527   5.617  13.707  0.0696  0.3579  1.6146
   8223SM  H18U10927   6.467   5.456  13.773  0.8379  0.4365 -0.1670
   8223SM   C1F10928   5.597   5.268  12.142 -0.0988 -0.3016 -0.3972
   8223SM    OF10929   5.678   5.240  12.055  0.1521 -0.7206 -0.1017
   8223SM   C2F10930   5.498   5.162  12.200 -0.3294  0.0672  0.1714
   8223SM   H2F10931   5.395   5.190  12.169  0.1941 -1.9235 -3.9820
   8223SM   H2G10932   5.515   5.165  12.310  0.8283  1.0227 -0.0057
   8223SM   C3F10933   5.518   5.019  12.139 -0.1567  0.0975  0.0274
   8223SM   H3F10934   5.619   5.012  12.093 -0.2677 -0.3486 -0.1562
   8223SM   H3G10935   5.440   5.001  12.062  0.1643  2.6151 -1.0042
   8223SM   C4F10936   5.487   4.910  12.232 -0.3687  0.1201 -0.7674
   8223SM   H4F10937   5.423   4.837  12.176 -3.0466  0.6500  1.3675
   8223SM   H4G10938   5.417   4.942  12.312  2.0843 -0.3157  1.6702
   8223SM   C5F10939   5.615   4.860  12.306  0.7121 -0.0716  0.6328
   8223SM   H5F10940   5.635   4.939  12.382  0.0382  0.6393  0.0976
   8223SM   H5G10941   5.700   4.850  12.236  0.2333  0.3621 -0.0284
   8223SM   C6F10942   5.588   4.734  12.384 -0.0115 -0.2760 -0.1801
   8223SM   H6F10943   5.578   4.638  12.330 -0.2959 -1.8083  2.4392
   8223SM   H6G10944   5.501   4.747  12.452 -0.1183 -1.6346 -0.0363
   8223SM   C7F10945   5.712   4.711  12.476  0.2332 -0.4167 -0.0128
   8223SM   H7F10946   5.793   4.782  12.449 -1.2084  1.1490 -0.4286
   8223SM   H7G10947   5.750   4.608  12.461 -0.1868 -0.9454  2.2273
   8223SM   C8F10948   5.662   4.738  12.631 -0.6999  0.4513  0.2760
   8223SM   H8F10949   5.629   4.844  12.634  2.2684  1.4627  0.8667
   8223SM   H8G10950   5.751   4.741  12.697 -0.4730 -1.2450  0.0934
   8223SM   C9F10951   5.568   4.630  12.677  0.1388  0.0662  0.7782
   8223SM   H9F10952   5.611   4.529  12.660 -0.6879 -0.0871 -0.5659
   8223SM   H9G10953   5.487   4.624  12.602  0.7144 -1.0543  0.2158
   8223SM  C10F10954   5.499   4.659  12.806 -0.6717  0.3162 -1.2737
   8223SM  H10F10955   5.394   4.623  12.800 -0.4596 -0.7714  0.7756
   8223SM  H10G10956   5.501   4.767  12.833 -0.0932 -0.3618  1.7353
   8223SM  C11F10957   5.564   4.581  12.925 -0.8367 -0.3797 -0.4904
   8223SM  H11F10958   5.674   4.571  12.918 -0.6728 -1.3414  2.0616
   8223SM  H11G10959   5.518   4.480  12.915 -0.0754 -0.5755 -2.2018
   8223SM  C12F10960   5.527   4.636  13.061 -0.0707  0.4348  0.2609
   8223SM  H12F10961   5.524   4.549  13.129  1.7425  0.7736  0.8257
   8223SM  H12G10962   5.427   4.682  13.046 -0.7001 -0.4175  1.6930
   8223SM  C13F10963   5.621   4.749  13.113 -0.1686  0.0690 -0.8608
   8223SM  H13F10964   5.610   4.845  13.058  0.3016  0.0744 -0.9430
   8223SM  H13G10965   5.725   4.713  13.105  0.0560  0.9369 -2.3307
   8223SM  C14F10966   5.585   4.767  13.259  0.2283 -0.0032 -0.2131
   8223SM  H14F10967   5.580   4.666  13.305 -0.4348  0.1559  0.0708
   8223SM  H14G10968   5.485   4.814  13.264  0.4800  0.4877  0.3035
   8223SM  C15F10969   5.687   4.855  13.334  0.0075 -0.0550 -1.0013
   8223SM  H15F10970   5.683   4.955  13.286  0.8255 -0.2608 -1.5158
   8223SM  H15G10971   5.785   4.810  13.310 -0.5545 -1.9141 -0.0389
   8223SM  C16F10972   5.644   4.859  13.489  0.2153 -0.5916  0.4567
   8223SM  H16F10973   5.589   4.767  13.518 -1.9379  0.3449 -0.4055
   8223SM  H16G10974   5.572   4.945  13.490  1.5866  0.5944  0.4207
   8223SM  C17F10975   5.756   4.876  13.595  0.1483  0.1605  0.2280
   8223SM  H17F10976   5.805   4.971  13.566  1.1462 -0.4016  0.0168
   8223SM  H17G10977   5.831   4.794  13.584 -0.4492 -0.4273  0.4576
   8223SM  C18F10978   5.713   4.879  13.736  0.2048 -0.6015  0.1501
   8223SM  H18F10979   5.672   4.780  13.766  2.7193 -2.3465 -1.7648
   8223SM  H18G10980   5.649   4.969  13.748  2.1763  0.8199  0.5976
   8223SM  C19F10981   5.818   4.904  13.840 -0.2903  0.4103  0.7196
   8223SM  H19F10982   5.864   5.005  13.839 -1.2383  0.8552  0.1183
   8223SM  H19G10983   5.893   4.825  13.825 -1.6159 -1.1438  1.8502
   8223SM  C20F10984   5.772   4.868  13.984 -1.0505  0.8379 -0.7383
   8223SM  H20F10985   5.743   4.763  14.007 -1.7170  1.5352  2.0425
   8223SM  H20G10986   5.679   4.928  13.998 -1.5201 -0.1716  0.7525
   8223SM  C21F10987   5.868   4.914  14.095  0.3099  0.1357 -0.1850
   8223SM  H21F10988   5.818   4.903  14.194  0.4880 -2.1187 -0.2988
   8223SM  H21G10989   5.901   5.018  14.078 -1.5893  1.0767  1.4633
   8223SM  C22F10990   5.984   4.816  14.115 -0.6364  0.4670  0.1288
   8223SM  H22F10991   6.065   4.857  14.178  1.4058  0.4634 -2.3390
   8223SM  H22G10992   6.024   4.786  14.016 -1.8582  1.3828 -0.6845
   8223SM  C23F10993   5.933   4.678  14.178 -0.1612  0.0774  0.2356
   8223SM  H23F10994   5.871   4.621  14.105  0.8013  0.4187 -0.8777
   8223SM  H23G10995   5.878   4.691  14.274  3.0307 -0.3571  2.2684
   8223SM  H23H10996   6.025   4.616  14.191 -0.1010 -0.2154 -1.3431
   8323SM     N10997   6.243   5.579  11.428  0.2948  0.4685  0.1684
   8323SM   C1510998   6.165   5.703  11.456 -0.4097 -0.6127  0.1512
   8323SM  H15A10999   6.223   5.789  11.485  0.1997 -0.1523 -2.2259
   8323SM  H15B11000   6.097   5.686  11.538  0.7923 -0.1365  1.2908
   8323SM  H15C11001   6.107   5.734  11.370 -1.5553  1.6573  1.6608
   8323SM   C1411002   6.147   5.464  11.400  0.0271 -0.1785  0.0977
   8323SM  H14A11003   6.199   5.370  11.408  0.0223 -0.2183 -0.2914
   8323SM  H14B11004   6.103   5.469  11.301  1.6367 -3.3685 -0.9379
   8323SM  H14C11005   6.068   5.459  11.474 -2.1358  0.7250 -1.9988
   8323SM   C1311006   6.321   5.611  11.300  0.1812 -0.2610 -0.0538
   8323SM  H13A11007   6.384   5.529  11.270 -0.2168  0.0835 -1.9412
   8323SM  H13B11008   6.376   5.702  11.316 -2.6696  1.2028  2.6400
   8323SM  H13C11009   6.252   5.638  11.222  0.5434  0.0860 -0.2569
   8323SM   C1211010   6.333   5.550  11.545 -0.3759 -0.0133  0.6494
   8323SM  H12A11011   6.391   5.635  11.579 -1.0109 -0.0822  1.9898
   8323SM  H12B11012   6.402   5.473  11.516 -0.1522  0.2169  0.5625
   8323SM   C1111013   6.260   5.511  11.673 -0.1012  0.3088 -0.2051
   8323SM  H11A11014   6.163   5.563  11.687  0.5070  0.8729  2.7136
   8323SM  H11B11015   6.326   5.546  11.755 -0.7036 -0.6384  0.7205
   8323SM     P11016   6.365   5.278  11.700 -0.2754  0.5085  0.3759
   8323SM   O1311017   6.321   5.137  11.675  0.7931  0.7852  0.0273
   8323SM   O1411018   6.486   5.324  11.620  0.3250 -0.2887 -0.7414
   8323SM   O1111019   6.395   5.299  11.858  0.2930  0.2075  0.8065
   8323SM   O1211020   6.238   5.373  11.668  0.5343  0.2376 -0.4955
   8323SM   C1S11021   6.303   5.264  11.955  0.2647 -0.3026 -0.0181
   8323SM   H1S11022   6.200   5.240  11.919  0.0460 -0.6086  0.7901
   8323SM   H1T11023   6.295   5.340  12.036 -1.7187 -1.3416  0.8521
   8323SM    NF11024   6.255   5.120  12.145  0.4367  0.2044  0.0634
   8323SM   HNF11025   6.283   5.148  12.236 -1.4663 -1.1585  1.1437
   8323SM   C2S11026   6.345   5.139  12.037 -0.1804 -0.0562  0.2259
   8323SM   H2S11027   6.335   5.056  11.964  0.1586 -0.7844  0.9868
   8323SM   C3S11028   6.493   5.150  12.093 -0.4399 -0.2741  0.3446
   8323SM   H3S11029   6.497   5.227  12.173  0.4352  0.1787 -0.1178
   8323SM    O311030   6.585   5.178  11.984  0.5563 -0.1737  0.3713
   8323SM   HO311031   6.520   5.205  11.919 -1.0437  1.1900  2.4352
   8323SM   C4S11032   6.539   5.015  12.143  0.3446  0.4872  0.0130
   8323SM   H4S11033   6.563   4.937  12.070 -2.5954 -0.8684  0.3221
   8323SM   C5S11034   6.579   4.991  12.269  0.0170  0.6434  0.4137
   8323SM   H5S11035   6.562   5.067  12.347 -1.1748  0.7574  0.0586
   8323SM   C6S11036   6.663   4.871  12.325  0.5429 -0.0725 -0.8833
   8323SM   H6S11037   6.710   4.821  12.238  0.5612 -1.1447 -0.2814
   8323SM   H6T11038   6.598   4.791  12.368  1.1772  0.4640  1.1658
   8323SM   C7S11039   6.773   4.914  12.423 -0.0129 -0.2523  0.2488
   8323SM   H7S11040   6.728   4.962  12.513  1.6146  1.0226  0.4394
   8323SM   H7T11041   6.849   4.974  12.369  0.1394 -0.4809  0.2105
   8323SM   C8S11042   6.857   4.789  12.466  0.6765 -0.1161  0.8276
   8323SM   H8S11043   6.895   4.743  12.372  2.0052 -0.3085  1.4401
   8323SM   H8T11044   6.798   4.715  12.525  0.8058  0.3571  1.5692
   8323SM   C9S11045   6.976   4.824  12.560  0.3733 -0.2846 -0.5078
   8323SM   H9S11046   7.033   4.910  12.521  2.4986 -1.2942  0.2494
   8323SM   H9T11047   7.049   4.740  12.562 -1.0620 -1.6068 -1.0580
   8323SM  C10S11048   6.935   4.844  12.704  0.1046  0.2166 -0.3665
   8323SM  H10S11049   6.850   4.778  12.730  0.6999  0.3836  2.2664
   8323SM  H10T11050   6.900   4.947  12.727 -2.0810 -0.2502 -1.4149
   8323SM  C11S11051   7.041   4.797  12.801 -0.0474 -0.2549 -0.4845
   8323SM  H11S11052   7.139   4.846  12.780  1.7667 -2.7018  1.6458
   8323SM  H11T11053   7.068   4.690  12.792  4.7509  0.8672 -2.5269
   8323SM  C12S11054   7.003   4.832  12.949 -0.5202  0.0490  0.5250
   8323SM  H12S11055   6.910   4.778  12.977  0.6694 -3.1946 -1.2556
   8323SM  H12T11056   6.973   4.939  12.949  1.0153  0.5917  3.6211
   8323SM  C13S11057   7.101   4.802  13.057  0.0196  1.1092 -0.5461
   8323SM  H13S11058   7.193   4.864  13.043  0.2026  0.6851 -1.2838
   8323SM  H13T11059   7.133   4.696  13.059 -1.5113  0.6199  2.0285
   8323SM  C14S11060   7.048   4.835  13.201  0.0849 -0.0903  0.2239
   8323SM  H14S11061   6.967   4.768  13.236 -1.8613  1.6670 -0.6339
   8323SM  H14T11062   6.986   4.926  13.188 -1.4842 -1.1115  0.2830
   8323SM  C15S11063   7.155   4.879  13.303  0.4791  0.3244  0.5514
   8323SM  H15S11064   7.211   4.958  13.249 -0.5517  1.6046  1.3217
   8323SM  H15T11065   7.233   4.801  13.319 -0.0210 -0.2873  0.1008
   8323SM  C16S11066   7.096   4.948  13.430 -0.3962  0.3754 -0.0771
   8323SM  H16S11067   7.051   4.877  13.503  1.1393 -0.1649  0.3828
   8323SM  H16T11068   7.020   5.019  13.390 -0.0111  1.7788  1.6105
   8323SM  C17S11069   7.193   5.034  13.507  0.1883  0.5394  0.4215
   8323SM  H17S11070   7.255   5.103  13.446  3.1551 -1.8159  0.5793
   8323SM  H17T11071   7.259   4.970  13.569 -1.3700 -1.9420 -0.3575
   8323SM  C18S11072   7.119   5.130  13.609  0.1460 -0.3097  0.1119
   8323SM  H18S11073   7.074   5.072  13.691  0.1330 -1.5738 -0.7536
   8323SM  H18T11074   7.039   5.172  13.544  0.9852 -1.2261 -1.6142
   8323SM  H18U11075   7.181   5.216  13.643 -0.3538 -0.7135  2.1121
   8323SM   C1F11076   6.125   5.096  12.137  0.2743  0.0747  0.4810
   8323SM    OF11077   6.070   5.059  12.028 -0.5275 -0.1503  0.3160
   8323SM   C2F11078   6.061   5.101  12.267  0.5912 -0.7721 -0.2079
   8323SM   H2F11079   6.134   5.147  12.337  0.5052  0.1122 -0.6763
   8323SM   H2G11080   6.024   5.001  12.298 -0.3260 -0.2186  0.5473
   8323SM   C3F11081   5.932   5.189  12.258  0.3726  0.0654  0.8662
   8323SM   H3F11082   5.840   5.133  12.232 -0.0196  0.9053  0.4053
   8323SM   H3G11083   5.944   5.283  12.200  1.9434  0.0273  1.0803
   8323SM   C4F11084   5.889   5.245  12.395  0.1281  0.2179 -0.3477
   8323SM   H4F11085   5.801   5.311  12.382  0.6634  0.7297 -1.5354
   8323SM   H4G11086   5.966   5.310  12.441 -0.7405  1.0924 -0.1000
   8323SM   C5F11087   5.846   5.127  12.496 -0.5885 -0.0796 -0.0921
   8323SM   H5F11088   5.936   5.063  12.508 -0.5641 -0.2345 -1.0409
   8323SM   H5G11089   5.760   5.064  12.465  0.1045  0.3468 -3.2219
   8323SM   C6F11090   5.836   5.175  12.645 -0.3483 -0.3720 -0.2325
   8323SM   H6F11091   5.743   5.234  12.658 -1.7757 -2.6085  0.4973
   8323SM   H6G11092   5.921   5.242  12.666 -1.8854  1.4132  0.6005
   8323SM   C7F11093   5.844   5.059  12.748 -0.2764  0.2583  0.0656
   8323SM   H7F11094   5.925   4.986  12.728 -1.8760 -1.4409 -0.4883
   8323SM   H7G11095   5.746   5.008  12.758 -1.4611  2.5932  1.1779
   8323SM   C8F11096   5.876   5.130  12.879 -0.0598  0.0467  0.8064
   8323SM   H8F11097   5.779   5.176  12.908 -1.2904 -1.4844 -0.7029
   8323SM   H8G11098   5.952   5.212  12.880 -1.2432  1.1872  1.7063
   8323SM   C9F11099   5.900   5.041  13.006 -0.1599  0.0229  0.5057
   8323SM   H9F11100   5.993   4.989  12.975  0.5719  1.3757  0.3372
   8323SM   H9G11101   5.820   4.964  13.009  2.1146 -2.4687  2.3313
   8323SM  C10F11102   5.915   5.116  13.138 -0.2345 -0.5207 -0.0261
   8323SM  H10F11103   5.927   5.045  13.222  0.3469  2.1926  2.3189
   8323SM  H10G11104   5.819   5.167  13.162 -1.0078 -1.0579 -1.7346
   8323SM  C11F11105   6.034   5.205  13.133  0.2842 -0.5756  0.5420
   8323SM  H11F11106   6.022   5.283  13.055 -0.3449 -0.1195  1.0742
   8323SM  H11G11107   6.129   5.161  13.097 -0.3237 -1.0273 -0.5392
   8323SM  C12F11108   6.067   5.257  13.275  0.3198  0.4664 -0.6562
   8323SM  H12F11109   5.977   5.310  13.312 -1.7022 -1.7998 -1.9756
   8323SM  H12G11110   6.151   5.329  13.269 -0.3017  1.4112  1.3276
   8323SM  C13F11111   6.115   5.156  13.374 -0.2690 -0.0253 -0.1578
   8323SM  H13F11112   6.186   5.085  13.325 -1.2108  0.3811 -2.1907
   8323SM  H13G11113   6.026   5.100  13.409  0.2001  1.0627  3.1721
   8323SM  C14F11114   6.183   5.207  13.502  0.1836  0.0543 -0.3687
   8323SM  H14F11115   6.103   5.272  13.544 -1.1004 -1.3594 -0.5040
   8323SM  H14G11116   6.261   5.280  13.473 -0.5385  0.3209 -1.7654
   8323SM  C15F11117   6.210   5.101  13.608  0.4604 -0.5989 -0.0083
   8323SM  H15F11118   6.315   5.066  13.611  0.4934 -0.4857  0.1961
   8323SM  H15G11119   6.156   5.007  13.586 -1.4118  0.6594 -1.1510
   8323SM  C16F11120   6.170   5.145  13.743 -0.6089 -0.3147 -0.7865
   8323SM  H16F11121   6.061   5.162  13.748 -0.7016 -1.1313  2.3374
   8323SM  H16G11122   6.224   5.238  13.771 -1.9967  0.4389 -0.5471
   8323SM  C17F11123   6.199   5.025  13.846  0.8522 -0.0718  0.6060
   8323SM  H17F11124   6.164   4.930  13.799  1.1361  0.2932 -0.3762
   8323SM  H17G11125   6.126   5.048  13.926  0.0238  1.7238 -0.6037
   8323SM  C18F11126   6.341   5.017  13.901  0.0765 -0.1040  0.1579
   8323SM  H18F11127   6.381   5.112  13.942  0.9963 -1.4011  2.4048
   8323SM  H18G11128   6.413   4.984  13.823  0.5065  1.1639 -0.0158
   8323SM  C19F11129   6.358   4.919  14.030  0.7014 -0.0569  0.6347
   8323SM  H19F11130   6.276   4.946  14.100 -0.9760 -2.4783 -0.2534
   8323SM  H19G11131   6.462   4.940  14.063  1.2561  0.9060 -1.5427
   8323SM  C20F11132   6.350   4.770  13.993  0.1974  0.1029  0.8928
   8323SM  H20F11133   6.409   4.750  13.901 -0.1586 -0.3327  0.7581
   8323SM  H20G11134   6.246   4.745  13.963  1.0702 -2.5730 -0.1547
   8323SM  C21F11135   6.382   4.678  14.110 -0.4500 -0.1697 -0.1000
   8323SM  H21F11136   6.317   4.694  14.199  0.2085 -0.8861  0.5342
   8323SM  H21G11137   6.481   4.705  14.153 -1.0847 -0.6287  1.7762
   8323SM  C22F11138   6.392   4.526  14.087  0.5691 -0.3369 -0.5629
   8323SM  H22F11139   6.443   4.478  14.173 -1.4141 -0.4012  0.6397
   8323SM  H22G11140   6.459   4.505  14.000  2.6069  0.6551  0.6891
   8323SM  C23F11141   6.254   4.469  14.069  1.0176  0.2972  0.0271
   8323SM  H23F11142   6.272   4.363  14.041  0.7428  0.6532 -1.5636
   8323SM  H23G11143   6.188   4.519  13.995  0.4988 -0.9342 -0.3681
   8323SM  H23H11144   6.199   4.458  14.165 -0.1546 -2.3612 -0.8501
   8423SM     N11145   4.606   2.340  11.233 -0.3188 -0.0909  0.4112
   8423SM   C1511146   4.502   2.308  11.338  0.4921 -0.7286 -0.4904
   8423SM  H15A11147   4.403   2.311  11.294 -0.0451 -0.4090  0.6819
   8423SM  H15B11148   4.489   2.390  11.407 -1.1855  0.2412 -1.8654
   8423SM  H15C11149   4.515   2.212  11.386 -0.1365 -0.4509  0.2577
   8423SM   C1411150   4.611   2.228  11.128  0.0091  0.8822 -1.0764
   8423SM  H14A11151   4.681   2.155  11.165  0.9996  2.2476 -0.1124
   8423SM  H14B11152   4.649   2.250  11.029  0.1454 -1.8879 -1.7134
   8423SM  H14C11153   4.512   2.186  11.117 -0.0219  0.5417  0.2763
   8423SM   C1311154   4.557   2.465  11.165  0.2266 -0.2405 -0.0588
   8423SM  H13A11155   4.457   2.452  11.126  0.4720 -0.9779 -0.4543
   8423SM  H13B11156   4.628   2.488  11.087  0.0365  1.7146  0.2920
   8423SM  H13C11157   4.556   2.559  11.218  0.2341  1.5289 -2.9546
   8423SM   C1211158   4.753   2.355  11.278 -0.3431  0.2267  0.3807
   8423SM  H12A11159   4.769   2.449  11.329  0.3330 -0.3557  1.2790
   8423SM  H12B11160   4.818   2.348  11.193  1.8246  0.9239  1.8929
   8423SM   C1111161   4.807   2.248  11.380  0.0678  0.1928  0.2743
   8423SM  H11A11162   4.740   2.224  11.465 -0.4673 -0.6247 -0.3559
   8423SM  H11B11163   4.912   2.275  11.404  0.3648 -0.7017  0.0394
   8423SM     P11164   4.905   2.009  11.325 -0.0834 -0.2591  0.3808
   8423SM   O1311165   4.839   1.894  11.254 -0.2407 -0.4646  0.0735
   8423SM   O1411166   5.039   2.051  11.277 -0.0726 -0.0890  0.0837
   8423SM   O1111167   4.911   2.001  11.482 -0.2608  0.5537  0.1242
   8423SM   O1211168   4.817   2.131  11.305  0.2135 -0.2999  0.4510
   8423SM   C1S11169   4.785   1.966  11.549 -0.0536  0.3575  0.6537
   8423SM   H1S11170   4.743   1.866  11.526 -0.2982  0.9455 -1.6498
   8423SM   H1T11171   4.703   2.030  11.510  0.7166  0.0757 -1.6029
   8423SM    NF11172   4.670   1.944  11.752 -0.2320  0.1437  0.4748
   8423SM   HNF11173   4.601   2.015  11.764  2.2083  2.6012  1.1699
   8423SM   C2S11174   4.794   1.989  11.691  0.2029 -0.1470 -0.7936
   8423SM   H2S11175   4.880   1.925  11.720  0.8219  0.1152 -1.9798
   8423SM   C3S11176   4.835   2.128  11.730 -0.8377 -0.7921  0.1666
   8423SM   H3S11177   4.760   2.199  11.689  1.6740  1.5180 -0.7612
   8423SM    O311178   4.954   2.177  11.667 -0.4194  0.3890 -0.6392
   8423SM   HO311179   4.959   2.122  11.588 -2.0225 -1.8707  0.7005
   8423SM   C4S11180   4.844   2.131  11.878 -0.1277  0.0900  0.6869
   8423SM   H4S11181   4.927   2.070  11.916 -0.8715 -1.1996  0.2679
   8423SM   C5S11182   4.761   2.193  11.964 -0.4858 -0.4054  0.3149
   8423SM   H5S11183   4.672   2.241  11.921  0.2103 -0.7955 -1.6769
   8423SM   C6S11184   4.772   2.202  12.114 -0.7759 -0.1297  0.6964
   8423SM   H6S11185   4.673   2.190  12.163 -1.0235 -4.4945 -0.4852
   8423SM   H6T11186   4.805   2.305  12.139 -0.7413  0.8835 -2.9398
   8423SM   C7S11187   4.865   2.093  12.173 -0.1074 -0.0314  1.1252
   8423SM   H7S11188   4.967   2.104  12.130 -0.8733  0.5569 -0.6642
   8423SM   H7T11189   4.821   1.994  12.148  0.2748  0.3403 -1.2787
   8423SM   C8S11190   4.881   2.103  12.324  0.0036  0.0844 -0.4849
   8423SM   H8S11191   4.787   2.128  12.377  1.0272  1.5729  0.7173
   8423SM   H8T11192   4.946   2.191  12.343  2.1062 -1.6232  0.8227
   8423SM   C9S11193   4.948   1.977  12.393 -0.5726  0.1965 -0.4434
   8423SM   H9S11194   5.046   1.975  12.341 -0.0722 -1.7424  0.5134
   8423SM   H9T11195   4.903   1.876  12.382 -0.5232 -0.0164  1.0692
   8423SM  C10S11196   4.979   1.991  12.545 -0.3786  0.8605 -0.4040
   8423SM  H10S11197   5.042   2.080  12.567  1.1092 -0.2871  0.1936
   8423SM  H10T11198   5.051   1.922  12.594  0.4082  1.9534  0.0198
   8423SM  C11S11199   4.844   1.998  12.634 -0.4452 -0.4395  0.1646
   8423SM  H11S11200   4.783   1.909  12.607 -0.5372  0.1700 -1.7924
   8423SM  H11T11201   4.776   2.081  12.604 -0.0885 -0.0512  0.4252
   8423SM  C12S11202   4.860   2.004  12.786 -0.3726 -0.2860 -0.5843
   8423SM  H12S11203   4.755   2.026  12.816 -0.3151  2.8097 -2.2596
   8423SM  H12T11204   4.917   2.095  12.813 -0.7961 -0.1013 -0.2811
   8423SM  C13S11205   4.904   1.876  12.855  0.3506 -0.0469  1.0285
   8423SM  H13S11206   5.008   1.856  12.823 -1.0361 -1.6067 -3.2870
   8423SM  H13T11207   4.842   1.794  12.813 -0.2100  0.9508 -0.1940
   8423SM  C14S11208   4.906   1.880  13.004 -0.1877  0.1615  0.6570
   8423SM  H14S11209   4.941   1.779  13.035 -3.2020 -1.8608 -1.7982
   8423SM  H14T11210   4.803   1.892  13.044  0.2233  3.4241  0.9388
   8423SM  C15S11211   4.996   1.981  13.065  0.1904  0.0264 -0.6291
   8423SM  H15S11212   4.954   2.083  13.050 -0.7618  0.1569  2.1827
   8423SM  H15T11213   5.087   1.968  13.004 -1.5179 -2.7245 -2.8443
   8423SM  C16S11214   5.030   1.947  13.209  0.0923  0.1825 -0.1582
   8423SM  H16S11215   5.108   2.019  13.243 -0.4912  0.1570  1.3067
   8423SM  H16T11216   5.065   1.844  13.233 -2.4201 -0.6559  0.1560
   8423SM  C17S11217   4.908   1.976  13.296 -0.3058 -0.0854 -0.6006
   8423SM  H17S11218   4.826   1.903  13.279 -1.7223  1.4235 -0.4538
   8423SM  H17T11219   4.871   2.075  13.264  0.2497 -0.0565 -1.1618
   8423SM  C18S11220   4.938   1.976  13.446  0.1978  0.1219  0.2194
   8423SM  H18S11221   4.844   1.999  13.500  0.0902 -0.4840  0.2929
   8423SM  H18T11222   5.009   2.061  13.459  1.5127 -0.9699  0.4881
   8423SM  H18U11223   4.963   1.880  13.496  0.3416  0.9724  1.8461
   8423SM   C1F11224   4.644   1.814  11.766  0.3332  0.5054  0.0453
   8423SM    OF11225   4.720   1.727  11.726  0.0719  0.0360  0.1028
   8423SM   C2F11226   4.511   1.770  11.825  0.3751  0.2162 -0.3297
   8423SM   H2F11227   4.494   1.666  11.792  0.0285  0.3295 -0.5075
   8423SM   H2G11228   4.434   1.836  11.780  0.5008  0.9060  0.4353
   8423SM   C3F11229   4.512   1.793  11.982 -0.0183 -0.3413  0.0985
   8423SM   H3F11230   4.405   1.796  12.012  0.0143 -1.1981  0.3216
   8423SM   H3G11231   4.556   1.893  12.002  0.0717 -0.7984  2.3785
   8423SM   C4F11232   4.585   1.691  12.067 -0.7397  0.5571 -0.0721
   8423SM   H4F11233   4.693   1.688  12.043 -0.6394 -0.3433  0.4729
   8423SM   H4G11234   4.543   1.591  12.042  0.2134  0.0945  0.1475
   8423SM   C5F11235   4.571   1.721  12.210  0.2103  0.4340  0.0129
   8423SM   H5F11236   4.464   1.723  12.241  0.6651  3.1846  1.6779
   8423SM   H5G11237   4.589   1.828  12.231 -0.0895  0.8940 -1.8230
   8423SM   C6F11238   4.656   1.626  12.300  0.2041 -0.6451 -0.4007
   8423SM   H6F11239   4.764   1.650  12.290  0.3619  0.3735  2.7884
   8423SM   H6G11240   4.656   1.519  12.272  1.4058 -1.3340  1.9879
   8423SM   C7F11241   4.629   1.654  12.450 -0.8987 -0.0770 -1.2447
   8423SM   H7F11242   4.520   1.661  12.471 -0.4531 -0.1914  1.6021
   8423SM   H7G11243   4.669   1.757  12.462  0.8269 -0.7876 -0.4359
   8423SM   C8F11244   4.712   1.565  12.549  0.4425 -0.4833  0.0547
   8423SM   H8F11245   4.820   1.585  12.531  0.5699  0.2328  1.4525
   8423SM   H8G11246   4.698   1.456  12.532  0.1949 -0.8202  2.2258
   8423SM   C9F11247   4.665   1.582  12.692 -0.1931  0.0545  0.1510
   8423SM   H9F11248   4.562   1.540  12.697 -0.4699  0.4125 -1.8339
   8423SM   H9G11249   4.663   1.689  12.722 -2.4034 -0.1672  0.9587
   8423SM  C10F11250   4.749   1.506  12.796  0.4269 -0.4206 -0.0313
   8423SM  H10F11251   4.856   1.535  12.791  0.9147 -1.4774  2.4685
   8423SM  H10G11252   4.737   1.398  12.771 -3.6031  0.3537 -2.4479
   8423SM  C11F11253   4.688   1.535  12.940  0.0524 -0.1190  0.2093
   8423SM  H11F11254   4.582   1.503  12.952 -0.4637  1.6482  0.6948
   8423SM  H11G11255   4.675   1.645  12.947  0.3608  0.0041 -1.0437
   8423SM  C12F11256   4.783   1.488  13.052  0.2596 -0.2579  0.0719
   8423SM  H12F11257   4.882   1.530  13.025  0.4413  1.2923  2.8365
   8423SM  H12G11258   4.794   1.377  13.056  1.5530 -0.1031  1.5155
   8423SM  C13F11259   4.735   1.537  13.184  0.1756  0.2555 -0.4805
   8423SM  H13F11260   4.642   1.481  13.205 -0.0585  0.5412 -0.7540
   8423SM  H13G11261   4.707   1.644  13.189 -0.5700  0.0372  0.1638
   8423SM  C14F11262   4.828   1.511  13.305 -0.8190 -0.3232  0.3315
   8423SM  H14F11263   4.912   1.584  13.301  1.4861 -2.8348 -0.3000
   8423SM  H14G11264   4.877   1.413  13.288  0.2035 -0.0398  1.4571
   8423SM  C15F11265   4.753   1.508  13.435  0.1556 -0.1413  0.3570
   8423SM  H15F11266   4.662   1.445  13.433  0.6172 -0.8049 -0.5825
   8423SM  H15G11267   4.704   1.606  13.454 -1.3563 -0.8424  0.2048
   8423SM  C16F11268   4.837   1.473  13.560 -0.8861 -0.2718  0.5698
   8423SM  H16F11269   4.946   1.482  13.540 -1.0139 -1.2214 -0.7132
   8423SM  H16G11270   4.829   1.362  13.564  0.3215 -0.3425  1.8104
   8423SM  C17F11271   4.797   1.552  13.681 -0.1115  0.4366  0.0415
   8423SM  H17F11272   4.691   1.542  13.713  0.0969 -0.5783  0.4574
   8423SM  H17G11273   4.812   1.660  13.661 -1.2095  0.4857 -0.5967
   8423SM  C18F11274   4.879   1.528  13.816  0.1683  0.1842  0.3083
   8423SM  H18F11275   4.986   1.537  13.788 -0.4160  0.4253 -2.0020
   8423SM  H18G11276   4.860   1.422  13.846  0.7977 -0.3784 -1.1651
   8423SM  C19F11277   4.829   1.630  13.928 -0.3141 -0.7036  0.0052
   8423SM  H19F11278   4.834   1.737  13.901  0.6995 -0.6998  0.1747
   8423SM  H19G11279   4.909   1.617  14.004  0.6678 -0.5507 -0.9735
   8423SM  C20F11280   4.690   1.593  13.987 -0.3111 -0.3533 -0.1510
   8423SM  H20F11281   4.687   1.484  14.003  1.2123 -0.2484  1.0272
   8423SM  H20G11282   4.610   1.617  13.913 -1.4996 -2.4826  0.3729
   8423SM  C21F11283   4.673   1.668  14.120  0.4773 -0.2260 -0.1487
   8423SM  H21F11284   4.675   1.779  14.131 -1.6308 -0.2971  1.6643
   8423SM  H21G11285   4.748   1.621  14.187 -1.3488 -2.8057  0.2268
   8423SM  C22F11286   4.536   1.640  14.197 -0.3716 -0.6284  0.3153
   8423SM  H22F11287   4.448   1.673  14.139  0.2769  1.6568  0.5155
   8423SM  H22G11288   4.537   1.699  14.291  1.5823 -0.0676  0.0049
   8423SM  C23F11289   4.518   1.494  14.233 -0.6074  0.3590  0.0238
   8423SM  H23F11290   4.610   1.456  14.282 -1.7893 -0.3178  1.8127
   8423SM  H23G11291   4.494   1.429  14.146  0.9493 -2.0524  1.3076
   8423SM  H23H11292   4.430   1.481  14.299 -0.1389 -2.7107  0.1767
   8523SM     N11293   5.666   3.260  11.420 -0.1412  0.1004 -0.0616
   8523SM   C1511294   5.523   3.258  11.382  0.1584  0.9571 -0.1288
   8523SM  H15A11295   5.466   3.264  11.474  2.3551  0.6428  1.3188
   8523SM  H15B11296   5.492   3.165  11.336 -0.1787  0.1496  1.6585
   8523SM  H15C11297   5.495   3.336  11.313  0.8178 -0.3682 -1.9872
   8523SM   C1411298   5.711   3.135  11.505 -0.2558  0.2022  0.2830
   8523SM  H14A11299   5.669   3.046  11.462 -0.0065  0.0405  0.3786
   8523SM  H14B11300   5.675   3.139  11.607 -0.7648  0.1198  0.1141
   8523SM  H14C11301   5.818   3.127  11.495 -0.4238 -1.1509 -0.7386
   8523SM   C1311302   5.758   3.267  11.296 -0.3801  0.2188  0.6995
   8523SM  H13A11303   5.744   3.177  11.238 -0.7857  0.1558  0.8915
   8523SM  H13B11304   5.862   3.276  11.324  0.5154 -1.3997 -1.8017
   8523SM  H13C11305   5.724   3.352  11.240 -0.7376 -0.7725 -0.6211
   8523SM   C1211306   5.691   3.388  11.501  0.0238  0.0722  0.1443
   8523SM  H12A11307   5.663   3.478  11.447 -2.1573 -0.7689 -0.2514
   8523SM  H12B11308   5.799   3.388  11.505  0.0315  1.3180  0.2786
   8523SM   C1111309   5.627   3.406  11.647  0.6249  0.1036  0.1783
   8523SM  H11A11310   5.652   3.506  11.689 -0.9905 -0.3631  2.4594
   8523SM  H11B11311   5.671   3.333  11.718  0.4029 -0.0975  0.1094
   8523SM     P11312   5.391   3.480  11.585  0.0394  0.3264  0.3586
   8523SM   O1311313   5.470   3.555  11.483  0.1630  0.5616 -0.5753
   8523SM   O1411314   5.266   3.409  11.542 -0.4730 -1.0346 -0.1781
   8523SM   O1111315   5.356   3.583  11.703  0.0545  0.1334 -0.2334
   8523SM   O1211316   5.491   3.379  11.646  0.0864 -0.2169 -0.0895
   8523SM   C1S11317   5.344   3.522  11.834 -0.3295  0.3054  0.4965
   8523SM   H1S11318   5.437   3.474  11.872 -1.7681 -0.9217  2.6884
   8523SM   H1T11319   5.282   3.431  11.825 -0.8347  0.5385  1.5184
   8523SM    NF11320   5.286   3.541  12.074 -0.6571 -0.0792 -0.4992
   8523SM   HNF11321   5.198   3.499  12.096 -0.0569 -2.7242 -2.6294
   8523SM   C2S11322   5.280   3.610  11.944  0.4599  0.2229  0.8012
   8523SM   H2S11323   5.346   3.699  11.957  0.7098  0.1369  0.1440
   8523SM   C3S11324   5.137   3.658  11.900 -0.3751  0.5953 -0.3932
   8523SM   H3S11325   5.073   3.567  11.903  3.2021 -2.1390 -0.2150
   8523SM    O311326   5.132   3.707  11.772  0.2025  0.1117  0.1998
   8523SM   HO311327   5.215   3.688  11.728  0.2919 -0.2886  0.5355
   8523SM   C4S11328   5.083   3.765  11.989 -0.3690 -0.6315 -0.1003
   8523SM   H4S11329   5.143   3.857  11.981 -1.3602 -0.0485 -1.0261
   8523SM   C5S11330   4.985   3.758  12.080 -0.4202  0.1808 -0.0959
   8523SM   H5S11331   4.932   3.661  12.082 -2.6260  1.3245  0.1077
   8523SM   C6S11332   4.959   3.859  12.192  0.3218 -0.0011  0.4224
   8523SM   H6S11333   4.913   3.799  12.274  0.1021 -0.9943 -0.4006
   8523SM   H6T11334   4.882   3.930  12.158  0.1045 -0.7395 -0.6800
   8523SM   C7S11335   5.073   3.939  12.253  0.0541 -0.0904  0.7424
   8523SM   H7S11336   5.028   4.016  12.319 -0.5621  0.7432 -0.6235
   8523SM   H7T11337   5.135   3.992  12.178 -1.4133 -0.6750 -0.9497
   8523SM   C8S11338   5.168   3.853  12.337 -0.5181 -0.3391 -0.0082
   8523SM   H8S11339   5.256   3.919  12.352 -1.3406  1.0609 -1.1589
   8523SM   H8T11340   5.197   3.761  12.281 -2.8135  0.7498 -3.2456
   8523SM   C9S11341   5.125   3.815  12.479  0.5356 -0.0049  0.3058
   8523SM   H9S11342   5.056   3.728  12.470  0.0426  0.5096 -1.1832
   8523SM   H9T11343   5.068   3.895  12.531 -1.6352 -1.5942  0.5343
   8523SM  C10S11344   5.257   3.789  12.560 -0.5217  0.1796  0.4062
   8523SM  H10S11345   5.311   3.886  12.561 -0.9712  0.4394  1.7987
   8523SM  H10T11346   5.317   3.702  12.526  2.2950  0.8567  3.1684
   8523SM  C11S11347   5.209   3.737  12.694  0.1248 -0.0976  0.0010
   8523SM  H11S11348   5.152   3.642  12.684  0.0889 -0.1586  0.7078
   8523SM  H11T11349   5.139   3.807  12.745 -1.6423 -2.1886  0.5727
   8523SM  C12S11350   5.324   3.713  12.786 -0.9204  0.5837  0.2074
   8523SM  H12S11351   5.393   3.800  12.784 -0.5718  0.3144 -1.7221
   8523SM  H12T11352   5.384   3.633  12.739 -1.9798  1.3560 -2.7117
   8523SM  C13S11353   5.290   3.659  12.929  0.2611  0.3098  0.0111
   8523SM  H13S11354   5.385   3.616  12.968  1.1053  0.6831 -1.5525
   8523SM  H13T11355   5.220   3.573  12.926  0.4593  0.1576 -2.4292
   8523SM  C14S11356   5.255   3.761  13.029 -0.3091 -0.4836 -0.0859
   8523SM  H14S11357   5.165   3.818  12.999 -0.5419 -0.6964  0.2001
   8523SM  H14T11358   5.339   3.832  13.042 -1.4397  1.1968 -1.5187
   8523SM  C15S11359   5.239   3.694  13.168  0.3102  0.1518 -0.4351
   8523SM  H15S11360   5.331   3.638  13.191  1.4412  2.1032  0.0575
   8523SM  H15T11361   5.153   3.625  13.155  0.8182 -0.2771 -1.5366
   8523SM  C16S11362   5.222   3.798  13.276 -0.1284 -0.3512 -0.2586
   8523SM  H16S11363   5.196   3.761  13.378  0.3467  1.2835  0.4991
   8523SM  H16T11364   5.139   3.868  13.255 -1.6022 -1.9283  0.0724
   8523SM  C17S11365   5.343   3.891  13.301 -0.3824  0.0259 -0.2963
   8523SM  H17S11366   5.381   3.947  13.213  0.8204  0.4300  0.4633
   8523SM  H17T11367   5.427   3.835  13.348 -1.0251 -0.1126  0.7140
   8523SM  C18S11368   5.306   3.993  13.408  0.3097  0.0127  0.0289
   8523SM  H18S11369   5.379   4.076  13.407  2.6765 -1.9594 -1.3432
   8523SM  H18T11370   5.304   3.946  13.508 -0.8615 -0.9125 -0.3979
   8523SM  H18U11371   5.206   4.036  13.385  0.5149  0.4441 -0.0740
   8523SM   C1F11372   5.393   3.533  12.144 -0.7794  0.5321  0.0778
   8523SM    OF11373   5.503   3.571  12.110 -0.6308 -0.4490 -0.1666
   8523SM   C2F11374   5.366   3.466  12.277 -0.1906 -0.2611  0.5049
   8523SM   H2F11375   5.316   3.367  12.266  0.6767 -0.6060 -0.5801
   8523SM   H2G11376   5.299   3.532  12.336  0.2151 -0.4294  1.1617
   8523SM   C3F11377   5.498   3.451  12.358  0.0581  0.5736 -0.4238
   8523SM   H3F11378   5.555   3.546  12.349  0.2156  0.4025 -1.2630
   8523SM   H3G11379   5.567   3.374  12.317 -0.0312  1.5213 -2.4181
   8523SM   C4F11380   5.473   3.418  12.507 -0.0220 -0.4076  0.1918
   8523SM   H4F11381   5.431   3.503  12.564  0.4131  0.6516 -1.0428
   8523SM   H4G11382   5.572   3.387  12.550  1.2612  0.9336 -1.6469
   8523SM   C5F11383   5.377   3.308  12.534 -0.2149  0.8838 -0.5368
   8523SM   H5F11384   5.417   3.205  12.527  0.9093  1.1615  1.2759
   8523SM   H5G11385   5.284   3.315  12.474 -0.6636  2.3721  0.2776
   8523SM   C6F11386   5.323   3.312  12.680  0.4548 -0.6986 -0.1003
   8523SM   H6F11387   5.237   3.242  12.690 -0.6501  0.7134  0.6483
   8523SM   H6G11388   5.277   3.413  12.689 -0.2610 -0.9277 -1.0218
   8523SM   C7F11389   5.430   3.286  12.788 -1.1730 -0.1985  0.0622
   8523SM   H7F11390   5.511   3.360  12.773 -0.0496 -1.5753 -0.9516
   8523SM   H7G11391   5.478   3.188  12.764 -1.0109  0.2438 -1.5541
   8523SM   C8F11392   5.375   3.289  12.933 -0.0914  0.4798  0.5032
   8523SM   H8F11393   5.295   3.212  12.929  0.3007  0.1337 -1.9107
   8523SM   H8G11394   5.325   3.386  12.955 -2.4012 -0.4999 -0.1155
   8523SM   C9F11395   5.495   3.257  13.029  0.7403 -0.2571 -0.0377
   8523SM   H9F11396   5.572   3.338  13.022 -0.2292  0.7333  0.4432
   8523SM   H9G11397   5.543   3.161  13.003 -1.1067 -1.0172 -0.8157
   8523SM  C10F11398   5.457   3.248  13.186 -0.8748 -0.1826  0.2494
   8523SM  H10F11399   5.546   3.202  13.233  0.3823  1.7353 -0.1520
   8523SM  H10G11400   5.373   3.177  13.202  0.7071 -2.7617 -1.9502
   8523SM  C11F11401   5.431   3.380  13.253  0.8029  0.2901  0.2438
   8523SM  H11F11402   5.332   3.427  13.231  1.6826  1.7161 -0.8727
   8523SM  H11G11403   5.505   3.456  13.220 -0.2770  0.7439 -1.2219
   8523SM  C12F11404   5.457   3.370  13.399 -0.1049  1.3101 -0.1297
   8523SM  H12F11405   5.451   3.469  13.448  2.5460  2.3790 -1.7532
   8523SM  H12G11406   5.561   3.333  13.411 -0.6771 -1.1912 -2.1202
   8523SM  C13F11407   5.355   3.286  13.469 -0.1257  0.3077 -0.8729
   8523SM  H13F11408   5.360   3.186  13.422 -0.1929  0.5801 -1.4675
   8523SM  H13G11409   5.254   3.331  13.463  0.1129  1.1837  1.0748
   8523SM  C14F11410   5.390   3.270  13.617 -0.3704 -0.7950 -0.9115
   8523SM  H14F11411   5.296   3.248  13.674 -0.7548  1.5067 -0.5747
   8523SM  H14G11412   5.431   3.370  13.641 -2.8671  0.6139 -2.0706
   8523SM  C15F11413   5.508   3.166  13.635 -0.3776 -0.1075 -0.2549
   8523SM  H15F11414   5.599   3.225  13.612 -0.7875  0.4596 -0.4360
   8523SM  H15G11415   5.492   3.095  13.551  0.3663  1.6606 -1.9459
   8523SM  C16F11416   5.522   3.106  13.777  0.5666 -0.5923  0.1363
   8523SM  H16F11417   5.457   3.020  13.804 -3.5114  1.4046 -2.2293
   8523SM  H16G11418   5.483   3.189  13.840 -0.8794 -0.9339 -0.2547
   8523SM  C17F11419   5.668   3.101  13.826 -0.5265  0.6736 -0.3666
   8523SM  H17F11420   5.743   3.178  13.800 -0.2938  0.4175 -0.4634
   8523SM  H17G11421   5.719   3.017  13.774 -0.1336  0.2095  0.7329
   8523SM  C18F11422   5.674   3.066  13.976 -0.0929  0.0392  0.3273
   8523SM  H18F11423   5.603   2.980  13.984 -0.5725  0.2998 -0.9182
   8523SM  H18G11424   5.635   3.150  14.038 -0.9164 -1.0327  1.3134
   8523SM  C19F11425   5.816   3.022  14.019  0.1041  0.7275 -0.7974
   8523SM  H19F11426   5.834   2.930  13.959  1.7270 -0.3271  1.1835
   8523SM  H19G11427   5.796   2.992  14.124  0.1337 -0.7988 -1.1982
   8523SM  C20F11428   5.926   3.133  14.009  0.0117  0.3807 -0.5897
   8523SM  H20F11429   5.896   3.240  14.015 -0.7390  0.1453  0.0475
   8523SM  H20G11430   5.960   3.120  13.904  0.9081 -0.2984 -0.2211
   8523SM  C21F11431   6.048   3.110  14.096  0.6510 -0.8773 -0.6292
   8523SM  H21F11432   6.065   3.001  14.087  3.1259 -0.4748 -1.6398
   8523SM  H21G11433   6.039   3.151  14.199 -0.3745  0.3992 -1.1934
   8523SM  C22F11434   6.182   3.174  14.054  1.1462 -0.7864  0.7660
   8523SM  H22F11435   6.161   3.283  14.064 -2.3793 -1.3056  0.4363
   8523SM  H22G11436   6.188   3.157  13.944 -3.3664 -2.1201  0.5290
   8523SM  C23F11437   6.305   3.134  14.135 -0.0204 -0.5842  0.0850
   8523SM  H23F11438   6.276   3.129  14.242 -0.2609  0.2884  0.0714
   8523SM  H23G11439   6.377   3.214  14.107 -2.2469  1.1215 -1.1834
   8523SM  H23H11440   6.342   3.038  14.094  0.4475  0.2077 -1.4586
   8623SM     N11441   3.803   1.999  11.687 -0.4370 -0.0870 -0.1175
   8623SM   C1511442   3.779   2.131  11.621 -0.4373  0.1936  0.0014
   8623SM  H15A11443   3.822   2.142  11.522 -1.9404  1.1036 -0.5833
   8623SM  H15B11444   3.819   2.215  11.677  0.5266 -0.8351  0.9186
   8623SM  H15C11445   3.673   2.150  11.616 -1.0984 -2.7852  0.8220
   8623SM   C1411446   3.741   2.006  11.828  0.1336 -0.6874  1.0499
   8623SM  H14A11447   3.795   2.082  11.883 -2.0350  1.7122  0.0760
   8623SM  H14B11448   3.754   1.913  11.880  0.0638 -1.0604  0.4039
   8623SM  H14C11449   3.637   2.034  11.820  0.7959  1.6297 -0.7653
   8623SM   C1311450   3.727   1.892  11.615  0.0282  1.0428  0.2133
   8623SM  H13A11451   3.737   1.794  11.658  0.8784  1.4512  0.9596
   8623SM  H13B11452   3.772   1.883  11.517 -0.3642 -1.7759  0.1965
   8623SM  H13C11453   3.622   1.915  11.600  0.1234  0.9487 -0.6993
   8623SM   C1211454   3.957   1.970  11.697 -0.6251 -0.3362  0.2090
   8623SM  H12A11455   3.996   2.000  11.601  1.2048  0.8100  1.2541
   8623SM  H12B11456   3.981   1.865  11.703 -0.1169 -0.3138 -1.2807
   8623SM   C1111457   4.035   2.038  11.822 -0.5134 -0.7019 -0.4108
   8623SM  H11A11458   4.144   2.014  11.823 -0.3724 -0.0636  0.3706
   8623SM  H11B11459   4.002   1.999  11.921 -0.4855 -2.6177 -1.1117
   8623SM     P11460   4.103   2.253  11.694  0.1194  0.2830  0.0066
   8623SM   O1311461   4.152   2.159  11.586 -0.3406  1.1119 -0.0543
   8623SM   O1411462   4.024   2.370  11.657 -0.1566  0.2432  0.0111
   8623SM   O1111463   4.237   2.307  11.769 -0.0384 -0.5885 -0.3058
   8623SM   O1211464   4.022   2.180  11.812  0.1430 -0.5920 -0.0035
   8623SM   C1S11465   4.224   2.411  11.873 -0.9833  0.6621 -0.1038
   8623SM   H1S11466   4.142   2.482  11.850 -0.2038  1.2663 -1.1343
   8623SM   H1T11467   4.320   2.468  11.873 -1.1081  0.9008 -1.5905
   8623SM    NF11468   4.193   2.457  12.111 -0.2742  0.4211  0.2119
   8623SM   HNF11469   4.268   2.487  12.168  0.3935 -1.2165  0.2574
   8623SM   C2S11470   4.217   2.349  12.017 -0.3130  0.0808 -0.1447
   8623SM   H2S11471   4.133   2.277  12.022  1.4170 -1.9529  1.8964
   8623SM   C3S11472   4.350   2.275  12.045 -0.2254 -0.4027  0.0431
   8623SM   H3S11473   4.432   2.350  12.048 -0.3939  0.1431 -3.7436
   8623SM    O311474   4.388   2.175  11.947 -0.2291  0.2117 -0.4442
   8623SM   HO311475   4.328   2.191  11.874  0.1170  0.1716 -0.7390
   8623SM   C4S11476   4.334   2.211  12.184 -0.5074  0.2512  0.7277
   8623SM   H4S11477   4.350   2.284  12.265 -1.2132 -1.0724  2.0914
   8623SM   C5S11478   4.311   2.084  12.212  0.4193  0.3482 -0.2936
   8623SM   H5S11479   4.282   2.023  12.126  0.9610  0.0179 -0.2404
   8623SM   C6S11480   4.299   2.015  12.346  0.7409 -0.5429  0.4947
   8623SM   H6S11481   4.405   2.016  12.381  1.3920  1.1655 -1.3128
   8623SM   H6T11482   4.267   1.912  12.319 -0.3999 -0.3269  0.9778
   8623SM   C7S11483   4.205   2.076  12.443  0.2066  0.7123  0.0521
   8623SM   H7S11484   4.106   2.079  12.394  0.3131 -1.5755 -0.4296
   8623SM   H7T11485   4.228   2.182  12.466  2.2710  0.6200 -1.2908
   8623SM   C8S11486   4.194   1.990  12.574  0.0604  0.0874 -0.4205
   8623SM   H8S11487   4.205   1.881  12.553  2.1092  0.2963 -0.5879
   8623SM   H8T11488   4.091   2.000  12.615 -0.1981 -1.0032 -0.7774
   8623SM   C9S11489   4.298   2.043  12.672  0.2355 -0.4332 -0.3731
   8623SM   H9S11490   4.306   2.153  12.677 -0.5933 -0.4328  1.6823
   8623SM   H9T11491   4.394   2.006  12.629  0.0733 -2.1102  0.5976
   8623SM  C10S11492   4.274   1.995  12.815 -0.5108 -0.3437  0.2748
   8623SM  H10S11493   4.264   1.884  12.813  2.2559 -0.8074  3.2264
   8623SM  H10T11494   4.181   2.042  12.852 -0.9280 -1.4690  0.7103
   8623SM  C11S11495   4.382   2.049  12.917 -0.7478 -0.1168  0.0054
   8623SM  H11S11496   4.373   2.157  12.939  0.9287 -0.0821  0.6246
   8623SM  H11T11497   4.482   2.030  12.873 -1.2229  1.1484 -1.7403
   8623SM  C12S11498   4.373   1.967  13.047 -0.4342 -0.1226  0.4386
   8623SM  H12S11499   4.360   1.861  13.017 -1.3678 -0.1185  0.7971
   8623SM  H12T11500   4.273   1.995  13.086  1.1454  2.3196  3.1489
   8623SM  C13S11501   4.479   1.989  13.152 -0.0864 -0.1678 -0.8124
   8623SM  H13S11502   4.507   2.095  13.168 -0.6829  0.0360 -1.0808
   8623SM  H13T11503   4.570   1.931  13.124  0.4860  0.2392  0.1535
   8623SM  C14S11504   4.439   1.926  13.288 -0.3789  0.3069 -0.1550
   8623SM  H14S11505   4.470   1.820  13.289 -1.7538 -0.1404 -1.5244
   8623SM  H14T11506   4.331   1.934  13.311 -1.0877 -1.6541 -2.4788
   8623SM  C15S11507   4.522   1.992  13.401  0.2824 -0.3483  0.0809
   8623SM  H15S11508   4.509   2.101  13.386  2.0259 -0.2607 -1.0494
   8623SM  H15T11509   4.631   1.981  13.385  0.1172 -0.3792 -1.1466
   8623SM  C16S11510   4.478   1.938  13.539 -0.2834  0.0461 -0.4251
   8623SM  H16S11511   4.435   1.836  13.536 -0.3112 -0.0643  1.8659
   8623SM  H16T11512   4.410   2.013  13.585  0.5586  1.4918 -1.4328
   8623SM  C17S11513   4.598   1.935  13.628  0.4199  0.2929 -0.4527
   8623SM  H17S11514   4.643   2.036  13.632 -2.0355  1.4297  0.4730
   8623SM  H17T11515   4.673   1.863  13.588 -0.5545  0.3941 -2.5764
   8623SM  C18S11516   4.566   1.889  13.776 -0.6005 -0.0992 -0.2142
   8623SM  H18S11517   4.503   1.963  13.831  0.8296  0.2429  1.0234
   8623SM  H18T11518   4.658   1.866  13.834 -1.7231  0.1713  1.7698
   8623SM  H18U11519   4.513   1.791  13.775 -4.3021  1.6617 -3.1784
   8623SM   C1F11520   4.075   2.507  12.110  0.3032 -0.2991  0.0215
   8623SM    OF11521   3.984   2.466  12.039 -0.0106  0.8090 -0.7281
   8623SM   C2F11522   4.050   2.624  12.208 -0.7614 -0.1838 -0.3163
   8623SM   H2F11523   3.970   2.693  12.173 -0.8727  0.1790  0.6068
   8623SM   H2G11524   4.144   2.683  12.209 -1.6544  1.3011 -1.0212
   8623SM   C3F11525   4.030   2.553  12.354  1.1515  0.1212  0.6963
   8623SM   H3F11526   4.015   2.629  12.433 -1.3406  1.2871 -0.7398
   8623SM   H3G11527   4.120   2.493  12.377  1.2492  0.6728  1.8219
   8623SM   C4F11528   3.900   2.472  12.357  0.5270  0.0055 -0.3970
   8623SM   H4F11529   3.903   2.381  12.294 -0.2899  0.5930 -1.3036
   8623SM   H4G11530   3.822   2.541  12.319  0.4566 -0.1738 -0.5798
   8623SM   C5F11531   3.869   2.427  12.496 -0.0005 -0.5442 -0.6904
   8623SM   H5F11532   3.764   2.390  12.502 -0.2431  0.3473  3.0271
   8623SM   H5G11533   3.876   2.512  12.567 -1.4710  0.6220 -1.8880
   8623SM   C6F11534   3.966   2.321  12.547  0.8794 -0.1657 -0.2763
   8623SM   H6F11535   4.071   2.344  12.519  1.6254 -0.2434  2.1869
   8623SM   H6G11536   3.938   2.225  12.499 -0.9022  0.3728 -0.3597
   8623SM   C7F11537   3.963   2.311  12.697  0.6222  0.7184 -0.8424
   8623SM   H7F11538   4.026   2.226  12.733  0.1944  0.4538 -0.7042
   8623SM   H7G11539   3.855   2.294  12.718  0.8499 -0.7463 -0.7280
   8623SM   C8F11540   4.019   2.431  12.771  0.1213  0.3190 -0.2207
   8623SM   H8F11541   3.942   2.497  12.815  0.3797  0.2048  0.4091
   8623SM   H8G11542   4.074   2.477  12.687  0.4638  0.2747 -0.0195
   8623SM   C9F11543   4.118   2.408  12.890  0.2095  0.1049  0.5955
   8623SM   H9F11544   4.131   2.509  12.935 -0.2122  0.4980 -0.1513
   8623SM   H9G11545   4.208   2.368  12.837 -1.5768 -0.3613 -2.3087
   8623SM  C10F11546   4.070   2.307  12.995  0.5853  0.0802  0.2426
   8623SM  H10F11547   4.037   2.211  12.949 -2.7711  0.2280  1.9937
   8623SM  H10G11548   3.972   2.351  13.024  0.6979  0.3966  0.1530
   8623SM  C11F11549   4.165   2.304  13.109  0.1151 -0.2328 -0.7516
   8623SM  H11F11550   4.175   2.411  13.139 -1.5621  0.1068 -1.2877
   8623SM  H11G11551   4.267   2.265  13.087 -0.0725 -0.0286 -2.0381
   8623SM  C12F11552   4.102   2.216  13.222 -0.5172  0.8066  0.3859
   8623SM  H12F11553   4.128   2.109  13.205 -1.6989  0.5841 -0.0886
   8623SM  H12G11554   3.992   2.230  13.223 -0.3005  3.0160  2.6574
   8623SM  C13F11555   4.158   2.255  13.361  0.0628  0.6523 -0.1947
   8623SM  H13F11556   4.129   2.361  13.379  0.1984  0.5144  0.8703
   8623SM  H13G11557   4.268   2.240  13.359 -0.1079 -1.0537 -3.1429
   8623SM  C14F11558   4.110   2.180  13.490 -0.2993 -0.2879  0.1852
   8623SM  H14F11559   4.123   2.072  13.466 -1.3786 -0.5281  0.5884
   8623SM  H14G11560   4.004   2.200  13.519 -0.3818  1.3635 -1.1271
   8623SM  C15F11561   4.196   2.211  13.610  0.5625 -0.4963 -0.1035
   8623SM  H15F11562   4.216   2.320  13.623 -1.3195 -0.2202  0.9431
   8623SM  H15G11563   4.296   2.168  13.590  0.1545 -1.6770  0.3083
   8623SM  C16F11564   4.139   2.142  13.739  0.3451 -0.3769 -0.6206
   8623SM  H16F11565   4.096   2.044  13.710 -0.6207 -1.1870  3.0200
   8623SM  H16G11566   4.052   2.197  13.781 -0.7370 -3.5296  1.7099
   8623SM  C17F11567   4.246   2.116  13.853 -0.2769  0.0196  0.2760
   8623SM  H17F11568   4.300   2.212  13.869 -1.6137  1.0117 -0.9911
   8623SM  H17G11569   4.327   2.052  13.811 -0.1614  0.2193  0.1901
   8623SM  C18F11570   4.202   2.038  13.975  0.8531  0.6458  0.7635
   8623SM  H18F11571   4.138   1.954  13.940 -1.0902  2.2153  0.3552
   8623SM  H18G11572   4.128   2.102  14.029  0.3916  0.1642  0.7099
   8623SM  C19F11573   4.319   2.003  14.075  0.3769  0.4036 -0.0932
   8623SM  H19F11574   4.384   1.934  14.017 -0.1154 -0.9861  0.9467
   8623SM  H19G11575   4.276   1.948  14.162 -0.5453  0.5652 -0.4406
   8623SM  C20F11576   4.410   2.114  14.131  0.4688  0.1684  0.2171
   8623SM  H20F11577   4.341   2.180  14.186  0.7896  0.6892  0.0023
   8623SM  H20G11578   4.457   2.181  14.056 -1.6899  1.2311 -0.2620
   8623SM  C21F11579   4.513   2.052  14.230  0.0481 -0.1110  0.2383
   8623SM  H21F11580   4.588   1.989  14.178 -0.1865  1.3430 -2.0366
   8623SM  H21G11581   4.458   1.982  14.296 -0.7722  0.7305  0.4734
   8623SM  C22F11582   4.577   2.161  14.311 -0.5146 -0.2696 -0.8422
   8623SM  H22F11583   4.638   2.215  14.236 -0.8460 -1.2978 -1.8786
   8623SM  H22G11584   4.642   2.115  14.388 -0.8330  0.5758 -0.0382
   8623SM  C23F11585   4.480   2.244  14.405  0.3202  0.4301  0.0587
   8623SM  H23F11586   4.406   2.177  14.454  0.6706 -0.0070 -0.0049
   8623SM  H23G11587   4.434   2.321  14.340 -1.8544 -0.2685  0.6870
   8623SM  H23H11588   4.541   2.292  14.484  1.0062  0.9874 -0.7810
   8723SM     N11589   4.432   1.237  11.293  0.7783  0.6857  0.1516
   8723SM   C1511590   4.549   1.146  11.287 -0.7609  0.7359 -0.1465
   8723SM  H15A11591   4.525   1.056  11.231 -1.1897  1.2666 -0.8265
   8723SM  H15B11592   4.588   1.126  11.385 -1.5978 -0.9199 -0.1106
   8723SM  H15C11593   4.622   1.202  11.231 -1.0970  0.0490 -1.3070
   8723SM   C1411594   4.471   1.374  11.335  0.4459  0.8205  0.6679
   8723SM  H14A11595   4.500   1.365  11.439 -0.6947  1.6662  1.0882
   8723SM  H14B11596   4.378   1.428  11.325 -1.2995 -1.8450  1.4387
   8723SM  H14C11597   4.558   1.413  11.285 -0.2392  1.8482  0.2477
   8723SM   C1311598   4.385   1.247  11.149  0.0788  0.1282  0.0107
   8723SM  H13A11599   4.462   1.296  11.092 -1.2752  2.0861 -0.2361
   8723SM  H13B11600   4.289   1.295  11.138  1.1680  2.0305 -1.8771
   8723SM  H13C11601   4.362   1.152  11.104 -0.5801 -0.0581  0.7155
   8723SM   C1211602   4.320   1.180  11.384 -0.1163 -0.4907  0.7156
   8723SM  H12A11603   4.361   1.167  11.483 -0.8302 -1.4721  0.8960
   8723SM  H12B11604   4.287   1.082  11.352  1.0662 -0.3125 -1.2264
   8723SM   C1111605   4.197   1.267  11.402  0.2198  0.3209 -0.1152
   8723SM  H11A11606   4.228   1.370  11.430 -1.4192  0.8630 -0.2241
   8723SM  H11B11607   4.143   1.221  11.487  0.6734 -0.8582 -0.4418
   8723SM     P11608   4.017   1.402  11.282  0.5600 -0.7842  0.2074
   8723SM   O1311609   4.087   1.503  11.195 -0.6547 -0.7927  0.0284
   8723SM   O1411610   3.887   1.351  11.246 -0.1734  0.2711  0.4165
   8723SM   O1111611   4.015   1.462  11.433  0.0183 -0.0470  0.2885
   8723SM   O1211612   4.102   1.272  11.292 -0.2648  0.6304  0.0245
   8723SM   C1S11613   3.911   1.427  11.522  0.6490 -0.0924 -0.3177
   8723SM   H1S11614   3.890   1.318  11.520 -1.1331  0.2196 -0.6600
   8723SM   H1T11615   3.813   1.475  11.499 -0.0407  0.4063  3.0906
   8723SM    NF11616   3.846   1.409  11.758 -0.0949 -1.0832  1.0085
   8723SM   HNF11617   3.775   1.470  11.792  1.0059  1.9393 -1.6284
   8723SM   C2S11618   3.945   1.465  11.671 -0.4325  0.0382  0.8291
   8723SM   H2S11619   4.042   1.415  11.688  0.0582 -1.5855 -4.7926
   8723SM   C3S11620   3.970   1.614  11.688  0.2772  0.6590 -0.4202
   8723SM   H3S11621   3.875   1.666  11.665  1.0305  2.9646  1.2499
   8723SM    O311622   4.060   1.665  11.600  0.2507  0.1399  0.1967
   8723SM   HO311623   4.060   1.593  11.536  1.1886 -0.2715  0.6443
   8723SM   C4S11624   4.012   1.647  11.827  0.7728  0.0570 -0.2710
   8723SM   H4S11625   3.934   1.620  11.899  2.0643 -0.2743  1.0502
   8723SM   C5S11626   4.133   1.667  11.879  0.4867  0.1014 -0.0318
   8723SM   H5S11627   4.219   1.659  11.811  1.2856  1.3295  0.7966
   8723SM   C6S11628   4.160   1.690  12.027 -0.3489  0.0314 -0.1881
   8723SM   H6S11629   4.190   1.796  12.040  2.4356 -0.7994  0.7492
   8723SM   H6T11630   4.251   1.632  12.051  0.0377  0.2215 -1.1501
   8723SM   C7S11631   4.042   1.668  12.129 -0.5744 -0.1554  0.1698
   8723SM   H7S11632   4.013   1.562  12.111 -1.3003  0.0491  0.1229
   8723SM   H7T11633   3.956   1.734  12.108  0.9008  1.7133 -0.2863
   8723SM   C8S11634   4.080   1.682  12.278 -0.5632  0.9297 -0.1985
   8723SM   H8S11635   4.077   1.788  12.311  0.8988  0.6296  0.9931
   8723SM   H8T11636   4.179   1.642  12.307 -1.1446 -1.3568 -1.1332
   8723SM   C9S11637   3.989   1.590  12.362  0.3674  0.5562  0.0845
   8723SM   H9S11638   4.011   1.483  12.341 -1.3136  0.2174 -0.0734
   8723SM   H9T11639   3.881   1.600  12.341 -0.0050  0.7996  1.9064
   8723SM  C10S11640   4.001   1.608  12.514  0.0913 -0.5483 -0.3757
   8723SM  H10S11641   4.106   1.624  12.549 -0.3813  0.5469  0.6160
   8723SM  H10T11642   3.976   1.512  12.565  0.1578 -0.9265 -1.0519
   8723SM  C11S11643   3.921   1.728  12.563  0.7057  0.2285  0.0679
   8723SM  H11S11644   3.818   1.709  12.527  1.4437 -1.5911 -1.2941
   8723SM  H11T11645   3.954   1.827  12.526 -1.8155  1.1749  0.1367
   8723SM  C12S11646   3.886   1.719  12.715 -0.5361 -0.3316 -0.3896
   8723SM  H12S11647   3.839   1.620  12.731  0.8069 -1.0234 -0.6258
   8723SM  H12T11648   3.813   1.795  12.750  0.2845  0.6393 -0.7303
   8723SM  C13S11649   4.018   1.736  12.799  0.3186  0.2126  0.4920
   8723SM  H13S11650   4.079   1.800  12.732 -0.1169 -0.6595 -0.7573
   8723SM  H13T11651   4.081   1.645  12.806 -0.0039 -0.0650 -0.1572
   8723SM  C14S11652   3.991   1.810  12.930 -0.7710 -0.4868 -0.4805
   8723SM  H14S11653   3.955   1.908  12.890  0.7395 -0.1426 -1.0760
   8723SM  H14T11654   4.095   1.816  12.969 -0.6664  0.3434 -0.8542
   8723SM  C15S11655   3.893   1.739  13.026 -0.3495 -0.5655  1.2280
   8723SM  H15S11656   3.935   1.639  13.049 -1.3350 -1.1745  0.4827
   8723SM  H15T11657   3.800   1.720  12.968 -0.1417  0.1188  0.6404
   8723SM  C16S11658   3.874   1.836  13.141 -0.1556 -0.0382 -0.2117
   8723SM  H16S11659   3.770   1.823  13.180 -0.0295 -0.5987 -0.0516
   8723SM  H16T11660   3.866   1.939  13.101  0.1202  0.4817  1.0271
   8723SM  C17S11661   3.962   1.815  13.265  0.4012 -0.8040 -0.7541
   8723SM  H17S11662   4.067   1.846  13.248  0.7986 -0.6552  1.6378
   8723SM  H17T11663   3.959   1.706  13.288  1.8867 -0.2220  3.0442
   8723SM  C18S11664   3.905   1.886  13.383  0.1816  0.0632 -0.2852
   8723SM  H18S11665   3.910   1.997  13.378 -1.2311  0.1827  0.5409
   8723SM  H18T11666   3.936   1.831  13.475 -1.3395 -0.6961 -0.2040
   8723SM  H18U11667   3.795   1.875  13.384  0.0660  1.1317 -0.0473
   8723SM   C1F11668   3.843   1.276  11.783 -0.3291 -0.3752  0.1427
   8723SM    OF11669   3.935   1.203  11.740  0.2286 -0.3028  0.4922
   8723SM   C2F11670   3.727   1.233  11.864  0.3296  0.2659 -0.4245
   8723SM   H2F11671   3.638   1.204  11.803  0.5804 -0.1534 -0.5950
   8723SM   H2G11672   3.688   1.324  11.913 -1.0453 -0.3068 -0.3921
   8723SM   C3F11673   3.773   1.131  11.969  0.1371 -0.0574 -0.3988
   8723SM   H3F11674   3.799   1.041  11.910  0.6928  1.4464 -2.5813
   8723SM   H3G11675   3.680   1.124  12.030  0.7487 -1.4849  0.3901
   8723SM   C4F11676   3.877   1.181  12.067 -0.1967 -0.2529 -0.1895
   8723SM   H4F11677   3.973   1.175  12.012  0.1058  1.2190  0.1408
   8723SM   H4G11678   3.872   1.098  12.141  0.4967  0.7018  0.9650
   8723SM   C5F11679   3.843   1.318  12.134  0.2977  0.0677 -0.5202
   8723SM   H5F11680   3.846   1.398  12.058 -2.1980  1.3198  0.6052
   8723SM   H5G11681   3.921   1.344  12.209  0.7084  0.8926 -1.2207
   8723SM   C6F11682   3.708   1.320  12.208  1.0214  0.3730 -0.3347
   8723SM   H6F11683   3.630   1.298  12.132  0.8549  3.2315 -1.1220
   8723SM   H6G11684   3.688   1.426  12.237  0.2426  0.6200 -1.6871
   8723SM   C7F11685   3.695   1.238  12.338 -0.0667 -0.2375  0.1324
   8723SM   H7F11686   3.747   1.140  12.332  0.6959 -0.0840  2.7195
   8723SM   H7G11687   3.593   1.211  12.370  0.6282 -2.3260  0.7235
   8723SM   C8F11688   3.755   1.315  12.461 -0.8725 -0.3223 -0.4153
   8723SM   H8F11689   3.706   1.414  12.466 -1.6404 -0.7311  0.3905
   8723SM   H8G11690   3.862   1.342  12.442 -0.9734  0.5592  0.2049
   8723SM   C9F11691   3.754   1.237  12.589  0.4884 -1.1185  0.0430
   8723SM   H9F11692   3.821   1.149  12.583  1.0066 -0.7816  0.8230
   8723SM   H9G11693   3.653   1.191  12.598  0.4854 -1.1294 -0.0467
   8723SM  C10F11694   3.780   1.320  12.709 -0.4598  0.2681 -0.4221
   8723SM  H10F11695   3.711   1.407  12.714  0.2824  0.8430  0.0145
   8723SM  H10G11696   3.875   1.375  12.698  0.4876 -0.8423  1.6763
   8723SM  C11F11697   3.780   1.262  12.857  1.0283 -0.6705 -0.3551
   8723SM  H11F11698   3.879   1.214  12.874  1.3764  0.4966  1.1958
   8723SM  H11G11699   3.702   1.184  12.873  0.3203  0.2023  0.6342
   8723SM  C12F11700   3.748   1.371  12.959 -0.3044 -0.1352  0.1851
   8723SM  H12F11701   3.651   1.410  12.920 -0.2570 -0.1331  0.0690
   8723SM  H12G11702   3.819   1.457  12.960 -1.7504  1.1923 -1.7157
   8723SM  C13F11703   3.733   1.313  13.098  0.4135 -0.2112 -0.2558
   8723SM  H13F11704   3.815   1.252  13.143 -1.0920 -1.9696  0.2408
   8723SM  H13G11705   3.649   1.241  13.105  0.3786 -0.3259 -1.6610
   8723SM  C14F11706   3.709   1.422  13.199 -0.4677 -1.5108 -0.3980
   8723SM  H14F11707   3.613   1.466  13.162  0.0593 -0.1135 -0.1827
   8723SM  H14G11708   3.777   1.509  13.190 -1.4043 -0.7506 -0.3174
   8723SM  C15F11709   3.680   1.385  13.341 -0.7234 -0.4580 -0.3196
   8723SM  H15F11710   3.773   1.341  13.384 -1.1722  0.2823  1.5242
   8723SM  H15G11711   3.598   1.311  13.344 -1.6692  0.4944 -1.7052
   8723SM  C16F11712   3.647   1.507  13.426 -0.3094  0.1289 -0.4674
   8723SM  H16F11713   3.556   1.561  13.391 -0.2805 -0.3042 -1.2144
   8723SM  H16G11714   3.731   1.580  13.421  0.4154 -0.5748  0.7213
   8723SM  C17F11715   3.642   1.479  13.586 -0.3092 -0.6678  0.1036
   8723SM  H17F11716   3.565   1.400  13.601 -2.2961  1.0368 -0.5989
   8723SM  H17G11717   3.623   1.580  13.627  1.5896  0.3717 -1.3841
   8723SM  C18F11718   3.775   1.435  13.654  0.2872  0.4527  0.2946
   8723SM  H18F11719   3.839   1.525  13.664 -1.3447  1.5680  1.1664
   8723SM  H18G11720   3.838   1.368  13.593  0.5823 -0.7806  1.8933
   8723SM  C19F11721   3.755   1.376  13.799  0.2109  0.1968  1.0787
   8723SM  H19F11722   3.860   1.384  13.834  0.9528  0.0792 -0.9659
   8723SM  H19G11723   3.736   1.267  13.794  0.5289  0.1393  1.0992
   8723SM  C20F11724   3.647   1.459  13.871  0.6679 -0.6084 -0.2529
   8723SM  H20F11725   3.545   1.430  13.837  0.4946 -0.2480 -0.0432
   8723SM  H20G11726   3.660   1.565  13.841 -1.5298  0.1847  1.3482
   8723SM  C21F11727   3.648   1.448  14.022  0.3677  0.8673 -0.4484
   8723SM  H21F11728   3.746   1.480  14.064  0.5993 -1.2923  0.8642
   8723SM  H21G11729   3.651   1.343  14.061  0.6931  1.1476  0.3100
   8723SM  C22F11730   3.548   1.538  14.097 -0.2918 -0.3140  0.3961
   8723SM  H22F11731   3.546   1.503  14.202  1.5909 -2.2398 -0.1508
   8723SM  H22G11732   3.443   1.524  14.062 -0.1839 -0.0811 -0.0396
   8723SM  C23F11733   3.592   1.682  14.091 -0.3931 -0.1352 -0.1738
   8723SM  H23F11734   3.515   1.743  14.142  0.8113  2.0811 -0.8833
   8723SM  H23G11735   3.591   1.718  13.986  1.1875  3.8832  1.0178
   8723SM  H23H11736   3.687   1.701  14.146 -0.2720 -1.1041 -0.0243
   8823SM     N11737   2.178   2.045  11.883  0.0201 -0.5190  0.3144
   8823SM   C1511738   2.032   2.084  11.885  0.6247 -0.3504  0.0224
   8823SM  H15A11739   2.019   2.153  11.804 -0.1284 -0.6345 -0.1072
   8823SM  H15B11740   2.005   2.136  11.976  1.8652 -0.8057  0.6885
   8823SM  H15C11741   1.964   2.000  11.883  0.9210 -0.6684  1.7406
   8823SM   C1411742   2.206   1.955  12.005  0.6765 -0.3743  0.3675
   8823SM  H14A11743   2.162   1.857  11.994  1.7335 -0.8215 -0.1135
   8823SM  H14B11744   2.198   2.010  12.097  2.4695  0.0407  0.3193
   8823SM  H14C11745   2.310   1.927  11.993  1.0522  1.5275 -1.3077
   8823SM   C1311746   2.213   1.973  11.763  0.0761  0.3107  0.5873
   8823SM  H13A11747   2.312   1.996  11.727 -0.3603  0.0879 -0.8130
   8823SM  H13B11748   2.155   2.015  11.683  1.6125  1.6284  0.1062
   8823SM  H13C11749   2.205   1.865  11.771 -1.9164  0.4522  0.9275
   8823SM   C1211750   2.274   2.163  11.888 -0.3677 -0.5090 -0.8881
   8823SM  H12A11751   2.278   2.206  11.789 -1.5403  0.0925 -0.6989
   8823SM  H12B11752   2.375   2.135  11.914 -0.1673  0.9790  0.0407
   8823SM   C1111753   2.232   2.275  11.988 -0.6795  0.0625 -0.1469
   8823SM  H11A11754   2.126   2.307  11.980 -0.7234  0.7660  2.3665
   8823SM  H11B11755   2.286   2.370  11.975  0.5722 -0.4657  0.9521
   8823SM     P11756   2.340   2.281  12.232 -0.0359 -0.6189  0.1954
   8823SM   O1311757   2.358   2.177  12.333 -0.2944 -0.1748  0.2661
   8823SM   O1411758   2.463   2.331  12.164  0.3507  0.5170  0.3537
   8823SM   O1111759   2.274   2.402  12.309 -0.8407  0.1494 -0.2593
   8823SM   O1211760   2.235   2.234  12.125  0.2352 -0.2398  0.1567
   8823SM   C1S11761   2.146   2.388  12.365  0.2022  0.3685  0.0500
   8823SM   H1S11762   2.074   2.322  12.311 -0.4607 -0.6211  2.0587
   8823SM   H1T11763   2.099   2.488  12.370 -0.0095  0.2039  2.1312
   8823SM    NF11764   2.011   2.313  12.549  0.8997  0.0253 -0.3080
   8823SM   HNF11765   1.965   2.399  12.573  2.5638  1.3496 -1.5407
   8823SM   C2S11766   2.151   2.339  12.514 -1.1872  0.5012  0.3666
   8823SM   H2S11767   2.208   2.244  12.521 -2.1433 -0.1057  0.1327
   8823SM   C3S11768   2.230   2.442  12.598 -0.0531 -0.6429 -0.2711
   8823SM   H3S11769   2.186   2.542  12.578 -0.3820 -0.4772  1.1922
   8823SM    O311770   2.366   2.458  12.561 -0.4702  0.6471  0.4693
   8823SM   HO311771   2.372   2.403  12.483  1.0363  1.0398  0.2688
   8823SM   C4S11772   2.226   2.422  12.751  0.2919 -0.2411 -0.4191
   8823SM   H4S11773   2.238   2.321  12.791 -1.8163 -0.5431 -0.4217
   8823SM   C5S11774   2.193   2.523  12.845 -0.5735  0.4118  0.6963
   8823SM   H5S11775   2.180   2.622  12.800  3.4715  1.8290  2.2096
   8823SM   C6S11776   2.191   2.507  12.991 -0.6403 -0.4988 -0.9863
   8823SM   H6S11777   2.129   2.590  13.031  0.1622  0.5115 -1.7790
   8823SM   H6T11778   2.293   2.518  13.034 -0.3012 -0.5431 -1.7699
   8823SM   C7S11779   2.150   2.373  13.046 -0.2627  0.0434  0.6242
   8823SM   H7S11780   2.228   2.311  12.997  0.8277  1.6848  0.1946
   8823SM   H7T11781   2.052   2.346  13.001  0.0724 -2.3696  1.2387
   8823SM   C8S11782   2.146   2.367  13.196 -0.2778 -0.1293 -0.3534
   8823SM   H8S11783   2.070   2.432  13.245  2.7813  3.5044  0.0701
   8823SM   H8T11784   2.244   2.406  13.229  1.0060 -2.8731 -0.6979
   8823SM   C9S11785   2.128   2.220  13.245 -0.7887 -0.0529 -0.4292
   8823SM   H9S11786   2.203   2.158  13.192 -1.2285 -0.4763 -0.5647
   8823SM   H9T11787   2.027   2.187  13.213 -1.0787  0.8712 -0.5069
   8823SM  C10S11788   2.141   2.203  13.396  0.3169  0.6419  0.6803
   8823SM  H10S11789   2.239   2.254  13.406  0.3885  0.7151 -0.3389
   8823SM  H10T11790   2.151   2.095  13.421 -2.1194  0.7934  2.6803
   8823SM  C11S11791   2.055   2.268  13.500 -0.1244  0.1462 -0.8608
   8823SM  H11S11792   2.068   2.378  13.495 -1.3199  0.2723 -1.4856
   8823SM  H11T11793   2.077   2.251  13.607 -0.6857 -0.2598 -0.8008
   8823SM  C12S11794   1.898   2.252  13.482  0.4416 -0.7080  0.8756
   8823SM  H12S11795   1.868   2.272  13.377 -1.5637 -0.4043  1.4771
   8823SM  H12T11796   1.838   2.321  13.543  0.1587 -1.4688  1.4744
   8823SM  C13S11797   1.857   2.109  13.514 -0.0929 -0.1406 -0.3335
   8823SM  H13S11798   1.914   2.094  13.608  0.6126  3.1890 -0.0854
   8823SM  H13T11799   1.897   2.044  13.433  0.5697  0.1622 -0.2630
   8823SM  C14S11800   1.705   2.100  13.523  0.1921  0.2565 -0.3992
   8823SM  H14S11801   1.654   2.131  13.429  1.2213  0.8229 -0.7838
   8823SM  H14T11802   1.670   2.160  13.609 -2.4340  1.7845 -2.3702
   8823SM  C15S11803   1.658   1.959  13.554 -0.1222  0.4315  0.1881
   8823SM  H15S11804   1.703   1.897  13.473 -0.4396  1.1733 -0.5623
   8823SM  H15T11805   1.547   1.958  13.553 -0.1622  0.5015  2.0250
   8823SM  C16S11806   1.710   1.914  13.691 -0.1858 -0.3804 -0.1560
   8823SM  H16S11807   1.684   1.994  13.764 -0.7215  0.2861 -1.0664
   8823SM  H16T11808   1.820   1.899  13.689 -0.0644  0.5261 -1.6248
   8823SM  C17S11809   1.638   1.789  13.725 -0.3511 -0.0656 -0.2562
   8823SM  H17S11810   1.613   1.722  13.640 -2.0265 -0.4663  0.5008
   8823SM  H17T11811   1.535   1.812  13.762  0.4368  0.9117  1.4472
   8823SM  C18S11812   1.711   1.710  13.839 -0.2066  0.3306  0.2591
   8823SM  H18S11813   1.724   1.771  13.931 -0.6338  0.7629  0.0368
   8823SM  H18T11814   1.809   1.680  13.795 -0.8016 -1.5090  0.1130
   8823SM  H18U11815   1.674   1.609  13.866 -2.8906 -0.1458 -4.3001
   8823SM   C1F11816   1.953   2.192  12.539  0.2146 -0.5799  0.3493
   8823SM    OF11817   2.020   2.107  12.474  0.0011  0.1626  0.2126
   8823SM   C2F11818   1.811   2.182  12.590  0.1956  0.0545 -0.1653
   8823SM   H2F11819   1.734   2.177  12.510  0.9683 -2.0566 -0.8498
   8823SM   H2G11820   1.800   2.266  12.662  0.5712  1.3515 -1.5820
   8823SM   C3F11821   1.798   2.045  12.670  0.6077 -0.3697 -0.8985
   8823SM   H3F11822   1.834   1.959  12.610 -0.6226 -0.7912 -1.0559
   8823SM   H3G11823   1.692   2.026  12.697  1.0028 -1.5023 -0.0580
   8823SM   C4F11824   1.885   2.032  12.800 -0.4464 -0.2272  0.4976
   8823SM   H4F11825   1.992   2.020  12.771 -0.4739  0.5998  0.0219
   8823SM   H4G11826   1.840   1.938  12.839  0.7081 -0.4391  1.3826
   8823SM   C5F11827   1.869   2.151  12.897 -0.3334 -0.3727  0.5954
   8823SM   H5F11828   1.900   2.251  12.859 -2.0299  0.3554  1.0460
   8823SM   H5G11829   1.942   2.114  12.972  0.8057 -1.8333 -1.1528
   8823SM   C6F11830   1.729   2.178  12.965 -0.0011 -0.1739 -0.0082
   8823SM   H6F11831   1.688   2.085  13.009  0.0107 -0.5436 -0.7620
   8823SM   H6G11832   1.658   2.203  12.883  0.8377 -1.2273 -1.1012
   8823SM   C7F11833   1.741   2.286  13.071  0.1083 -0.1228 -0.4224
   8823SM   H7F11834   1.813   2.367  13.044  0.6499  0.3035  2.0465
   8823SM   H7G11835   1.800   2.243  13.154  2.4767 -0.2377 -2.0457
   8823SM   C8F11836   1.606   2.338  13.118  0.0510  0.0324  0.7104
   8823SM   H8F11837   1.534   2.259  13.151 -1.3561  0.2119 -1.6655
   8823SM   H8G11838   1.547   2.371  13.030 -1.4000 -2.2605  0.7316
   8823SM   C9F11839   1.613   2.462  13.212  0.2509 -0.6062 -0.4449
   8823SM   H9F11840   1.670   2.540  13.156 -0.5553 -0.2931 -0.8394
   8823SM   H9G11841   1.671   2.439  13.304  0.1072 -1.2725 -0.5185
   8823SM  C10F11842   1.485   2.544  13.234 -0.7925 -0.1710 -0.3181
   8823SM  H10F11843   1.420   2.556  13.145 -0.2074  1.4328 -0.5578
   8823SM  H10G11844   1.521   2.643  13.268  1.3112 -0.4493 -1.5827
   8823SM  C11F11845   1.402   2.510  13.366 -1.0617  0.3899  0.2796
   8823SM  H11F11846   1.312   2.575  13.373 -0.1431  1.8941 -1.0188
   8823SM  H11G11847   1.467   2.533  13.453  0.1325  0.8016 -0.6814
   8823SM  C12F11848   1.373   2.365  13.385  1.0008 -0.1078  0.4728
   8823SM  H12F11849   1.468   2.310  13.405  1.3791  0.4632  0.2844
   8823SM  H12G11850   1.320   2.323  13.298 -1.2804  0.8934  1.3055
   8823SM  C13F11851   1.290   2.336  13.511 -0.4582  0.1538 -0.3377
   8823SM  H13F11852   1.184   2.366  13.498 -0.7245 -0.7099 -0.1782
   8823SM  H13G11853   1.318   2.397  13.600 -0.4936 -1.2547  0.6653
   8823SM  C14F11854   1.284   2.187  13.559  0.3612  0.1242 -0.2328
   8823SM  H14F11855   1.383   2.140  13.577  0.0743  0.1706  1.6240
   8823SM  H14G11856   1.248   2.124  13.475  3.1929 -4.1118  1.3462
   8823SM  C15F11857   1.190   2.169  13.683  0.1897 -0.3838 -0.4863
   8823SM  H15F11858   1.086   2.179  13.646 -0.0540 -0.9135  0.0364
   8823SM  H15G11859   1.216   2.250  13.756  1.7974 -1.3096  0.0252
   8823SM  C16F11860   1.199   2.034  13.734  0.1013  0.8671  0.0379
   8823SM  H16F11861   1.294   2.018  13.790 -0.0043  0.2083  0.0346
   8823SM  H16G11862   1.183   1.966  13.648 -3.0677  2.3219 -0.6626
   8823SM  C17F11863   1.079   1.990  13.831 -0.1321 -0.3051  0.4867
   8823SM  H17F11864   1.082   2.070  13.908  1.4287  0.5256 -0.4028
   8823SM  H17G11865   1.103   1.890  13.875 -1.9189 -0.5409  1.0242
   8823SM  C18F11866   0.951   1.968  13.753 -0.3174  1.3444 -0.4677
   8823SM  H18F11867   0.975   1.898  13.670  1.0945  0.3673  0.7101
   8823SM  H18G11868   0.900   2.055  13.706 -1.3156 -0.1045 -2.2184
   8823SM  C19F11869   0.844   1.912  13.847 -0.0771 -0.1360 -0.3780
   8823SM  H19F11870   0.881   1.822  13.900  1.0069  1.0194  0.9133
   8823SM  H19G11871   0.748   1.883  13.800 -1.5150  0.2503  2.1098
   8823SM  C20F11872   0.800   2.020  13.954  0.7793 -0.0176 -0.2873
   8823SM  H20F11873   0.771   2.115  13.905 -1.6931  0.5859  2.1095
   8823SM  H20G11874   0.884   2.029  14.026  1.2712 -2.8253 -0.4102
   8823SM  C21F11875   0.675   1.964  14.025  0.2726 -0.2820  0.0579
   8823SM  H21F11876   0.693   1.857  14.048  0.0755 -0.1027  1.1054
   8823SM  H21G11877   0.580   1.978  13.970  0.8852  0.9744 -0.7067
   8823SM  C22F11878   0.643   2.047  14.156 -0.8317  0.1776 -0.0143
   8823SM  H22F11879   0.652   2.153  14.124 -0.0115  0.6486  1.6811
   8823SM  H22G11880   0.722   2.026  14.231 -1.2575 -0.7646  0.1904
   8823SM  C23F11881   0.509   2.011  14.213 -0.5030  0.2768 -0.3095
   8823SM  H23F11882   0.514   1.902  14.232 -0.9196  0.1540 -0.8632
   8823SM  H23G11883   0.441   2.026  14.125  1.9200  3.5955 -1.8473
   8823SM  H23H11884   0.489   2.082  14.296  0.3739  1.0470 -0.7321
   8923SM     N11885   5.780   2.161  11.259 -0.6019  0.4330  0.6805
   8923SM   C1511886   5.894   2.084  11.325  0.0935  0.2312  0.4892
   8923SM  H15A11887   5.975   2.092  11.255 -1.9736  2.3851 -1.8827
   8923SM  H15B11888   5.867   1.979  11.326 -0.7411  0.4414  0.9778
   8923SM  H15C11889   5.925   2.126  11.420  2.6477  0.4341 -0.3696
   8923SM   C1411890   5.739   2.088  11.134 -0.2262 -0.0938  0.0055
   8923SM  H14A11891   5.693   1.994  11.160  2.2495 -1.3175  0.1978
   8923SM  H14B11892   5.820   2.074  11.063  0.3260  0.8138  0.4400
   8923SM  H14C11893   5.666   2.145  11.078 -0.3978 -1.9879 -1.8167
   8923SM   C1311894   5.657   2.175  11.348 -0.0188 -0.4389 -0.5660
   8923SM  H13A11895   5.666   2.238  11.435 -0.8181 -2.2668  0.8977
   8923SM  H13B11896   5.628   2.077  11.384 -3.2392  0.3107 -0.8292
   8923SM  H13C11897   5.580   2.225  11.292  0.4224  0.9521  0.0200
   8923SM   C1211898   5.835   2.300  11.223 -0.1454 -0.1271 -0.3129
   8923SM  H12A11899   5.853   2.352  11.316  0.3464 -1.2325  0.2343
   8923SM  H12B11900   5.759   2.360  11.175 -2.7857 -1.6865  1.6553
   8923SM   C1111901   5.965   2.308  11.134  0.1835  0.1236 -0.2673
   8923SM  H11A11902   5.980   2.413  11.100  0.7700  0.1099 -0.0600
   8923SM  H11B11903   5.939   2.241  11.049 -1.6203 -0.0701  0.4016
   8923SM     P11904   6.180   2.350  11.283 -0.2370  0.2242 -0.2189
   8923SM   O1311905   6.318   2.331  11.232  0.4069  0.4309 -0.2761
   8923SM   O1411906   6.127   2.488  11.281 -0.0392  0.3515  0.7620
   8923SM   O1111907   6.157   2.276  11.424 -0.4850 -0.5672 -0.4010
   8923SM   O1211908   6.090   2.258  11.189 -0.4187 -0.9993  0.5151
   8923SM   C1S11909   6.209   2.151  11.463 -1.0159 -0.3874  0.1970
   8923SM   H1S11910   6.294   2.135  11.394 -1.6025  1.2901 -0.9778
   8923SM   H1T11911   6.145   2.063  11.438  0.6848 -1.8058  0.6113
   8923SM    NF11912   6.328   2.026  11.644  0.9104 -0.6726  0.0389
   8923SM   HNF11913   6.289   1.953  11.699 -0.2627  0.6842  1.1051
   8923SM   C2S11914   6.243   2.138  11.613  0.1621 -0.5089  0.3023
   8923SM   H2S11915   6.306   2.223  11.647 -0.5883 -0.2686  1.1302
   8923SM   C3S11916   6.118   2.150  11.701 -0.4829  0.4527 -0.1696
   8923SM   H3S11917   6.049   2.066  11.677 -1.3786  1.3376 -0.7387
   8923SM    O311918   6.030   2.254  11.666  0.4551  0.1919  0.5497
   8923SM   HO311919   6.075   2.293  11.591  0.8028 -1.4507 -0.1448
   8923SM   C4S11920   6.164   2.158  11.848  0.3258 -0.1515 -0.2285
   8923SM   H4S11921   6.158   2.061  11.901 -2.1939 -0.6598 -1.2801
   8923SM   C5S11922   6.188   2.267  11.922 -0.0025 -0.6795  0.4029
   8923SM   H5S11923   6.158   2.367  11.888 -1.8988 -1.1378  0.6403
   8923SM   C6S11924   6.249   2.256  12.059 -0.6078  0.0397 -0.3283
   8923SM   H6S11925   6.341   2.316  12.075  0.8502 -2.2677  0.4078
   8923SM   H6T11926   6.280   2.153  12.084 -0.6628  0.4788  1.7451
   8923SM   C7S11927   6.152   2.296  12.172 -0.5733  0.3842  0.2547
   8923SM   H7S11928   6.056   2.249  12.142 -0.7159 -0.0822  1.4192
   8923SM   H7T11929   6.135   2.406  12.170  1.1614  0.6900  0.8404
   8923SM   C8S11930   6.206   2.271  12.316 -0.5191  0.1465  0.4128
   8923SM   H8S11931   6.287   2.343  12.340 -0.2759 -0.9452  3.1926
   8923SM   H8T11932   6.253   2.170  12.325  0.5646  0.5818 -0.1679
   8923SM   C9S11933   6.103   2.282  12.432 -0.3460  0.6035  0.1348
   8923SM   H9S11934   6.018   2.214  12.410 -0.3400  0.8519 -0.6932
   8923SM   H9T11935   6.068   2.387  12.437  0.9633  1.0711 -0.1050
   8923SM  C10S11936   6.165   2.242  12.567 -0.7909 -0.2161 -1.0570
   8923SM  H10S11937   6.273   2.269  12.566 -0.4128 -1.5664  0.3209
   8923SM  H10T11938   6.177   2.135  12.593 -0.1245  0.5066  2.0946
   8923SM  C11S11939   6.099   2.303  12.691 -0.2235 -0.2267 -0.5605
   8923SM  H11S11940   6.012   2.237  12.714  0.2373 -0.1243  1.7923
   8923SM  H11T11941   6.054   2.399  12.659 -1.9760  0.4355  3.2481
   8923SM  C12S11942   6.188   2.321  12.814  0.5895  0.0488  0.2408
   8923SM  H12S11943   6.132   2.383  12.887  1.6412  1.4074 -0.0607
   8923SM  H12T11944   6.282   2.370  12.780  0.0350  0.1293 -1.2801
   8923SM  C13S11945   6.231   2.199  12.891  0.3790 -0.8040  0.8191
   8923SM  H13S11946   6.296   2.125  12.839  0.2197 -0.5234  0.2124
   8923SM  H13T11947   6.136   2.145  12.911 -1.4382  2.0781  0.5089
   8923SM  C14S11948   6.277   2.237  13.036 -0.7414 -0.0494  0.5965
   8923SM  H14S11949   6.201   2.302  13.084 -1.3309 -0.3448  0.0870
   8923SM  H14T11950   6.375   2.288  13.046 -0.2128 -0.8652 -0.1857
   8923SM  C15S11951   6.278   2.110  13.118 -0.2735 -0.4644 -0.2175
   8923SM  H15S11952   6.364   2.052  13.080 -0.3999 -0.0650 -1.1700
   8923SM  H15T11953   6.189   2.044  13.113 -0.9952  0.1832  2.5008
   8923SM  C16S11954   6.314   2.133  13.268  0.5400  0.5151 -0.6153
   8923SM  H16S11955   6.240   2.202  13.316  0.1445 -0.7408  0.6420
   8923SM  H16T11956   6.419   2.169  13.272  0.6008  0.4558 -1.5085
   8923SM  C17S11957   6.302   2.000  13.356 -0.1202 -0.7012  0.1545
   8923SM  H17S11958   6.380   1.926  13.327  0.6207  0.9418 -2.2877
   8923SM  H17T11959   6.205   1.946  13.346 -0.0803 -0.3802 -2.9317
   8923SM  C18S11960   6.324   2.024  13.506  0.5124  0.3685  0.6158
   8923SM  H18S11961   6.254   2.101  13.545 -0.6803  0.4617 -1.5748
   8923SM  H18T11962   6.425   2.054  13.543 -0.3517  1.4490  2.2072
   8923SM  H18U11963   6.311   1.927  13.557  1.7330 -0.2533 -0.2051
   8923SM   C1F11964   6.444   2.004  11.576  0.0614 -0.4711 -0.4762
   8923SM    OF11965   6.509   2.096  11.519 -0.4589  0.3413 -0.0288
   8923SM   C2F11966   6.491   1.862  11.566  0.1819 -0.4876 -0.5004
   8923SM   H2F11967   6.572   1.857  11.489  0.1347 -0.4271 -0.5535
   8923SM   H2G11968   6.409   1.797  11.530 -0.7471  1.1656 -1.4504
   8923SM   C3F11969   6.550   1.815  11.705 -0.1831 -0.7392  0.0088
   8923SM   H3F11970   6.472   1.821  11.784  0.2430  2.6224  0.3265
   8923SM   H3G11971   6.628   1.887  11.737 -0.1048 -0.5117 -0.6625
   8923SM   C4F11972   6.600   1.669  11.704  0.4827 -0.0649  0.3282
   8923SM   H4F11973   6.711   1.669  11.701  0.5047 -0.8755  1.0087
   8923SM   H4G11974   6.552   1.613  11.621 -0.7701  1.2874  0.1085
   8923SM   C5F11975   6.569   1.593  11.831  0.4886  0.2602  0.2138
   8923SM   H5F11976   6.617   1.493  11.835 -0.2200 -0.1095 -0.2816
   8923SM   H5G11977   6.460   1.580  11.846  0.8410 -2.4326  0.8854
   8923SM   C6F11978   6.620   1.662  11.959  0.2855 -0.5577 -0.7001
   8923SM   H6F11979   6.584   1.766  11.975 -2.5992 -1.2800 -1.8522
   8923SM   H6G11980   6.731   1.665  11.962  0.3454 -2.1516  2.0623
   8923SM   C7F11981   6.560   1.582  12.078  0.7684  0.1341 -0.3777
   8923SM   H7F11982   6.583   1.474  12.062 -1.3947  0.0219 -3.8270
   8923SM   H7G11983   6.450   1.592  12.079  0.7870  1.0636 -2.4710
   8923SM   C8F11984   6.620   1.617  12.216  0.6379  0.7049  0.9856
   8923SM   H8F11985   6.615   1.727  12.230 -1.3550  0.7310  0.3223
   8923SM   H8G11986   6.731   1.606  12.219  0.3912 -3.4687  1.9883
   8923SM   C9F11987   6.560   1.532  12.327 -0.3042  0.6068  0.2308
   8923SM   H9F11988   6.606   1.431  12.321 -1.7579 -0.0875  0.3199
   8923SM   H9G11989   6.452   1.504  12.329 -0.0131 -0.6290 -0.0704
   8923SM  C10F11990   6.564   1.593  12.466  0.8421  0.6058 -0.6456
   8923SM  H10F11991   6.541   1.702  12.468  0.1555  0.4942 -1.5695
   8923SM  H10G11992   6.667   1.610  12.503  1.6972  4.0937 -3.9868
   8923SM  C11F11993   6.498   1.504  12.577  1.1216 -0.3214 -0.6139
   8923SM  H11F11994   6.490   1.398  12.545  0.9634 -1.2078  2.0765
   8923SM  H11G11995   6.393   1.541  12.590  0.7375 -1.3362 -0.7881
   8923SM  C12F11996   6.564   1.504  12.718 -0.6951 -0.2170  0.1692
   8923SM  H12F11997   6.564   1.611  12.748 -2.5018 -0.1169 -0.0893
   8923SM  H12G11998   6.666   1.461  12.706 -0.0375  0.2449  3.2851
   8923SM  C13F11999   6.489   1.437  12.828 -0.3622  0.1022 -0.1137
   8923SM  H13F12000   6.444   1.345  12.784 -3.1508  2.0287 -1.5896
   8923SM  H13G12001   6.402   1.500  12.856 -0.4210  0.1474 -0.3945
   8923SM  C14F12002   6.571   1.409  12.956 -0.3025 -0.4066 -1.4974
   8923SM  H14F12003   6.630   1.501  12.971  1.8050 -1.7990 -0.9118
   8923SM  H14G12004   6.632   1.323  12.920 -0.8562  0.1067 -3.8940
   8923SM  C15F12005   6.500   1.368  13.082 -0.6128 -0.0255  0.5125
   8923SM  H15F12006   6.467   1.263  13.071  0.3427 -0.2380 -0.6619
   8923SM  H15G12007   6.414   1.435  13.103 -0.2113  0.7417 -0.1846
   8923SM  C16F12008   6.595   1.361  13.204 -0.0578  0.1390 -1.2583
   8923SM  H16F12009   6.618   1.461  13.248 -0.3449 -0.1228 -0.4905
   8923SM  H16G12010   6.697   1.322  13.185 -0.2057 -2.3894  2.1570
   8923SM  C17F12011   6.538   1.273  13.323  0.0054  0.4069 -0.2731
   8923SM  H17F12012   6.546   1.165  13.298  2.2825  0.7097 -1.0165
   8923SM  H17G12013   6.436   1.313  13.342  0.1072  0.5866 -0.1073
   8923SM  C18F12014   6.618   1.279  13.458 -0.4471 -0.5007  0.0727
   8923SM  H18F12015   6.579   1.210  13.535 -0.4228  0.2134  0.7429
   8923SM  H18G12016   6.612   1.380  13.505 -0.6865 -1.1315  1.4269
   8923SM  C19F12017   6.768   1.265  13.440  0.2624  0.4662 -0.0358
   8923SM  H19F12018   6.810   1.327  13.358  2.3737  0.8678  1.2756
   8923SM  H19G12019   6.783   1.158  13.412  0.6428  0.9363 -1.7466
   8923SM  C20F12020   6.850   1.317  13.559  0.2671 -0.1551  0.1337
   8923SM  H20F12021   6.827   1.262  13.653  1.7467  2.2276  1.9991
   8923SM  H20G12022   6.834   1.425  13.577 -1.1734 -0.3751  0.2772
   8923SM  C21F12023   7.000   1.302  13.552  0.0765  0.5512  0.3387
   8923SM  H21F12024   7.042   1.297  13.655 -0.0286  0.0357  0.3608
   8923SM  H21G12025   7.041   1.390  13.498  0.4377 -0.1529 -0.5654
   8923SM  C22F12026   7.044   1.173  13.477  0.1699 -1.0894  0.3807
   8923SM  H22F12027   7.155   1.187  13.473 -0.2918  3.5241 -1.0384
   8923SM  H22G12028   7.004   1.173  13.373 -0.1597 -1.4006  0.5059
   8923SM  C23F12029   7.020   1.039  13.548 -0.1672 -0.2133 -0.5324
   8923SM  H23F12030   6.916   1.002  13.537 -0.4429 -0.0043  1.0451
   8923SM  H23G12031   7.044   1.056  13.656  1.7460 -1.3645 -0.7266
   8923SM  H23H12032   7.089   0.960  13.512  2.7230  1.3306  1.2576
   9023SM     N12033   6.492   1.384  10.280  0.1756  0.8564  0.6860
   9023SM   C1512034   6.593   1.424  10.176 -0.2676  0.2910  0.9070
   9023SM  H15A12035   6.602   1.531  10.166 -2.1241  0.5291  1.4053
   9023SM  H15B12036   6.559   1.381  10.083  0.8437  2.1993 -0.4518
   9023SM  H15C12037   6.694   1.389  10.195 -0.2670 -0.3214 -0.1567
   9023SM   C1412038   6.360   1.446  10.252  0.8141  0.1256  0.2588
   9023SM  H14A12039   6.282   1.408  10.316  0.3197  0.9426  0.1620
   9023SM  H14B12040   6.321   1.430  10.152 -0.5772  2.1526  0.4269
   9023SM  H14C12041   6.353   1.554  10.252  1.7232  0.1983  1.6626
   9023SM   C1312042   6.472   1.232  10.283 -0.1827 -0.5135  1.0124
   9023SM  H13A12043   6.567   1.187  10.307  0.2177  0.1374  0.6641
   9023SM  H13B12044   6.444   1.203  10.183 -1.9605  0.7991  1.0717
   9023SM  H13C12045   6.392   1.208  10.352 -1.5171 -0.1317 -0.3514
   9023SM   C1212046   6.538   1.438  10.412  0.2283  0.1542 -0.1136
   9023SM  H12A12047   6.555   1.544  10.403  1.9527 -0.0263  0.4866
   9023SM  H12B12048   6.640   1.406  10.429  0.5468  0.1493 -1.8421
   9023SM   C1112049   6.455   1.406  10.539  0.2292  0.0165  0.2033
   9023SM  H11A12050   6.353   1.444  10.518  0.4707  1.0747  0.8513
   9023SM  H11B12051   6.492   1.468  10.624  0.1494  0.2148  0.0934
   9023SM     P12052   6.344   1.220  10.681 -0.1238  0.4773 -0.2608
   9023SM   O1312053   6.220   1.199  10.609  0.5108 -0.3661  0.4328
   9023SM   O1412054   6.410   1.110  10.751  0.3240  0.8335  0.4591
   9023SM   O1112055   6.327   1.344  10.783 -0.5710 -0.8261  0.1121
   9023SM   O1212056   6.447   1.267  10.577 -0.2962 -0.5132  0.6032
   9023SM   C1S12057   6.281   1.331  10.916 -0.5343 -0.3289  0.3338
   9023SM   H1S12058   6.252   1.225  10.934  1.0271 -1.1091 -1.3683
   9023SM   H1T12059   6.190   1.393  10.928 -0.9429 -0.7866 -0.2732
   9023SM    NF12060   6.359   1.353  11.151  0.2199 -0.8158 -0.2654
   9023SM   HNF12061   6.293   1.419  11.185 -2.0512 -1.9371 -2.1710
   9023SM   C2S12062   6.387   1.383  11.015 -0.0822 -0.2063 -0.2980
   9023SM   H2S12063   6.480   1.330  10.985 -0.2798 -0.0688 -1.1967
   9023SM   C3S12064   6.419   1.530  10.986  0.2180 -0.0828  0.5128
   9023SM   H3S12065   6.327   1.588  10.962  0.7718  0.5435 -0.0939
   9023SM    O312066   6.477   1.549  10.863 -0.8228 -0.0019  0.3170
   9023SM   HO312067   6.472   1.464  10.819 -0.4391  0.2630 -0.2661
   9023SM   C4S12068   6.499   1.604  11.094  0.1210  0.2922 -0.1424
   9023SM   H4S12069   6.433   1.659  11.163 -1.4521 -3.8767  1.9755
   9023SM   C5S12070   6.632   1.598  11.106 -0.5216 -0.5369  0.2320
   9023SM   H5S12071   6.693   1.536  11.038 -0.9271 -0.0692 -0.5791
   9023SM   C6S12072   6.706   1.667  11.217 -0.2907 -0.3402 -0.1249
   9023SM   H6S12073   6.681   1.773  11.239 -0.6067 -1.0555  3.7029
   9023SM   H6T12074   6.815   1.660  11.198 -0.1910  0.4665  0.1195
   9023SM   C7S12075   6.687   1.588  11.349  0.1268 -0.5714 -0.3455
   9023SM   H7S12076   6.579   1.593  11.374  0.0314 -0.5505 -0.7567
   9023SM   H7T12077   6.744   1.634  11.432  0.6108 -1.0513 -0.4027
   9023SM   C8S12078   6.749   1.446  11.342 -0.6154 -0.2537 -0.4617
   9023SM   H8S12079   6.858   1.464  11.341 -0.7631  1.1397  1.4299
   9023SM   H8T12080   6.711   1.388  11.255 -1.8960  1.2744 -0.9784
   9023SM   C9S12081   6.726   1.371  11.475 -0.2835 -0.4992  0.2364
   9023SM   H9S12082   6.619   1.342  11.479 -0.4896 -0.5723 -3.0377
   9023SM   H9T12083   6.752   1.443  11.555  2.0396  0.0692 -0.9409
   9023SM  C10S12084   6.823   1.254  11.495 -0.0768 -0.7607  0.3481
   9023SM  H10S12085   6.931   1.278  11.483 -0.1085 -0.6940  0.1944
   9023SM  H10T12086   6.799   1.176  11.419 -2.1637  2.5043 -2.6525
   9023SM  C11S12087   6.795   1.191  11.627  0.1435 -0.4493 -0.5228
   9023SM  H11S12088   6.826   1.084  11.626  1.4274 -0.1298  0.8533
   9023SM  H11T12089   6.685   1.191  11.640  0.1026  1.1400 -0.6590
   9023SM  C12S12090   6.852   1.275  11.747  0.1325  0.6138 -0.0523
   9023SM  H12S12091   6.817   1.379  11.761  0.2020  0.7721 -0.9768
   9023SM  H12T12092   6.961   1.286  11.728 -0.0838  2.0477 -0.6259
   9023SM  C13S12093   6.820   1.204  11.880  0.5838  0.4882  0.8860
   9023SM  H13S12094   6.866   1.104  11.865 -2.0521 -0.7258  0.2327
   9023SM  H13T12095   6.710   1.187  11.881  0.8584 -1.5039  1.6190
   9023SM  C14S12096   6.861   1.274  12.011 -0.3521  0.1742 -0.0876
   9023SM  H14S12097   6.810   1.372  12.019  0.1252  0.4171  0.0213
   9023SM  H14T12098   6.970   1.293  12.010 -0.0738 -1.2863  0.3892
   9023SM  C15S12099   6.834   1.202  12.143  0.0409 -0.3690 -0.1115
   9023SM  H15S12100   6.892   1.107  12.156 -2.1287 -1.9846 -1.5275
   9023SM  H15T12101   6.734   1.159  12.164 -0.1375  0.6464  1.2548
   9023SM  C16S12102   6.877   1.294  12.259  0.4319  0.1462  0.0009
   9023SM  H16S12103   6.799   1.372  12.266 -0.7581 -0.8604 -1.3711
   9023SM  H16T12104   6.974   1.346  12.247  0.0181  0.9655  0.1657
   9023SM  C17S12105   6.894   1.231  12.398  0.3957 -0.6695  0.1776
   9023SM  H17S12106   6.973   1.281  12.458  0.8454 -0.5436 -0.5065
   9023SM  H17T12107   6.945   1.134  12.377  0.9669 -0.7329  1.7652
   9023SM  C18S12108   6.769   1.197  12.475 -0.1333 -0.3841  0.0233
   9023SM  H18S12109   6.706   1.288  12.480  0.3648  0.1074 -1.7647
   9023SM  H18T12110   6.804   1.174  12.578  0.2294 -0.8678 -0.2043
   9023SM  H18U12111   6.709   1.116  12.427 -0.6754  0.2915 -0.4625
   9023SM   C1F12112   6.356   1.225  11.191 -0.6003 -0.0732 -0.7054
   9023SM    OF12113   6.431   1.138  11.145  0.5345 -0.4660 -0.1212
   9023SM   C2F12114   6.257   1.197  11.298 -0.1217 -0.4243 -0.6734
   9023SM   H2F12115   6.213   1.096  11.287 -0.5171 -0.2493 -0.7216
   9023SM   H2G12116   6.175   1.271  11.284 -1.6007 -1.9505 -0.3672
   9023SM   C3F12117   6.312   1.226  11.442  0.5017 -0.1868  0.0799
   9023SM   H3F12118   6.370   1.320  11.446 -1.3905  1.0115  2.2463
   9023SM   H3G12119   6.391   1.154  11.471  1.5574  2.0228  3.2850
   9023SM   C4F12120   6.204   1.224  11.550  0.4744 -0.1156 -0.5088
   9023SM   H4F12121   6.141   1.132  11.549 -0.2709  0.3528 -2.5527
   9023SM   H4G12122   6.135   1.307  11.528  1.2406  0.2185 -1.7673
   9023SM   C5F12123   6.259   1.246  11.693 -0.4189 -0.1337  0.2603
   9023SM   H5F12124   6.294   1.350  11.706 -1.1824  0.0318  1.0928
   9023SM   H5G12125   6.340   1.178  11.727 -1.3195 -0.4604  1.8139
   9023SM   C6F12126   6.142   1.232  11.799 -0.0884  0.4054  0.2879
   9023SM   H6F12127   6.066   1.156  11.770  1.9768 -1.6472 -0.0549
   9023SM   H6G12128   6.103   1.335  11.809  0.6243  0.6049  1.1250
   9023SM   C7F12129   6.195   1.198  11.941  0.0981 -0.8341 -1.0744
   9023SM   H7F12130   6.225   1.091  11.937 -3.7830 -2.1516 -0.1443
   9023SM   H7G12131   6.101   1.196  12.000 -0.3252  1.0129 -1.6116
   9023SM   C8F12132   6.291   1.301  11.993  0.1161  0.0743  0.5411
   9023SM   H8F12133   6.242   1.396  11.960 -0.7362 -0.6344 -0.3019
   9023SM   H8G12134   6.383   1.286  11.933 -1.3044 -0.6501 -1.5700
   9023SM   C9F12135   6.328   1.284  12.137  0.5700  0.3687  0.2760
   9023SM   H9F12136   6.426   1.333  12.160  0.7863 -0.3456  0.8981
   9023SM   H9G12137   6.346   1.177  12.161  3.4169  1.0552  1.6452
   9023SM  C10F12138   6.234   1.336  12.250 -0.0605 -0.2453 -0.4919
   9023SM  H10F12139   6.128   1.345  12.217 -0.2531 -0.7261 -0.0108
   9023SM  H10G12140   6.271   1.435  12.285  0.0952 -0.1694 -0.8628
   9023SM  C11F12141   6.237   1.229  12.363 -0.8182  0.0697  0.1831
   9023SM  H11F12142   6.336   1.219  12.412 -1.1583  0.9828  1.1178
   9023SM  H11G12143   6.198   1.132  12.327 -0.8513  0.5005 -0.9934
   9023SM  C12F12144   6.136   1.273  12.474 -0.1801  0.4534 -0.2824
   9023SM  H12F12145   6.031   1.266  12.438  0.3241  1.7275 -2.2162
   9023SM  H12G12146   6.158   1.378  12.503 -1.0767  0.5385  0.1190
   9023SM  C13F12147   6.161   1.188  12.603  0.7757  0.6455  0.2206
   9023SM  H13F12148   6.271   1.189  12.619  0.6836 -1.2228  1.1621
   9023SM  H13G12149   6.121   1.086  12.583  1.7156  0.1899  0.6263
   9023SM  C14F12150   6.092   1.230  12.731 -0.2726  0.0323  0.5370
   9023SM  H14F12151   5.983   1.211  12.722 -0.3544  0.4798  0.5408
   9023SM  H14G12152   6.091   1.341  12.743 -0.5286  0.1797 -0.6915
   9023SM  C15F12153   6.156   1.167  12.855  0.1817  0.3253 -0.3285
   9023SM  H15F12154   6.266   1.183  12.846  0.5090 -1.4819  0.1201
   9023SM  H15G12155   6.153   1.056  12.848  0.0988  0.3296 -0.3612
   9023SM  C16F12156   6.100   1.225  12.988 -0.4760  0.3176 -0.5724
   9023SM  H16F12157   5.989   1.217  12.984 -0.5609  0.5847  0.7775
   9023SM  H16G12158   6.127   1.333  12.989  0.1638  0.2269 -2.8042
   9023SM  C17F12159   6.141   1.138  13.114  0.3734 -0.8012 -0.2599
   9023SM  H17F12160   6.250   1.125  13.128  0.4288  0.3143  0.4478
   9023SM  H17G12161   6.102   1.039  13.082  0.3172 -0.1462 -2.3866
   9023SM  C18F12162   6.070   1.192  13.239  0.1335  0.2858 -1.1675
   9023SM  H18F12163   5.962   1.172  13.220  0.6261 -1.5725 -2.2899
   9023SM  H18G12164   6.074   1.303  13.244  0.7909  0.2251  0.3340
   9023SM  C19F12165   6.117   1.137  13.368 -0.3186 -0.3208  0.0385
   9023SM  H19F12166   6.223   1.167  13.385 -0.5960  1.5572 -1.2864
   9023SM  H19G12167   6.128   1.026  13.365  0.9185 -0.2653  1.3828
   9023SM  C20F12168   6.043   1.184  13.500 -0.6746  0.4805 -0.0460
   9023SM  H20F12169   5.934   1.180  13.480 -1.1233  2.9796  1.4219
   9023SM  H20G12170   6.065   1.293  13.513  0.8990  0.2515 -0.4682
   9023SM  C21F12171   6.073   1.105  13.624  0.1696 -0.3342 -0.6739
   9023SM  H21F12172   6.183   1.099  13.633  0.9195  3.4884 -4.4049
   9023SM  H21G12173   6.021   1.007  13.612  1.6080 -1.6428  2.4534
   9023SM  C22F12174   6.000   1.152  13.757  0.0997  0.7506 -0.7293
   9023SM  H22F12175   6.029   1.259  13.766  0.1594  0.6206  0.8248
   9023SM  H22G12176   6.047   1.098  13.842 -2.5041 -2.1861 -0.9569
   9023SM  C23F12177   5.848   1.135  13.765 -0.2517 -0.3764 -0.5674
   9023SM  H23F12178   5.805   1.183  13.675 -1.3695 -1.9044 -0.8714
   9023SM  H23G12179   5.813   1.186  13.858 -1.4575 -1.3014 -0.4934
   9023SM  H23H12180   5.824   1.027  13.768  1.4233 -0.7889 -0.9944
   9123SM     N12181   5.199   4.214  11.569  0.8765 -0.5668  0.2851
   9123SM   C1512182   5.244   4.133  11.448 -0.3678 -0.4903 -0.8126
   9123SM  H15A12183   5.349   4.146  11.424 -0.2979 -2.9554 -2.1479
   9123SM  H15B12184   5.186   4.151  11.359  0.3287  0.6746 -1.0587
   9123SM  H15C12185   5.245   4.029  11.475  1.4811 -0.1218  0.8026
   9123SM   C1412186   5.183   4.348  11.512 -0.9184  0.1369  0.4875
   9123SM  H14A12187   5.093   4.374  11.458 -0.9493 -0.0024  0.4696
   9123SM  H14B12188   5.269   4.370  11.451 -0.5713  0.0769  0.9537
   9123SM  H14C12189   5.172   4.412  11.598  1.6250  1.6296 -0.1956
   9123SM   C1312190   5.064   4.155  11.613  0.1330 -0.2063 -0.0227
   9123SM  H13A12191   4.988   4.152  11.536 -1.0100  0.0478  1.0483
   9123SM  H13B12192   5.030   4.204  11.703 -2.6106 -2.5788  0.4052
   9123SM  H13C12193   5.070   4.050  11.640 -2.9247 -0.3625  0.4254
   9123SM   C1212194   5.292   4.212  11.680 -0.3452  0.4746  0.0681
   9123SM  H12A12195   5.250   4.266  11.763  0.3918  1.0972  0.0496
   9123SM  H12B12196   5.387   4.257  11.653  0.2666 -0.9632 -0.2871
   9123SM   C1112197   5.325   4.076  11.742  0.0021 -0.1002 -0.2378
   9123SM  H11A12198   5.227   4.026  11.758  0.3794 -1.4955 -1.9950
   9123SM  H11B12199   5.368   4.086  11.844 -0.8749  0.5195  0.0874
   9123SM     P12200   5.561   4.033  11.644 -0.2058  0.0752 -0.1534
   9123SM   O1312201   5.620   3.946  11.541 -0.5743 -0.0832  0.1862
   9123SM   O1412202   5.574   4.182  11.637  0.4929  0.4947 -0.0634
   9123SM   O1112203   5.617   3.988  11.791 -0.5269 -0.7180  0.0606
   9123SM   O1212204   5.407   3.993  11.657  0.2739  0.0237  0.0892
   9123SM   C1S12205   5.628   3.855  11.840 -0.4741 -0.2406  0.0199
   9123SM   H1S12206   5.685   3.807  11.757  1.2866 -0.2382  1.1676
   9123SM   H1T12207   5.533   3.802  11.862  0.1522 -1.4927 -0.1626
   9123SM    NF12208   5.730   3.688  11.999  0.4057  0.0888  0.6602
   9123SM   HNF12209   5.658   3.652  12.058  0.5483  1.4983  1.7522
   9123SM   C2S12210   5.711   3.833  11.970  0.3064 -0.3470 -0.2742
   9123SM   H2S12211   5.806   3.888  11.951  0.5074 -0.1206  1.2522
   9123SM   C3S12212   5.642   3.919  12.078  0.0163 -0.2728 -0.6841
   9123SM   H3S12213   5.534   3.895  12.074  0.7067 -4.1941  0.4417
   9123SM    O312214   5.639   4.060  12.055  0.3375  0.1759  0.0193
   9123SM   HO312215   5.609   4.073  11.965 -2.9305  0.0322  0.9734
   9123SM   C4S12216   5.688   3.906  12.216  0.1198  0.1676  0.5145
   9123SM   H4S12217   5.797   3.916  12.227  0.2055 -0.8385  0.6893
   9123SM   C5S12218   5.616   3.874  12.324  0.9913 -0.5078 -0.3018
   9123SM   H5S12219   5.506   3.872  12.319  1.0448 -1.7538 -1.5603
   9123SM   C6S12220   5.660   3.855  12.474 -0.3506  0.3074  0.4332
   9123SM   H6S12221   5.574   3.813  12.531  0.4129 -0.1053  1.2974
   9123SM   H6T12222   5.684   3.954  12.519  4.9830 -0.6513  0.2650
   9123SM   C7S12223   5.780   3.757  12.487  0.2006  0.1765 -0.2698
   9123SM   H7S12224   5.870   3.794  12.434  2.0653 -3.0044  0.4428
   9123SM   H7T12225   5.763   3.656  12.444  3.7455 -1.2290  1.2127
   9123SM   C8S12226   5.833   3.735  12.631  0.1868  0.1883 -0.1988
   9123SM   H8S12227   5.875   3.832  12.665 -1.8008  0.1184  2.8657
   9123SM   H8T12228   5.915   3.661  12.638 -0.1713 -0.1479  0.6393
   9123SM   C9S12229   5.732   3.681  12.734 -0.5621  1.1121  0.2644
   9123SM   H9S12230   5.691   3.580  12.714 -1.2970  0.9736  2.1924
   9123SM   H9T12231   5.649   3.752  12.720 -0.4728  0.7496 -2.5922
   9123SM  C10S12232   5.789   3.673  12.875 -0.1352 -0.7757  0.3113
   9123SM  H10S12233   5.849   3.764  12.894  0.4290 -0.8548 -1.0199
   9123SM  H10T12234   5.852   3.582  12.889 -0.1043 -0.5806  1.5763
   9123SM  C11S12235   5.676   3.691  12.974 -0.0501  0.5865  0.0404
   9123SM  H11S12236   5.606   3.606  12.955 -1.4940  1.5311  0.9158
   9123SM  H11T12237   5.620   3.784  12.952  0.5302  1.1579  0.9279
   9123SM  C12S12238   5.712   3.664  13.122  0.3055 -0.0586 -0.1640
   9123SM  H12S12239   5.793   3.589  13.137 -0.1497 -0.6533 -0.6585
   9123SM  H12T12240   5.625   3.639  13.186  2.6358 -2.3321  2.4051
   9123SM  C13S12241   5.750   3.795  13.194  0.0987 -0.1569 -0.8632
   9123SM  H13S12242   5.680   3.872  13.156  0.0886  0.0954 -0.3370
   9123SM  H13T12243   5.856   3.811  13.165  0.6057 -0.0259  0.9660
   9123SM  C14S12244   5.756   3.795  13.346 -0.3335  0.1605 -0.1811
   9123SM  H14S12245   5.821   3.719  13.394 -0.4834 -0.4132 -0.8705
   9123SM  H14T12246   5.659   3.767  13.393  0.2476 -2.1871 -0.2615
   9123SM  C15S12247   5.803   3.928  13.411  0.2772  0.0918  0.4963
   9123SM  H15S12248   5.743   4.009  13.364  0.5063 -1.2598 -2.3584
   9123SM  H15T12249   5.902   3.947  13.363 -0.3349 -0.6605 -1.1433
   9123SM  C16S12250   5.799   3.932  13.565  0.5312 -0.6955  0.1452
   9123SM  H16S12251   5.872   4.003  13.609  1.0756 -1.3127  0.2555
   9123SM  H16T12252   5.815   3.831  13.608 -2.5544 -1.1372  0.5165
   9123SM  C17S12253   5.664   3.985  13.621 -0.2674 -0.2161 -0.7823
   9123SM  H17S12254   5.607   3.894  13.650  0.7296 -0.5635  0.1400
   9123SM  H17T12255   5.613   4.049  13.545 -0.3958  2.0693  1.1168
   9123SM  C18S12256   5.698   4.077  13.742 -0.3616  0.7267 -0.8814
   9123SM  H18S12257   5.722   4.178  13.702 -0.9350  1.9912  1.7407
   9123SM  H18T12258   5.788   4.036  13.792  0.3608  1.8563 -1.2144
   9123SM  H18U12259   5.609   4.087  13.808 -1.8039  3.3089 -3.0071
   9123SM   C1F12260   5.811   3.617  11.925  0.6394 -0.0003 -0.7873
   9123SM    OF12261   5.871   3.680  11.839  0.6440 -1.1898 -0.8391
   9123SM   C2F12262   5.824   3.468  11.940  0.3243 -0.2324  0.2052
   9123SM   H2F12263   5.796   3.412  11.848  2.7049 -0.5000 -0.4320
   9123SM   H2G12264   5.747   3.427  12.009 -0.7675 -0.0317 -0.8616
   9123SM   C3F12265   5.970   3.422  11.964  0.2580 -0.0184 -0.3575
   9123SM   H3F12266   6.044   3.479  11.903  1.6508 -2.3098 -0.9418
   9123SM   H3G12267   5.977   3.315  11.938  0.2479 -0.1501  0.1619
   9123SM   C4F12268   6.019   3.445  12.109 -0.4216 -0.2013  0.0168
   9123SM   H4F12269   6.043   3.553  12.122 -1.3012 -0.0186  0.2212
   9123SM   H4G12270   6.120   3.400  12.119  0.4751  1.1752 -1.9900
   9123SM   C5F12271   5.910   3.407  12.211  0.0706 -0.2859  0.4825
   9123SM   H5F12272   5.864   3.309  12.184  2.7841 -1.6531  0.5209
   9123SM   H5G12273   5.824   3.477  12.203  0.7918  0.5211 -0.4102
   9123SM   C6F12274   5.966   3.392  12.352 -0.3743 -1.1547  0.1430
   9123SM   H6F12275   6.011   3.490  12.379  2.0788 -0.9585 -3.7969
   9123SM   H6G12276   6.044   3.314  12.356 -0.2610 -1.0006  1.2372
   9123SM   C7F12277   5.859   3.357  12.455 -0.2976 -0.4627  0.1013
   9123SM   H7F12278   5.777   3.294  12.415 -2.2669 -0.7036  4.0298
   9123SM   H7G12279   5.809   3.451  12.489  1.3274  0.3453  0.3696
   9123SM   C8F12280   5.922   3.290  12.576 -0.1632  0.1619 -0.1838
   9123SM   H8F12281   6.014   3.348  12.601  0.8475 -1.3769 -0.1810
   9123SM   H8G12282   5.939   3.182  12.554 -2.6534 -0.5271  1.0058
   9123SM   C9F12283   5.823   3.291  12.698 -0.0611  0.7521 -0.1234
   9123SM   H9F12284   5.732   3.242  12.657  1.2676 -1.4603 -0.5657
   9123SM   H9G12285   5.818   3.395  12.738 -0.0009  1.1281 -1.0587
   9123SM  C10F12286   5.864   3.213  12.821  0.0957  0.7163  0.2943
   9123SM  H10F12287   5.870   3.105  12.797  2.1927  0.8536  0.0118
   9123SM  H10G12288   5.785   3.224  12.898 -0.8227 -0.1744 -0.4895
   9123SM  C11F12289   5.996   3.259  12.872 -0.3236  0.0109 -0.3613
   9123SM  H11F12290   6.012   3.368  12.859  1.3645  0.1852  2.4621
   9123SM  H11G12291   6.073   3.201  12.818 -1.2900 -0.1422 -1.6400
   9123SM  C12F12292   6.009   3.242  13.026  0.0591 -0.3142 -0.0998
   9123SM  H12F12293   6.113   3.276  13.049 -0.7141  1.3323  1.1505
   9123SM  H12G12294   5.991   3.138  13.059 -0.9490  0.4182  1.8045
   9123SM  C13F12295   5.918   3.326  13.119 -0.3201  0.0152  0.4146
   9123SM  H13F12296   5.811   3.312  13.094 -0.2183  1.1773 -0.7711
   9123SM  H13G12297   5.934   3.435  13.103 -0.3069 -0.2727 -1.7692
   9123SM  C14F12298   5.950   3.299  13.268  0.6992  0.2248 -0.3683
   9123SM  H14F12299   6.053   3.334  13.288  0.7836  0.2406 -0.8091
   9123SM  H14G12300   5.940   3.192  13.298 -0.0859  0.2043 -0.6803
   9123SM  C15F12301   5.845   3.377  13.355 -1.1355 -0.4253  0.2641
   9123SM  H15F12302   5.749   3.326  13.336 -1.3926 -0.3999  1.4662
   9123SM  H15G12303   5.845   3.484  13.325 -2.0260 -1.0612 -2.2708
   9123SM  C16F12304   5.866   3.374  13.511  0.2106  0.1406  0.0174
   9123SM  H16F12305   5.970   3.408  13.525  0.5095 -0.8661  0.3719
   9123SM  H16G12306   5.856   3.273  13.556 -1.6167  1.5623  3.1684
   9123SM  C17F12307   5.759   3.456  13.584  0.0169 -0.4874 -0.1006
   9123SM  H17F12308   5.654   3.421  13.599 -1.2906  2.5342 -1.3875
   9123SM  H17G12309   5.729   3.543  13.522 -0.8818  1.8906  3.3379
   9123SM  C18F12310   5.807   3.513  13.725  0.2764  0.0055 -0.2337
   9123SM  H18F12311   5.892   3.584  13.713 -1.2038  2.2567  1.7195
   9123SM  H18G12312   5.835   3.420  13.779  0.3971 -0.3436 -0.8804
   9123SM  C19F12313   5.691   3.581  13.802 -0.7912  0.0724  0.4634
   9123SM  H19F12314   5.621   3.502  13.838 -2.7515  1.4299 -0.2200
   9123SM  H19G12315   5.641   3.661  13.744  0.7844  0.5770 -0.2410
   9123SM  C20F12316   5.734   3.652  13.930 -0.1636  0.2460  0.1980
   9123SM  H20F12317   5.786   3.741  13.889 -3.0630  2.1062  0.2630
   9123SM  H20G12318   5.804   3.602  14.001 -0.9144  0.1896  0.9079
   9123SM  C21F12319   5.616   3.700  14.011 -0.2719 -0.3148  0.7426
   9123SM  H21F12320   5.562   3.611  14.048 -1.1804 -1.0438 -2.0722
   9123SM  H21G12321   5.553   3.746  13.932  1.5142  0.2008 -0.4577
   9123SM  C22F12322   5.646   3.806  14.121  0.3411 -0.7936  0.2923
   9123SM  H22F12323   5.729   3.763  14.181 -0.3700 -2.2754  0.2509
   9123SM  H22G12324   5.554   3.805  14.183  0.6535 -0.8973  0.7535
   9123SM  C23F12325   5.668   3.944  14.066 -0.5418 -0.6223  0.6281
   9123SM  H23F12326   5.597   3.981  13.990 -0.7641  0.0418  1.1494
   9123SM  H23G12327   5.764   3.949  14.010 -1.8571  0.6799 -1.6621
   9123SM  H23H12328   5.676   4.025  14.142  1.0503  0.7927 -0.9486
   9223SM     N12329   5.138   1.626  11.342 -0.2252 -0.2536 -0.2676
   9223SM   C1512330   5.055   1.706  11.442  0.2382  0.1072 -0.6992
   9223SM  H15A12331   5.105   1.793  11.481 -2.2165  0.1583  2.6981
   9223SM  H15B12332   5.034   1.658  11.536 -2.3036  1.7655 -0.3343
   9223SM  H15C12333   4.961   1.740  11.400  0.7300  1.6986 -0.5677
   9223SM   C1412334   5.054   1.511  11.299 -0.1509  0.2458 -0.5436
   9223SM  H14A12335   5.108   1.439  11.239  1.1804 -0.3339  1.2571
   9223SM  H14B12336   4.965   1.542  11.247 -1.1777  1.2671  1.6873
   9223SM  H14C12337   5.020   1.457  11.385 -3.6844  0.8592 -1.3908
   9223SM   C1312338   5.168   1.718  11.226  0.2549 -0.2151  0.2626
   9223SM  H13A12339   5.081   1.768  11.186  0.6960  0.6391  0.3440
   9223SM  H13B12340   5.202   1.663  11.140  0.6418  1.3398 -0.6147
   9223SM  H13C12341   5.242   1.792  11.250 -1.3401  1.2952  0.7164
   9223SM   C1212342   5.262   1.579  11.414 -0.5269  0.2124 -0.1513
   9223SM  H12A12343   5.306   1.493  11.365 -1.8097 -0.7577  0.3553
   9223SM  H12B12344   5.244   1.527  11.507  2.7014 -1.5361 -0.3408
   9223SM   C1112345   5.377   1.677  11.444 -0.1515 -0.2498  0.6862
   9223SM  H11A12346   5.459   1.638  11.508 -1.1679 -1.6860  1.1704
   9223SM  H11B12347   5.325   1.764  11.490 -0.0598 -0.3486  0.9829
   9223SM     P12348   5.516   1.832  11.291 -0.0837  0.2465  0.3151
   9223SM   O1312349   5.635   1.797  11.205 -0.2952 -0.1750  0.4928
   9223SM   O1412350   5.429   1.944  11.250  0.0990 -0.3928 -0.1002
   9223SM   O1112351   5.574   1.866  11.433  0.3100 -0.5491 -0.3689
   9223SM   O1212352   5.435   1.703  11.316  0.8619  0.2428 -0.7428
   9223SM   C1S12353   5.694   1.796  11.471 -0.5105  0.4526 -0.7441
   9223SM   H1S12354   5.776   1.804  11.397  0.0917  0.5861 -0.0788
   9223SM   H1T12355   5.679   1.686  11.473  1.0550  0.2148  0.5045
   9223SM    NF12356   5.851   1.747  11.642 -0.1564  0.8804  0.2882
   9223SM   HNF12357   5.824   1.662  11.686  0.9245 -0.0782 -0.8265
   9223SM   C2S12358   5.743   1.837  11.610  0.2690 -0.6367  0.2215
   9223SM   H2S12359   5.776   1.943  11.607  1.4353 -0.9993 -1.8744
   9223SM   C3S12360   5.620   1.841  11.714 -0.6908 -0.2532  0.3164
   9223SM   H3S12361   5.579   1.737  11.719 -0.9655 -0.0831  3.3024
   9223SM    O312362   5.505   1.920  11.683  0.0884 -0.2897  0.2803
   9223SM   HO312363   5.512   1.935  11.589 -0.1415  0.0085  0.3111
   9223SM   C4S12364   5.669   1.876  11.859  0.3377 -0.0986  0.0469
   9223SM   H4S12365   5.679   1.787  11.924  0.4452  0.4804  0.8377
   9223SM   C5S12366   5.698   2.001  11.908  0.2360 -0.0393 -0.6629
   9223SM   H5S12367   5.693   2.092  11.847  1.9298  0.3963 -0.2087
   9223SM   C6S12368   5.762   2.024  12.038  0.2272  0.2306 -1.4628
   9223SM   H6S12369   5.698   2.087  12.104  0.2778 -0.8603 -0.3241
   9223SM   H6T12370   5.847   2.094  12.021  0.0559  0.2882 -2.0770
   9223SM   C7S12371   5.812   1.902  12.116 -0.0176  0.7873 -0.0591
   9223SM   H7S12372   5.887   1.841  12.061 -2.7708 -2.7064 -0.2812
   9223SM   H7T12373   5.724   1.836  12.132  0.6301  0.4342  2.4903
   9223SM   C8S12374   5.879   1.935  12.250  0.6270  0.0535  0.3690
   9223SM   H8S12375   5.947   2.023  12.243 -0.2726  0.7396  0.1529
   9223SM   H8T12376   5.943   1.845  12.268  0.4327 -0.2823 -0.5507
   9223SM   C9S12377   5.774   1.939  12.362  1.0401  0.4134 -0.5191
   9223SM   H9S12378   5.734   1.837  12.383  2.0950 -0.0428 -0.6675
   9223SM   H9T12379   5.691   2.009  12.341  0.2630 -0.9888 -2.5109
   9223SM  C10S12380   5.840   1.992  12.500  0.2513  0.1055  0.0880
   9223SM  H10S12381   5.844   2.103  12.499  3.2937  0.1106  1.5771
   9223SM  H10T12382   5.942   1.948  12.494  0.0814 -0.1742 -1.0466
   9223SM  C11S12383   5.774   1.945  12.629  0.1144  0.4877  0.3578
   9223SM  H11S12384   5.763   1.835  12.620 -1.1225  0.7109 -1.6848
   9223SM  H11T12385   5.673   1.990  12.643  0.1640  0.6623  0.1720
   9223SM  C12S12386   5.860   1.978  12.752  0.7158  0.5681 -0.4586
   9223SM  H12S12387   5.880   2.087  12.745  2.7552  0.3799  1.3500
   9223SM  H12T12388   5.959   1.929  12.740  0.5081  0.3148 -1.1445
   9223SM  C13S12389   5.797   1.941  12.890  0.7885  0.0960  0.4467
   9223SM  H13S12390   5.781   1.831  12.884 -2.4184  0.5217 -1.0901
   9223SM  H13T12391   5.695   1.986  12.886  0.4716 -0.3961  2.0604
   9223SM  C14S12392   5.876   1.980  13.009 -0.2489 -0.4290 -0.7931
   9223SM  H14S12393   5.856   2.085  13.038 -1.8487 -1.0573  0.5120
   9223SM  H14T12394   5.983   1.966  12.981  0.8982  2.4511  1.6468
   9223SM  C15S12395   5.849   1.878  13.123 -0.0283  0.3775  0.2333
   9223SM  H15S12396   5.871   1.776  13.086 -0.9187 -0.0721  0.8903
   9223SM  H15T12397   5.740   1.888  13.143 -0.5297  1.1922 -2.5409
   9223SM  C16S12398   5.921   1.908  13.252  0.4996  0.2151 -0.1381
   9223SM  H16S12399   5.935   2.018  13.262 -0.4822  0.6519 -2.7384
   9223SM  H16T12400   6.023   1.864  13.250 -0.2763 -1.6324 -0.9889
   9223SM  C17S12401   5.847   1.851  13.372 -0.0835  0.9590  0.3619
   9223SM  H17S12402   5.755   1.913  13.381 -0.0390  1.4074 -1.6877
   9223SM  H17T12403   5.902   1.882  13.463  0.7183  0.8434 -0.0732
   9223SM  C18S12404   5.814   1.700  13.375  0.0340 -0.0431 -0.1931
   9223SM  H18S12405   5.783   1.675  13.479 -2.8451  0.1682 -0.9036
   9223SM  H18T12406   5.900   1.635  13.350  0.2132  0.1160  0.0080
   9223SM  H18U12407   5.728   1.687  13.305 -1.8226  2.9514  1.3158
   9223SM   C1F12408   5.966   1.748  11.584 -0.0095  0.0814  0.6883
   9223SM    OF12409   6.007   1.843  11.526 -0.2135 -0.6492  1.1136
   9223SM   C2F12410   6.051   1.629  11.613 -0.1220 -0.4259  0.3600
   9223SM   H2F12411   6.093   1.580  11.522  0.6595 -1.8072  1.4369
   9223SM   H2G12412   5.985   1.548  11.651 -0.8687 -0.6104 -1.2340
   9223SM   C3F12413   6.158   1.661  11.718  0.1582 -0.9906 -0.4340
   9223SM   H3F12414   6.231   1.730  11.669 -3.2456  2.2563 -1.4511
   9223SM   H3G12415   6.218   1.573  11.747  1.8923  0.3762  0.2378
   9223SM   C4F12416   6.102   1.738  11.835  0.1531  0.4178 -0.1835
   9223SM   H4F12417   6.021   1.685  11.888  2.3965 -1.0217  2.0617
   9223SM   H4G12418   6.058   1.832  11.795 -1.6948 -0.8013 -1.1093
   9223SM   C5F12419   6.217   1.760  11.934 -0.3335  0.1015  0.5050
   9223SM   H5F12420   6.290   1.837  11.901 -0.9031 -0.3492 -2.0652
   9223SM   H5G12421   6.282   1.673  11.953  0.0717  0.7021  1.9847
   9223SM   C6F12422   6.174   1.812  12.069 -0.3604  0.3675 -0.5170
   9223SM   H6F12423   6.084   1.756  12.103  0.3800 -1.4635 -1.4649
   9223SM   H6G12424   6.153   1.920  12.052 -0.7230  0.3864 -0.0009
   9223SM   C7F12425   6.293   1.804  12.177 -0.5144  0.1763 -0.2058
   9223SM   H7F12426   6.386   1.855  12.143  2.4486 -1.7655  4.0218
   9223SM   H7G12427   6.303   1.693  12.178  0.7079  0.2401 -1.2949
   9223SM   C8F12428   6.273   1.869  12.315  0.4162  0.5439 -0.2676
   9223SM   H8F12429   6.204   1.955  12.310 -2.2138 -1.2463  2.3335
   9223SM   H8G12430   6.373   1.905  12.348  2.6042 -4.0503 -1.0227
   9223SM   C9F12431   6.212   1.768  12.422 -0.0316 -0.0836  0.5899
   9223SM   H9F12432   6.281   1.681  12.416 -0.1571 -0.2720  1.5791
   9223SM   H9G12433   6.108   1.741  12.397 -0.4301 -0.0108  2.0661
   9223SM  C10F12434   6.218   1.818  12.570  0.0114  0.0808  0.3117
   9223SM  H10F12435   6.157   1.911  12.568  0.4640  0.3814 -2.2885
   9223SM  H10G12436   6.322   1.850  12.593  0.3712 -0.8491  0.0247
   9223SM  C11F12437   6.170   1.712  12.671 -0.1369  0.0209  0.0737
   9223SM  H11F12438   6.199   1.610  12.638  0.5411  0.4756 -0.8026
   9223SM  H11G12439   6.059   1.712  12.670 -0.2197  2.6427 -1.6482
   9223SM  C12F12440   6.203   1.748  12.820  0.5658  0.0783  0.2128
   9223SM  H12F12441   6.164   1.848  12.851 -2.7030 -1.4670  1.5757
   9223SM  H12G12442   6.312   1.765  12.832  0.3032  1.3558  1.0432
   9223SM  C13F12443   6.160   1.650  12.926  0.1095  0.3821 -0.3678
   9223SM  H13F12444   6.190   1.545  12.907 -0.2707 -0.1280  1.6987
   9223SM  H13G12445   6.052   1.665  12.948  0.3136  0.5739  0.5517
   9223SM  C14F12446   6.234   1.687  13.057  0.4951 -0.0466  0.2743
   9223SM  H14F12447   6.220   1.796  13.078  1.6144  0.1767 -0.0963
   9223SM  H14G12448   6.341   1.662  13.044  0.2527 -0.6921 -0.5420
   9223SM  C15F12449   6.186   1.599  13.179  0.2221  0.1095  0.2061
   9223SM  H15F12450   6.179   1.494  13.146  1.2543  0.3992 -1.0367
   9223SM  H15G12451   6.080   1.619  13.205  0.3686  0.6699  0.3939
   9223SM  C16F12452   6.269   1.626  13.301 -0.0754  0.5657  0.1635
   9223SM  H16F12453   6.239   1.724  13.343 -2.2207 -0.5154  1.3033
   9223SM  H16G12454   6.378   1.621  13.278 -0.0892 -0.5743  0.2787
   9223SM  C17F12455   6.234   1.520  13.410 -0.3377 -0.2302 -0.5329
   9223SM  H17F12456   6.256   1.419  13.369  1.7707 -0.0264 -0.0466
   9223SM  H17G12457   6.126   1.520  13.436  0.1177  0.8316  1.5087
   9223SM  C18F12458   6.312   1.546  13.547 -0.7793 -0.7273 -0.6344
   9223SM  H18F12459   6.362   1.644  13.527 -0.8218 -0.6995 -0.6049
   9223SM  H18G12460   6.396   1.473  13.541  0.4062  0.4665  0.5774
   9223SM  C19F12461   6.227   1.561  13.677 -0.0673 -0.0478 -0.1058
   9223SM  H19F12462   6.185   1.462  13.705  0.1887  0.2705  1.4563
   9223SM  H19G12463   6.138   1.625  13.665  1.2460  1.8564 -0.1919
   9223SM  C20F12464   6.312   1.602  13.800  0.3492 -0.4645  0.4948
   9223SM  H20F12465   6.372   1.689  13.765  0.8235 -1.4221 -1.2062
   9223SM  H20G12466   6.380   1.519  13.827 -0.2794 -1.8426 -1.8682
   9223SM  C21F12467   6.230   1.647  13.927  0.4404 -0.8916  0.3046
   9223SM  H21F12468   6.299   1.682  14.005  2.0735 -1.2397 -0.9277
   9223SM  H21G12469   6.158   1.567  13.956 -0.6465  0.1256  0.5000
   9223SM  C22F12470   6.137   1.769  13.898 -0.9602  0.1367 -0.0542
   9223SM  H22F12471   6.071   1.762  13.809  0.4979  2.3434 -1.3835
   9223SM  H22G12472   6.202   1.857  13.877 -2.4383  0.4268 -4.4873
   9223SM  C23F12473   6.044   1.797  14.011  0.7767  0.2099 -0.5205
   9223SM  H23F12474   5.995   1.896  14.004  2.9345  1.4964  1.0842
   9223SM  H23G12475   6.087   1.791  14.114 -0.0860  2.2675  0.0029
   9223SM  H23H12476   5.957   1.728  14.013  0.1208  1.0177 -0.3839
   9323SM     N12477   0.169   3.282  11.371  0.4681 -0.1332 -0.1115
   9323SM   C1512478   0.085   3.407  11.344 -0.3685  0.3315  0.1351
   9323SM  H15A12479   0.001   3.420  11.411  0.0009  1.7434  0.3589
   9323SM  H15B12480   0.051   3.399  11.242  2.2373 -0.9311 -0.7095
   9323SM  H15C12481   0.147   3.494  11.353  0.0761 -0.0504  0.8820
   9323SM   C1412482   0.073   3.170  11.355  0.1567  0.1954  0.0860
   9323SM  H14A12483   0.120   3.073  11.360 -0.1302  0.1439  3.0700
   9323SM  H14B12484   0.023   3.197  11.263 -1.3605  1.0022  1.0980
   9323SM  H14C12485  -0.007   3.186  11.425  0.8150  0.4355  0.7925
   9323SM   C1312486   0.272   3.279  11.265  0.2672  0.1417  0.0244
   9323SM  H13A12487   0.240   3.293  11.163  1.0096 -0.7168 -0.3499
   9323SM  H13B12488   0.331   3.189  11.273  0.9558  0.7235  3.2782
   9323SM  H13C12489   0.328   3.371  11.276  2.2243 -0.7853 -1.4685
   9323SM   C1212490   0.224   3.291  11.505  0.3851  0.2614 -0.0853
   9323SM  H12A12491   0.274   3.198  11.527 -0.4778 -0.2312 -0.1684
   9323SM  H12B12492   0.139   3.302  11.571  0.3654  1.9622 -0.3366
   9323SM   C1112493   0.320   3.399  11.539 -0.8046  0.7108 -0.5958
   9323SM  H11A12494   0.344   3.412  11.647 -1.3691 -1.0012 -0.2315
   9323SM  H11B12495   0.264   3.492  11.516 -0.9588  0.3082 -1.9807
   9323SM     P12496   0.557   3.278  11.516 -0.5724 -0.1165 -0.4983
   9323SM   O1312497   0.503   3.139  11.518  0.2365  0.6232 -0.6948
   9323SM   O1412498   0.675   3.302  11.430 -0.4705  0.7152  0.2824
   9323SM   O1112499   0.581   3.312  11.667 -0.3010 -0.5293  0.3226
   9323SM   O1212500   0.441   3.378  11.469 -0.6269 -0.0810  0.4436
   9323SM   C1S12501   0.623   3.444  11.716 -0.4099 -0.1218 -0.2713
   9323SM   H1S12502   0.580   3.523  11.650 -1.7586  1.1905  2.0162
   9323SM   H1T12503   0.733   3.457  11.718 -0.2315 -1.5783  0.3996
   9323SM    NF12504   0.563   3.606  11.888  0.3068 -0.8609 -0.3070
   9323SM   HNF12505   0.638   3.648  11.937  0.2902  0.8108 -1.6343
   9323SM   C2S12506   0.566   3.470  11.859 -0.0744 -0.1418 -0.1690
   9323SM   H2S12507   0.462   3.432  11.856 -0.2861  0.3992  0.1134
   9323SM   C3S12508   0.630   3.371  11.958 -0.3001  0.0147  0.0120
   9323SM   H3S12509   0.735   3.396  11.983  0.5276 -2.2899 -0.8507
   9323SM    O312510   0.651   3.232  11.923  0.3386 -0.6380 -0.4339
   9323SM   HO312511   0.636   3.245  11.829 -0.0401  1.1812 -0.1610
   9323SM   C4S12512   0.555   3.372  12.088 -0.0033  0.1283  0.1160
   9323SM   H4S12513   0.459   3.321  12.069  0.1425 -0.1349  0.0806
   9323SM   C5S12514   0.587   3.408  12.214 -0.2424 -0.0437  0.4008
   9323SM   H5S12515   0.692   3.438  12.230 -0.8636  3.2249 -0.8204
   9323SM   C6S12516   0.496   3.378  12.328 -0.1732 -0.0941  0.1519
   9323SM   H6S12517   0.397   3.342  12.294 -0.0717  0.2207 -0.4915
   9323SM   H6T12518   0.479   3.478  12.373  1.5417 -0.0672  0.7852
   9323SM   C7S12519   0.530   3.290  12.445  0.4139  0.4112  0.0876
   9323SM   H7S12520   0.624   3.334  12.486  1.1818 -0.4263 -0.7424
   9323SM   H7T12521   0.552   3.191  12.401 -1.8478  0.5793 -1.6185
   9323SM   C8S12522   0.414   3.291  12.547  0.6617  0.3373  0.1150
   9323SM   H8S12523   0.337   3.214  12.527  0.3091  1.0202 -1.3259
   9323SM   H8T12524   0.362   3.389  12.544  0.8927  0.4566 -0.0532
   9323SM   C9S12525   0.468   3.265  12.688 -0.0289 -0.2899  0.0113
   9323SM   H9S12526   0.563   3.323  12.684 -0.6864  0.7434 -1.0243
   9323SM   H9T12527   0.480   3.154  12.689 -0.6125 -0.4208  3.2235
   9323SM  C10S12528   0.372   3.300  12.796  0.4869 -0.2144  0.3836
   9323SM  H10S12529   0.281   3.237  12.784 -1.7006  2.6608  0.5355
   9323SM  H10T12530   0.337   3.405  12.780  1.9957 -0.0422 -2.4256
   9323SM  C11S12531   0.421   3.282  12.937  0.4145 -0.9314  0.4536
   9323SM  H11S12532   0.523   3.322  12.955 -0.1777  0.4468  0.9097
   9323SM  H11T12533   0.431   3.173  12.953 -0.6572 -0.9853  0.8323
   9323SM  C12S12534   0.322   3.348  13.034  0.1574 -0.0299 -0.4701
   9323SM  H12S12535   0.227   3.295  13.012 -0.0890  0.5689 -0.8896
   9323SM  H12T12536   0.300   3.455  13.011 -1.4169 -0.7968 -2.9425
   9323SM  C13S12537   0.369   3.328  13.181 -0.1508  0.1256 -0.3036
   9323SM  H13S12538   0.322   3.404  13.247  0.8447  2.6109 -2.2694
   9323SM  H13T12539   0.478   3.343  13.195 -0.2441 -0.0427  0.6725
   9323SM  C14S12540   0.346   3.181  13.233  0.3543  0.2857 -0.3437
   9323SM  H14S12541   0.392   3.106  13.166  1.6785 -0.5204  1.3608
   9323SM  H14T12542   0.236   3.166  13.236  0.2631  0.9663  0.2341
   9323SM  C15S12543   0.404   3.152  13.373 -0.6668  0.2264 -0.4163
   9323SM  H15S12544   0.392   3.042  13.387 -0.6026  0.4131  1.3448
   9323SM  H15T12545   0.511   3.181  13.386 -1.1233  2.0831 -0.6080
   9323SM  C16S12546   0.335   3.219  13.493 -0.0154  0.4094 -0.3899
   9323SM  H16S12547   0.230   3.185  13.480 -0.2520 -0.0975  2.3081
   9323SM  H16T12548   0.338   3.330  13.493  0.8772  0.4233  1.4995
   9323SM  C17S12549   0.396   3.176  13.628 -0.0868 -0.6927  0.8439
   9323SM  H17S12550   0.492   3.231  13.631 -0.4466  0.1907 -1.6098
   9323SM  H17T12551   0.417   3.067  13.621  1.0037 -0.5046  1.1307
   9323SM  C18S12552   0.317   3.207  13.751  0.1098  0.3933  0.5179
   9323SM  H18S12553   0.308   3.317  13.760 -0.9095  0.3764 -0.1174
   9323SM  H18T12554   0.372   3.171  13.841  4.0376  1.8456 -1.0957
   9323SM  H18U12555   0.216   3.160  13.746 -0.1436  0.9594  0.1666
   9323SM   C1F12556   0.480   3.694  11.830 -0.0989  0.3792 -0.1247
   9323SM    OF12557   0.394   3.654  11.753  0.3386 -0.5453  0.9169
   9323SM   C2F12558   0.492   3.843  11.863  0.8690  0.1358  0.2760
   9323SM   H2F12559   0.392   3.886  11.841  1.9875  1.7563 -2.2004
   9323SM   H2G12560   0.570   3.885  11.795  1.9597 -1.6985  0.3431
   9323SM   C3F12561   0.532   3.875  12.008  0.3423  0.5751  0.2817
   9323SM   H3F12562   0.520   3.985  12.012 -3.5710  0.3451 -0.8928
   9323SM   H3G12563   0.642   3.872  12.025  0.3705  2.7540  0.7776
   9323SM   C4F12564   0.455   3.822  12.130  0.4007 -0.8992  0.0995
   9323SM   H4F12565   0.516   3.814  12.222 -0.3590 -0.9567  0.6120
   9323SM   H4G12566   0.418   3.724  12.092 -1.9075  0.4754 -1.4957
   9323SM   C5F12567   0.324   3.904  12.155  0.7055 -0.4280 -0.0667
   9323SM   H5F12568   0.231   3.863  12.110  0.2892 -1.4003  1.5916
   9323SM   H5G12569   0.338   4.008  12.119  0.8913  0.0206  1.2487
   9323SM   C6F12570   0.307   3.913  12.311 -1.0191  0.1610  0.1008
   9323SM   H6F12571   0.387   3.976  12.354 -2.0073  1.2896  0.3315
   9323SM   H6G12572   0.303   3.810  12.354  0.1708 -0.1866 -0.5794
   9323SM   C7F12573   0.183   3.987  12.357 -0.1818 -0.0248 -1.1555
   9323SM   H7F12574   0.088   3.947  12.316 -0.9315  0.1421  0.3356
   9323SM   H7G12575   0.199   4.091  12.322  1.2260  0.5391  0.9519
   9323SM   C8F12576   0.166   3.979  12.515  0.1967 -0.3136  0.1510
   9323SM   H8F12577   0.252   4.023  12.570  1.3269 -1.7341 -0.4195
   9323SM   H8G12578   0.167   3.870  12.538  2.7900  0.3864  4.7086
   9323SM   C9F12579   0.036   4.049  12.559 -0.0068  0.7202 -0.0284
   9323SM   H9F12580  -0.041   3.991  12.503  0.2984 -0.2015  0.4788
   9323SM   H9G12581   0.023   4.152  12.520 -2.3315  0.9894  1.2619
   9323SM  C10F12582   0.005   4.031  12.708 -0.5360 -0.5097  0.2502
   9323SM  H10F12583   0.061   4.117  12.751  0.4359 -0.3374 -1.2961
   9323SM  H10G12584   0.042   3.933  12.744  0.8578  0.3543  1.3250
   9323SM  C11F12585  -0.143   4.041  12.742  0.9842 -0.2874 -0.2587
   9323SM  H11F12586  -0.207   3.954  12.718 -2.4110  2.3369 -1.6422
   9323SM  H11G12587  -0.186   4.130  12.692 -1.9426 -0.3654  1.8823
   9323SM  C12F12588  -0.167   4.091  12.886  0.3501  0.1861  0.3933
   9323SM  H12F12589  -0.274   4.069  12.906  0.9245 -2.6991  0.7876
   9323SM  H12G12590  -0.153   4.201  12.899 -0.9029  0.6956 -2.0172
   9323SM  C13F12591  -0.105   4.010  13.000  0.6404  0.1912 -0.7091
   9323SM  H13F12592  -0.010   4.054  13.037  0.6525  0.0165 -0.5319
   9323SM  H13G12593  -0.082   3.905  12.972  0.1491  0.2705 -1.4410
   9323SM  C14F12594  -0.191   4.003  13.133  0.5448  0.0690 -0.4017
   9323SM  H14F12595  -0.288   3.950  13.123  0.1722  0.8493 -1.0895
   9323SM  H14G12596  -0.223   4.106  13.160 -0.0390  0.1490 -1.3265
   9323SM  C15F12597  -0.114   3.963  13.259 -0.4733 -0.0017 -0.6679
   9323SM  H15F12598  -0.027   4.029  13.281 -2.0065  1.8058  0.3395
   9323SM  H15G12599  -0.071   3.864  13.232  0.1120  0.1577 -0.3370
   9323SM  C16F12600  -0.200   3.971  13.385 -0.3082 -0.3126  0.1148
   9323SM  H16F12601  -0.290   3.916  13.351  0.3993  0.3133 -3.1383
   9323SM  H16G12602  -0.230   4.074  13.413  0.8015  0.1467 -0.3343
   9323SM  C17F12603  -0.130   3.918  13.514 -0.3424  0.8942  0.4519
   9323SM  H17F12604  -0.075   4.006  13.555  1.6901 -0.1165  0.0492
   9323SM  H17G12605  -0.059   3.835  13.494  2.5438  3.0927  0.8429
   9323SM  C18F12606  -0.214   3.877  13.632 -0.4858 -0.1940 -0.0251
   9323SM  H18F12607  -0.270   3.788  13.599  0.1442 -0.6666  0.1641
   9323SM  H18G12608  -0.290   3.956  13.652 -2.8142 -2.4625  0.4634
   9323SM  C19F12609  -0.131   3.837  13.758  0.0773  0.2169  0.6402
   9323SM  H19F12610  -0.057   3.760  13.729  1.1073  1.7343 -0.9811
   9323SM  H19G12611  -0.201   3.810  13.840  2.7443 -1.8175  2.4301
   9323SM  C20F12612  -0.048   3.952  13.807 -0.0640 -0.5661 -0.5444
   9323SM  H20F12613  -0.098   4.051  13.803  1.8090  0.4823  0.2107
   9323SM  H20G12614   0.048   3.962  13.751 -0.5561 -1.7957 -1.6531
   9323SM  C21F12615  -0.016   3.937  13.960  0.1429  0.0689 -0.5446
   9323SM  H21F12616   0.037   3.842  13.983 -0.2495  0.1393  0.6768
   9323SM  H21G12617  -0.117   3.936  14.005 -0.6903 -0.9120 -2.3228
   9323SM  C22F12618   0.074   4.046  14.020  0.0391  0.4328  0.2546
   9323SM  H22F12619   0.029   4.144  13.995  0.6183  1.0629  1.5572
   9323SM  H22G12620   0.170   4.040  13.964  0.1405 -2.1834  0.5677
   9323SM  C23F12621   0.084   4.063  14.175 -0.0441  0.4282 -0.1818
   9323SM  H23F12622   0.161   4.138  14.205 -0.8828  0.5725  1.7691
   9323SM  H23G12623   0.111   3.964  14.217 -1.1893  0.4829  0.7167
   9323SM  H23H12624  -0.014   4.092  14.218 -0.4382 -0.3996 -0.5087
   9423SM     N12625   4.279   5.529  12.459  0.3785 -0.0580 -0.3374
   9423SM   C1512626   4.157   5.482  12.378 -0.1341 -0.1499 -0.7196
   9423SM  H15A12627   4.098   5.562  12.334 -0.6702 -0.3047 -0.2963
   9423SM  H15B12628   4.098   5.411  12.435 -0.3491  0.9797  0.5103
   9423SM  H15C12629   4.182   5.425  12.290  0.9672  2.5280 -2.2672
   9423SM   C1412630   4.374   5.413  12.485  0.2119  0.3416 -0.2097
   9423SM  H14A12631   4.440   5.441  12.565 -0.9012 -0.0084  0.8680
   9423SM  H14B12632   4.423   5.393  12.391  2.6914  0.7486  0.9056
   9423SM  H14C12633   4.320   5.323  12.510  2.0196 -1.1769 -1.5260
   9423SM   C1312634   4.361   5.630  12.380 -0.3542  0.0802  0.0528
   9423SM  H13A12635   4.447   5.665  12.436 -0.6089  2.2734 -0.8142
   9423SM  H13B12636   4.295   5.714  12.366 -1.4203 -0.7797 -0.2125
   9423SM  H13C12637   4.402   5.584  12.291  2.0752  0.9078  0.6457
   9423SM   C1212638   4.227   5.588  12.589  0.2636 -0.0856 -0.3121
   9423SM  H12A12639   4.163   5.669  12.559  1.3404  0.3047 -1.6679
   9423SM  H12B12640   4.308   5.638  12.640  0.3997 -1.5761  1.0215
   9423SM   C1112641   4.154   5.504  12.708 -0.4544 -0.0706 -0.5032
   9423SM  H11A12642   4.129   5.571  12.794  3.5894 -2.2973  2.8061
   9423SM  H11B12643   4.218   5.426  12.755 -0.1282  0.4089 -0.1413
   9423SM     P12644   3.909   5.494  12.619 -0.8758 -0.1656  0.4435
   9423SM   O1312645   3.923   5.637  12.634  0.0429 -0.1033 -0.2595
   9423SM   O1412646   3.873   5.449  12.484 -0.4874 -0.2022  0.5208
   9423SM   O1112647   3.804   5.433  12.716 -0.0002 -0.1673 -0.0452
   9423SM   O1212648   4.046   5.427  12.657  0.1169  0.5850  0.4044
   9423SM   C1S12649   3.811   5.433  12.864 -0.4100 -0.0455 -0.2250
   9423SM   H1S12650   3.917   5.420  12.898 -0.8001  0.4607  1.2758
   9423SM   H1T12651   3.758   5.347  12.910 -1.5967  0.3252 -0.8527
   9423SM    NF12652   3.779   5.584  13.052  0.5581  0.5272  0.7091
   9423SM   HNF12653   3.721   5.551  13.126 -0.5219  1.6969  0.3968
   9423SM   C2S12654   3.743   5.559  12.919  0.5433 -0.2970  0.3425
   9423SM   H2S12655   3.777   5.651  12.866  1.5090 -1.6837 -1.5533
   9423SM   C3S12656   3.592   5.529  12.905  0.2181 -0.5305 -0.2695
   9423SM   H3S12657   3.568   5.444  12.972 -0.9187  0.0965  0.1471
   9423SM    O312658   3.549   5.489  12.775  0.5509  0.2775  0.1494
   9423SM   HO312659   3.632   5.466  12.734  0.9150 -0.0848  1.0680
   9423SM   C4S12660   3.515   5.647  12.947 -0.7415 -1.1959  0.0505
   9423SM   H4S12661   3.502   5.722  12.867 -0.6970 -2.4193 -1.1407
   9423SM   C5S12662   3.451   5.658  13.065  0.3385  0.0942 -0.8002
   9423SM   H5S12663   3.449   5.571  13.133 -0.5687 -0.9162 -2.0675
   9423SM   C6S12664   3.388   5.783  13.125  0.7653  0.3978  0.5795
   9423SM   H6S12665   3.282   5.748  13.123  0.5951  0.8309 -1.7855
   9423SM   H6T12666   3.399   5.880  13.071 -0.1819  0.6993  0.9069
   9423SM   C7S12667   3.432   5.807  13.275  0.1633 -0.0855  0.5680
   9423SM   H7S12668   3.354   5.876  13.314  1.4113  1.6647  0.1275
   9423SM   H7T12669   3.526   5.866  13.265  1.0134 -1.3132  1.0723
   9423SM   C8S12670   3.436   5.686  13.365  0.3810 -0.3254 -0.0857
   9423SM   H8S12671   3.518   5.611  13.357  0.2986 -0.4484  0.2084
   9423SM   H8T12672   3.343   5.629  13.346  1.7895 -2.0921 -2.0986
   9423SM   C9S12673   3.451   5.747  13.502  0.1550  0.4005  0.1945
   9423SM   H9S12674   3.365   5.809  13.535 -1.2776 -2.4607  2.1798
   9423SM   H9T12675   3.542   5.812  13.499  0.9379 -0.6971 -0.5446
   9423SM  C10S12676   3.469   5.648  13.612  0.7346 -0.4997  0.5445
   9423SM  H10S12677   3.569   5.599  13.608  1.2318  0.4558  0.8281
   9423SM  H10T12678   3.402   5.562  13.595  1.3625 -0.8612 -0.1417
   9423SM  C11S12679   3.457   5.704  13.749 -0.0839 -0.2946  0.1455
   9423SM  H11S12680   3.359   5.754  13.762 -0.1260 -0.4166  0.3006
   9423SM  H11T12681   3.534   5.784  13.755  1.0411 -1.1564 -1.7259
   9423SM  C12S12682   3.474   5.599  13.860 -0.0827  0.4552  0.0481
   9423SM  H12S12683   3.562   5.531  13.858 -0.5444 -0.1894  0.9398
   9423SM  H12T12684   3.385   5.533  13.849  1.1366 -1.0826 -1.1533
   9423SM  C13S12685   3.469   5.672  13.999  0.1732  0.8569  0.4121
   9423SM  H13S12686   3.386   5.746  13.996 -1.1833 -0.6272 -0.5017
   9423SM  H13T12687   3.566   5.726  14.007  0.6646 -0.0153  0.4597
   9423SM  C14S12688   3.439   5.583  14.124 -0.5888 -0.1571  0.1745
   9423SM  H14S12689   3.505   5.497  14.100 -0.2144  0.4586 -1.0693
   9423SM  H14T12690   3.337   5.540  14.118 -0.1104 -1.6761  1.9245
   9423SM  C15S12691   3.482   5.648  14.262  0.2882  0.6985  0.2745
   9423SM  H15S12692   3.426   5.743  14.276 -1.2454  0.4796 -3.2708
   9423SM  H15T12693   3.590   5.672  14.262  0.1020  1.5855 -0.2912
   9423SM  C16S12694   3.458   5.548  14.373  0.0786  0.0004  0.3845
   9423SM  H16S12695   3.496   5.609  14.458  0.7746 -0.2338  0.2461
   9423SM  H16T12696   3.516   5.455  14.361 -0.7019 -0.4398 -0.0634
   9423SM  C17S12697   3.315   5.501  14.399  0.3655 -0.0198  0.4748
   9423SM  H17S12698   3.303   5.456  14.500  1.4145 -2.1584 -0.2979
   9423SM  H17T12699   3.287   5.424  14.324 -0.2701 -1.4803  2.1597
   9423SM  C18S12700   3.220   5.626  14.412 -0.7008  0.1057  0.3570
   9423SM  H18S12701   3.255   5.705  14.483  0.2897  0.1009 -0.1060
   9423SM  H18T12702   3.124   5.585  14.449 -0.2087 -2.0121 -0.5860
   9423SM  H18U12703   3.224   5.670  14.310 -0.4201 -0.0482  0.3005
   9423SM   C1F12704   3.897   5.636  13.084  0.4086  0.3216  0.3057
   9423SM    OF12705   3.972   5.697  13.007  0.5404 -0.2538  0.6329
   9423SM   C2F12706   3.935   5.624  13.222  0.5023 -0.0976  0.3968
   9423SM   H2F12707   4.040   5.658  13.232  0.0505  2.4113 -2.1333
   9423SM   H2G12708   3.953   5.517  13.248 -0.0490 -0.1145  0.7058
   9423SM   C3F12709   3.836   5.690  13.323 -0.1852 -0.0827  0.9863
   9423SM   H3F12710   3.733   5.648  13.317  0.3197 -1.2016 -0.0737
   9423SM   H3G12711   3.828   5.795  13.286  1.1973 -0.1019  0.5896
   9423SM   C4F12712   3.889   5.703  13.462  0.4606  0.2901 -0.9587
   9423SM   H4F12713   3.805   5.757  13.511 -1.2019 -2.5801 -0.4079
   9423SM   H4G12714   3.981   5.764  13.475  0.7384 -0.5358  1.5195
   9423SM   C5F12715   3.885   5.575  13.549 -0.2026  0.2617 -0.3099
   9423SM   H5F12716   3.975   5.516  13.519  0.0023 -0.5599  1.7930
   9423SM   H5G12717   3.799   5.512  13.517 -0.4895  0.3714  0.2461
   9423SM   C6F12718   3.883   5.592  13.707 -0.1220  0.4226 -0.4966
   9423SM   H6F12719   3.800   5.661  13.732  0.1197 -0.3779  3.0870
   9423SM   H6G12720   3.975   5.643  13.744 -0.2342 -0.3937  1.0001
   9423SM   C7F12721   3.876   5.460  13.779 -0.5229 -0.3220  0.2793
   9423SM   H7F12722   3.951   5.384  13.749  0.9015  0.7115  1.0549
   9423SM   H7G12723   3.775   5.418  13.762 -0.7682  0.8051 -1.3321
   9423SM   C8F12724   3.880   5.472  13.936  0.3562 -0.5161  0.2107
   9423SM   H8F12725   3.798   5.544  13.959  0.8952 -0.4371  2.0231
   9423SM   H8G12726   3.985   5.496  13.963  1.1929 -3.8677  0.3188
   9423SM   C9F12727   3.867   5.334  14.004  0.2107 -0.1298 -0.5829
   9423SM   H9F12728   3.953   5.281  13.957 -1.4496 -1.9566 -1.6899
   9423SM   H9G12729   3.777   5.278  13.970  0.2430  0.5985 -1.9426
   9423SM  C10F12730   3.876   5.344  14.157  0.1981  0.7312 -0.1361
   9423SM  H10F12731   3.772   5.337  14.196  0.2837 -1.4261 -0.1978
   9423SM  H10G12732   3.933   5.433  14.194  1.6913  0.2513 -1.2051
   9423SM  C11F12733   3.937   5.210  14.220  0.9053 -0.7057 -0.9345
   9423SM  H11F12734   3.937   5.208  14.331 -0.8633  0.6618 -0.8543
   9423SM  H11G12735   4.042   5.192  14.188  1.3553 -1.9850  1.0084
   9423SM  C12F12736   3.849   5.086  14.185  0.0592  0.3531  0.1018
   9423SM  H12F12737   3.897   5.008  14.247  0.3955  1.3387  1.1258
   9423SM  H12G12738   3.838   5.059  14.078 -2.1806 -1.4738  0.7156
   9423SM  C13F12739   3.698   5.093  14.234 -0.3574 -0.4550 -0.2955
   9423SM  H13F12740   3.634   5.162  14.175 -0.2622 -1.8094 -2.0630
   9423SM  H13G12741   3.700   5.137  14.336  0.3496  1.6329 -1.1429
   9423SM  C14F12742   3.620   4.960  14.233 -0.9752 -0.2000  0.1200
   9423SM  H14F12743   3.519   4.982  14.274 -1.3263  1.9466 -1.7272
   9423SM  H14G12744   3.673   4.895  14.307  1.2718  2.1917  0.7419
   9423SM  C15F12745   3.607   4.891  14.095  0.0840 -0.1300 -0.2966
   9423SM  H15F12746   3.567   4.789  14.113  1.3405 -0.6420 -0.2923
   9423SM  H15G12747   3.706   4.885  14.045  0.0285  0.6796 -0.5047
   9423SM  C16F12748   3.520   4.969  13.999 -0.6870 -1.1481 -0.2399
   9423SM  H16F12749   3.472   5.052  14.055  1.0071 -1.1562  1.3348
   9423SM  H16G12750   3.443   4.903  13.955  0.3146 -2.7704  0.3484
   9423SM  C17F12751   3.604   5.036  13.885  0.2507 -0.0738 -0.3245
   9423SM  H17F12752   3.674   4.960  13.843  2.1411  0.9045  0.9118
   9423SM  H17G12753   3.658   5.116  13.940  0.7808 -0.8810  0.3579
   9423SM  C18F12754   3.522   5.114  13.784  0.5392  0.6543 -0.3621
   9423SM  H18F12755   3.452   5.187  13.831 -1.4840 -2.1249  1.2963
   9423SM  H18G12756   3.449   5.035  13.753 -0.3266  1.3167 -0.0709
   9423SM  C19F12757   3.615   5.167  13.678  0.2958 -0.4033 -0.0822
   9423SM  H19F12758   3.639   5.085  13.606 -1.6821 -0.6168 -0.5507
   9423SM  H19G12759   3.708   5.199  13.729 -0.2584 -0.1444  0.7750
   9423SM  C20F12760   3.546   5.290  13.605 -0.2752  0.0119 -0.4873
   9423SM  H20F12761   3.613   5.334  13.528 -1.0308 -2.1143 -2.4584
   9423SM  H20G12762   3.510   5.372  13.670 -0.8407  1.3121 -2.3680
   9423SM  C21F12763   3.417   5.250  13.530 -0.6187 -0.9407  0.9078
   9423SM  H21F12764   3.387   5.337  13.467  0.9644 -3.3644 -3.6587
   9423SM  H21G12765   3.331   5.230  13.597 -1.1642  0.3332  0.6179
   9423SM  C22F12766   3.431   5.127  13.442 -0.3069  0.7822  0.2852
   9423SM  H22F12767   3.426   5.035  13.502  1.0391 -0.2819 -1.1458
   9423SM  H22G12768   3.530   5.133  13.392 -0.9541 -0.7249 -1.2734
   9423SM  C23F12769   3.329   5.118  13.334 -0.0131  0.8045  0.5111
   9423SM  H23F12770   3.325   5.208  13.269 -0.5753  0.7620  0.4835
   9423SM  H23G12771   3.232   5.125  13.388 -0.3911  1.2921 -0.2127
   9423SM  H23H12772   3.349   5.027  13.274  0.8615  0.9671  0.5434
   9523SM     N12773   2.908   2.686  11.922  0.6237  0.1626 -0.6527
   9523SM   C1512774   2.964   2.814  11.871 -0.2824 -0.2041 -0.5018
   9523SM  H15A12775   2.900   2.900  11.884 -2.7159 -1.7711 -1.4571
   9523SM  H15B12776   2.975   2.807  11.763  1.0159 -2.2050 -0.2972
   9523SM  H15C12777   3.058   2.849  11.912  0.2176 -1.0380 -0.9189
   9523SM   C1412778   2.840   2.715  12.060 -0.0555  0.1712  0.1752
   9523SM  H14A12779   2.766   2.793  12.053  0.8262  1.0557  0.4299
   9523SM  H14B12780   2.910   2.744  12.137  0.4239 -0.4477 -0.0203
   9523SM  H14C12781   2.781   2.631  12.092  0.8004 -1.6899 -2.7596
   9523SM   C1312782   2.797   2.653  11.830 -0.3465  0.6486 -0.0767
   9523SM  H13A12783   2.751   2.561  11.863 -1.5690  1.6324  1.0354
   9523SM  H13B12784   2.830   2.636  11.728 -1.5603 -1.0740 -0.2270
   9523SM  H13C12785   2.722   2.730  11.828  1.5732  2.5982 -0.4160
   9523SM   C1212786   3.013   2.580  11.946 -0.0518  0.0177  0.9000
   9523SM  H12A12787   2.972   2.507  12.013  0.1244 -0.0190  0.9670
   9523SM  H12B12788   3.095   2.625  12.000 -0.8962  1.6829  0.8715
   9523SM   C1112789   3.071   2.493  11.832  0.7697  0.5913  0.3407
   9523SM  H11A12790   3.152   2.426  11.868 -0.6096 -0.1747  2.1707
   9523SM  H11B12791   3.113   2.550  11.746 -0.3416  1.5452  0.4112
   9523SM     P12792   2.904   2.292  11.888 -0.0400 -0.3559 -0.1986
   9523SM   O1312793   2.758   2.300  11.885 -0.3905  0.4857 -0.4321
   9523SM   O1412794   2.961   2.165  11.840  0.1708  0.2383 -0.5941
   9523SM   O1112795   2.952   2.327  12.034 -0.0716  0.5880  0.4922
   9523SM   O1212796   2.972   2.405  11.789  0.3719 -0.2940  0.0687
   9523SM   C1S12797   2.872   2.339  12.148  0.2976  0.4201 -0.5054
   9523SM   H1S12798   2.794   2.259  12.140  1.6365 -0.7787 -2.7324
   9523SM   H1T12799   2.822   2.438  12.152  1.7680  1.1595 -0.0012
   9523SM    NF12800   2.856   2.324  12.398  0.9129  0.1504  0.1127
   9523SM   HNF12801   2.840   2.414  12.439  1.2343 -0.4198  1.5581
   9523SM   C2S12802   2.954   2.315  12.284  0.5707  0.8000  0.0210
   9523SM   H2S12803   2.996   2.212  12.290  1.0151  1.0340  0.9396
   9523SM   C3S12804   3.074   2.412  12.288  0.2038 -0.1015 -0.2185
   9523SM   H3S12805   3.032   2.514  12.285  1.3883  0.3808 -1.5102
   9523SM    O312806   3.154   2.413  12.170 -0.3189  0.3424  0.3295
   9523SM   HO312807   3.109   2.348  12.116  1.2943 -2.3125  1.9427
   9523SM   C4S12808   3.168   2.382  12.412  1.0884 -1.1590 -0.5695
   9523SM   H4S12809   3.137   2.441  12.499  1.4423 -1.4065 -0.2712
   9523SM   C5S12810   3.279   2.307  12.418 -0.2310 -0.4902  0.6052
   9523SM   H5S12811   3.303   2.241  12.333 -2.3056  0.2825 -0.6291
   9523SM   C6S12812   3.363   2.290  12.545  0.1572  0.2062  0.7672
   9523SM   H6S12813   3.472   2.309  12.539  0.5035 -1.0880  2.3195
   9523SM   H6T12814   3.354   2.185  12.579  1.3412  0.0625  0.6654
   9523SM   C7S12815   3.327   2.383  12.669 -0.0426 -0.3059  0.0976
   9523SM   H7S12816   3.224   2.353  12.698 -0.7074  1.1482 -0.6660
   9523SM   H7T12817   3.327   2.488  12.631 -2.2088 -0.9235 -1.8561
   9523SM   C8S12818   3.424   2.378  12.784  0.6660 -0.4825  0.2143
   9523SM   H8S12819   3.523   2.411  12.745  0.1709  0.8349  0.0271
   9523SM   H8T12820   3.425   2.274  12.822 -0.8149 -1.0959 -1.2987
   9523SM   C9S12821   3.378   2.470  12.908  0.0962 -0.3231  0.1092
   9523SM   H9S12822   3.271   2.448  12.928  0.7432 -2.9633  1.1277
   9523SM   H9T12823   3.391   2.576  12.880  0.7818 -0.4101  0.0974
   9523SM  C10S12824   3.453   2.456  13.045  0.5992 -0.0243  0.2959
   9523SM  H10S12825   3.563   2.458  13.029  0.3211  1.4651 -1.8282
   9523SM  H10T12826   3.424   2.363  13.099 -2.1544  1.5030  1.6659
   9523SM  C11S12827   3.414   2.575  13.140 -0.0120  0.1136  0.5091
   9523SM  H11S12828   3.304   2.590  13.149 -0.0667  0.3667 -0.5087
   9523SM  H11T12829   3.437   2.663  13.076 -0.5503 -1.6604 -2.2842
   9523SM  C12S12830   3.489   2.579  13.275  0.4233  0.2911 -0.5662
   9523SM  H12S12831   3.509   2.677  13.325 -0.2218 -0.7537  1.9016
   9523SM  H12T12832   3.585   2.525  13.261  0.9719  1.1154 -0.1021
   9523SM  C13S12833   3.407   2.510  13.391 -0.5494 -0.7176  0.3922
   9523SM  H13S12834   3.418   2.400  13.381  1.7746 -0.3793 -1.6519
   9523SM  H13T12835   3.297   2.527  13.399 -0.7834 -2.7594  2.3648
   9523SM  C14S12836   3.470   2.538  13.532  0.1350  0.2503  0.2605
   9523SM  H14S12837   3.465   2.646  13.559 -2.7731 -0.3211  2.4242
   9523SM  H14T12838   3.575   2.504  13.513 -1.2051 -3.4377 -1.4876
   9523SM  C15S12839   3.409   2.474  13.652 -0.0587 -0.5796 -0.6650
   9523SM  H15S12840   3.415   2.363  13.647 -2.1925 -0.9462  2.0043
   9523SM  H15T12841   3.299   2.490  13.656  0.1200  0.6459 -0.3184
   9523SM  C16S12842   3.470   2.516  13.787  0.0655  0.1856 -0.1239
   9523SM  H16S12843   3.474   2.627  13.791  0.2808  0.1848 -0.3140
   9523SM  H16T12844   3.576   2.483  13.786 -0.0474 -0.4314  2.5071
   9523SM  C17S12845   3.395   2.456  13.910  0.5024  0.1907 -0.0319
   9523SM  H17S12846   3.370   2.350  13.888 -2.7118  0.5210  1.4836
   9523SM  H17T12847   3.299   2.509  13.926 -0.1441 -0.8364 -0.3977
   9523SM  C18S12848   3.470   2.460  14.045 -0.2773  0.7036  0.5461
   9523SM  H18S12849   3.578   2.445  14.021 -0.4769 -2.6458  1.2993
   9523SM  H18T12850   3.435   2.373  14.105 -2.0392 -0.1334 -1.5320
   9523SM  H18U12851   3.468   2.559  14.094  0.1759  3.0548 -3.6502
   9523SM   C1F12852   2.764   2.237  12.424  0.6007  1.0029 -0.2095
   9523SM    OF12853   2.758   2.126  12.368  0.1299  0.2548 -0.1727
   9523SM   C2F12854   2.663   2.263  12.541 -0.3412  0.3104  0.3164
   9523SM   H2F12855   2.560   2.270  12.499  0.0886 -0.7357 -0.9744
   9523SM   H2G12856   2.702   2.358  12.584  0.8081 -0.1754  0.3725
   9523SM   C3F12857   2.670   2.138  12.630  0.5010 -0.1648 -0.4459
   9523SM   H3F12858   2.778   2.119  12.647  0.3811 -0.2007  0.2979
   9523SM   H3G12859   2.620   2.054  12.578 -0.0450 -0.1278  0.0154
   9523SM   C4F12860   2.592   2.164  12.768 -0.0524  0.1746 -0.1046
   9523SM   H4F12861   2.482   2.167  12.749 -0.0336  2.2728 -0.1471
   9523SM   H4G12862   2.622   2.269  12.789 -2.0398  0.4607  1.7319
   9523SM   C5F12863   2.624   2.078  12.891 -0.0502  0.8977  0.8063
   9523SM   H5F12864   2.730   2.044  12.886 -0.4306 -0.3058  0.5824
   9523SM   H5G12865   2.572   1.981  12.876  2.5120 -0.4773  0.2403
   9523SM   C6F12866   2.566   2.136  13.023  0.5987 -0.2551 -0.2210
   9523SM   H6F12867   2.458   2.156  13.005  0.5492 -0.9167 -0.6976
   9523SM   H6G12868   2.617   2.234  13.030 -0.7100  0.5054 -0.9711
   9523SM   C7F12869   2.596   2.049  13.150 -0.1023  0.4257  0.2532
   9523SM   H7F12870   2.700   2.010  13.151 -0.4676 -0.5529  1.5488
   9523SM   H7G12871   2.525   1.964  13.143 -0.6269  0.8025  0.8714
   9523SM   C8F12872   2.551   2.118  13.282 -0.5312  0.7383  0.6906
   9523SM   H8F12873   2.442   2.141  13.283 -0.0565  3.3774  1.0049
   9523SM   H8G12874   2.601   2.217  13.291 -0.4161  1.0028 -2.0641
   9523SM   C9F12875   2.587   2.025  13.396  0.0754  0.5230  0.1787
   9523SM   H9F12876   2.697   2.020  13.408 -0.1126 -0.7039  1.7200
   9523SM   H9G12877   2.549   1.920  13.386 -0.8379  0.7507  1.1049
   9523SM  C10F12878   2.535   2.076  13.528  0.5271 -0.7014  0.4538
   9523SM  H10F12879   2.424   2.071  13.525  0.3678  1.3491  1.5840
   9523SM  H10G12880   2.552   2.186  13.526 -0.1402 -0.5985 -0.9896
   9523SM  C11F12881   2.575   2.009  13.660 -0.2195  0.2794  0.3937
   9523SM  H11F12882   2.685   2.002  13.668  0.1331  2.2071 -1.6923
   9523SM  H11G12883   2.543   1.903  13.656 -0.2426  0.3241 -0.9496
   9523SM  C12F12884   2.508   2.068  13.783 -0.4052  0.8440  0.2478
   9523SM  H12F12885   2.403   2.097  13.760 -0.0075  1.3352 -1.0290
   9523SM  H12G12886   2.560   2.162  13.811  0.5832 -0.1731  1.9961
   9523SM  C13F12887   2.501   1.986  13.913  0.1714  0.6377  0.9070
   9523SM  H13F12888   2.602   1.948  13.939 -0.3618 -0.9742  0.7462
   9523SM  H13G12889   2.442   1.894  13.892  0.6743  0.4049  0.4921
   9523SM  C14F12890   2.439   2.064  14.022 -0.4654  0.6963 -0.6068
   9523SM  H14F12891   2.331   2.080  14.003 -0.8030 -1.0317 -0.3055
   9523SM  H14G12892   2.492   2.161  14.033 -0.9288  0.9765 -0.8152
   9523SM  C15F12893   2.459   1.990  14.153 -0.2896  0.1586 -0.2046
   9523SM  H15F12894   2.450   2.057  14.241  0.3451 -0.3560  0.2603
   9523SM  H15G12895   2.561   1.948  14.167  0.0104  0.7256 -0.6297
   9523SM  C16F12896   2.357   1.876  14.185 -0.4490  0.5901 -0.1137
   9523SM  H16F12897   2.370   1.795  14.110  0.4825 -0.7215  1.3764
   9523SM  H16G12898   2.254   1.915  14.187 -1.0800 -0.9452  2.5586
   9523SM  C17F12899   2.381   1.810  14.325 -0.0747 -0.1798 -0.1781
   9523SM  H17F12900   2.480   1.760  14.322 -0.1349 -0.2743 -0.6657
   9523SM  H17G12901   2.307   1.727  14.330 -2.2217  1.7102  1.3826
   9523SM  C18F12902   2.377   1.912  14.440  0.3170 -0.5450 -0.4305
   9523SM  H18F12903   2.294   1.985  14.444  1.0385  0.2341  0.9798
   9523SM  H18G12904   2.464   1.981  14.433 -1.4074  1.7631 -0.3419
   9523SM  C19F12905   2.391   1.847  14.582 -0.0585  0.2556  0.3661
   9523SM  H19F12906   2.300   1.785  14.598 -0.4508  0.6981 -0.1303
   9523SM  H19G12907   2.378   1.922  14.663 -0.4096  0.2025  0.3597
   9523SM  C20F12908   2.510   1.754  14.599 -0.6139 -0.1601  0.0381
   9523SM  H20F12909   2.596   1.799  14.546  0.6463 -1.1160  1.1777
   9523SM  H20G12910   2.488   1.652  14.559  1.4589 -0.1854 -1.1754
   9523SM  C21F12911   2.557   1.731  14.747  0.6368 -0.1218 -0.5682
   9523SM  H21F12912   2.466   1.691  14.796  2.6179 -4.8193 -0.2704
   9523SM  H21G12913   2.575   1.833  14.788  1.4495 -0.2645 -0.5693
   9523SM  C22F12914   2.672   1.631  14.781  0.4369  0.4468 -0.2211
   9523SM  H22F12915   2.681   1.621  14.892  2.7615 -0.4610 -0.4595
   9523SM  H22G12916   2.761   1.674  14.731 -1.1771  1.2955 -2.5470
   9523SM  C23F12917   2.650   1.489  14.730  0.4570  0.7620 -0.4741
   9523SM  H23F12918   2.609   1.486  14.627  0.2676 -0.7267 -0.3748
   9523SM  H23G12919   2.578   1.439  14.799 -1.0698  1.3216 -1.6031
   9523SM  H23H12920   2.745   1.432  14.722 -1.2705 -2.8982  2.2434
   9623SM     N12921   2.408   5.443  11.718 -0.0452  0.0312  0.4195
   9623SM   C1512922   2.482   5.572  11.739 -0.1510 -0.1021 -0.2695
   9623SM  H15A12923   2.438   5.639  11.811 -1.3944  1.2744 -2.2111
   9623SM  H15B12924   2.483   5.630  11.648 -2.4067 -1.5238 -1.2969
   9623SM  H15C12925   2.582   5.548  11.772 -0.0451  1.2300  0.4175
   9623SM   C1412926   2.283   5.481  11.642 -0.0222  0.1254 -1.0592
   9623SM  H14A12927   2.296   5.516  11.541 -0.3970  2.2134 -0.4164
   9623SM  H14B12928   2.228   5.556  11.696 -1.6502 -0.5417 -1.7393
   9623SM  H14C12929   2.220   5.394  11.633 -1.1383  1.0106 -2.1367
   9623SM   C1312930   2.493   5.340  11.649 -0.0765 -0.3545  0.4680
   9623SM  H13A12931   2.435   5.253  11.621  2.5332 -2.2532  0.5386
   9623SM  H13B12932   2.578   5.306  11.707  0.8802  0.5505 -0.3574
   9623SM  H13C12933   2.529   5.382  11.556 -2.0259  2.2339  0.7979
   9623SM   C1212934   2.362   5.386  11.851 -0.3927 -0.4792  0.1297
   9623SM  H12A12935   2.316   5.291  11.827  0.2950 -1.1449  1.3252
   9623SM  H12B12936   2.285   5.449  11.893  0.0107 -0.9563  1.6605
   9623SM   C1112937   2.465   5.363  11.967  0.8192  0.5635 -0.0845
   9623SM  H11A12938   2.413   5.327  12.058  1.2337  0.7153  0.2165
   9623SM  H11B12939   2.513   5.460  11.990 -1.8486  2.2063 -0.9652
   9623SM     P12940   2.706   5.280  11.972  0.1603  0.4242  0.2514
   9623SM   O1312941   2.788   5.174  11.902  0.1158  0.1143  0.0059
   9623SM   O1412942   2.756   5.419  11.956  0.4909  0.1801 -1.1433
   9623SM   O1112943   2.692   5.239  12.120 -0.2465 -0.0547  0.3108
   9623SM   O1212944   2.558   5.264  11.929  0.5423  0.7299  0.3232
   9623SM   C1S12945   2.728   5.348  12.210  0.2670  0.5094  0.5219
   9623SM   H1S12946   2.678   5.445  12.189  0.4541  0.2580 -1.2364
   9623SM   H1T12947   2.837   5.365  12.198  0.3953 -0.2096  0.6367
   9623SM    NF12948   2.767   5.420  12.438 -0.9167 -0.5271 -0.3369
   9623SM   HNF12949   2.858   5.417  12.477 -0.5828 -0.6249 -1.1089
   9623SM   C2S12950   2.724   5.309  12.361  0.2736 -0.2963 -0.4948
   9623SM   H2S12951   2.619   5.286  12.389  0.3399 -2.2412 -1.6497
   9623SM   C3S12952   2.805   5.181  12.385  1.1200  0.5012  0.5360
   9623SM   H3S12953   2.910   5.193  12.351  1.0778 -0.0119  0.2149
   9623SM    O312954   2.760   5.070  12.311 -0.1333 -0.2988 -0.1919
   9623SM   HO312955   2.708   5.101  12.236 -1.5781 -1.9342  0.0730
   9623SM   C4S12956   2.812   5.153  12.531 -0.3798  0.6714 -0.2418
   9623SM   H4S12957   2.901   5.188  12.585 -1.2663  1.8566  0.5039
   9623SM   C5S12958   2.712   5.106  12.602  0.6645 -0.2177 -0.0991
   9623SM   H5S12959   2.619   5.070  12.554 -0.2110 -0.1970  1.5072
   9623SM   C6S12960   2.701   5.094  12.754 -0.0829  0.1671  0.0080
   9623SM   H6S12961   2.678   4.986  12.764 -0.0695  0.0071 -1.5464
   9623SM   H6T12962   2.617   5.156  12.794 -1.3673 -2.8877  2.4543
   9623SM   C7S12963   2.836   5.111  12.835  0.1892 -0.1660 -0.6227
   9623SM   H7S12964   2.859   5.219  12.820 -0.7615 -0.0627 -1.5102
   9623SM   H7T12965   2.924   5.054  12.800  1.4920  2.6458 -2.3055
   9623SM   C8S12966   2.813   5.087  12.984 -0.9047  0.4680 -0.2159
   9623SM   H8S12967   2.914   5.070  13.027 -0.5839  1.2612 -0.6196
   9623SM   H8T12968   2.769   4.987  13.000  0.5551 -0.3505 -1.1358
   9623SM   C9S12969   2.743   5.201  13.056  0.3249 -0.1941 -0.2471
   9623SM   H9S12970   2.646   5.224  13.008  0.0452 -1.0482 -0.1109
   9623SM   H9T12971   2.795   5.299  13.055  0.2123 -0.1314 -0.0596
   9623SM  C10S12972   2.729   5.157  13.205  0.5916 -0.0059 -0.4000
   9623SM  H10S12973   2.832   5.143  13.244  0.9300 -0.2057 -1.3418
   9623SM  H10T12974   2.680   5.058  13.215  0.6537 -0.2221 -2.0881
   9623SM  C11S12975   2.659   5.253  13.298 -0.5684 -0.8558 -0.2670
   9623SM  H11S12976   2.556   5.272  13.263  0.4267  1.4141 -2.2962
   9623SM  H11T12977   2.705   5.351  13.273  0.0611 -1.2546 -0.7048
   9623SM  C12S12978   2.673   5.228  13.453  0.1281 -0.0689  0.7898
   9623SM  H12S12979   2.783   5.223  13.469  0.5674  1.3716 -1.4000
   9623SM  H12T12980   2.643   5.123  13.473 -3.4591  0.4384 -1.1029
   9623SM  C13S12981   2.598   5.319  13.546 -0.2252  0.2941 -0.0791
   9623SM  H13S12982   2.491   5.291  13.533 -0.1485 -1.4413  2.2983
   9623SM  H13T12983   2.616   5.428  13.531 -3.4896  1.1880  1.6778
   9623SM  C14S12984   2.639   5.281  13.686  0.3066 -0.0178 -0.3404
   9623SM  H14S12985   2.748   5.303  13.692 -0.1193  2.0713  0.7884
   9623SM  H14T12986   2.619   5.172  13.700 -3.1482  0.6296  0.8584
   9623SM  C15S12987   2.557   5.358  13.787  0.2114 -0.1127 -0.0372
   9623SM  H15S12988   2.449   5.342  13.765  0.6591 -1.0503 -1.7280
   9623SM  H15T12989   2.570   5.467  13.771  0.2980  0.0241  0.9455
   9623SM  C16S12990   2.600   5.342  13.940  0.4472 -0.5128  0.6933
   9623SM  H16S12991   2.693   5.400  13.960 -0.3260  0.1006  2.7659
   9623SM  H16T12992   2.636   5.239  13.960  0.3235 -0.3584  1.8224
   9623SM  C17S12993   2.493   5.376  14.044 -0.7014 -0.5976  0.2631
   9623SM  H17S12994   2.396   5.340  14.004 -1.2215  1.7012 -0.7484
   9623SM  H17T12995   2.488   5.486  14.061  1.0248 -0.4620  0.1149
   9623SM  C18S12996   2.526   5.302  14.171  0.2528 -0.0703 -0.1765
   9623SM  H18S12997   2.629   5.323  14.207 -0.2213  0.1724  1.1109
   9623SM  H18T12998   2.515   5.192  14.157  0.0098 -0.1125  0.3275
   9623SM  H18U12999   2.455   5.332  14.250 -1.3828  0.0866 -1.6576
   9623SM   C1F13000   2.695   5.535  12.452 -0.4341 -0.2943 -0.6174
   9623SM    OF13001   2.589   5.543  12.393 -0.1877  0.8170 -0.0710
   9623SM   C2F13002   2.755   5.654  12.533 -0.1125 -0.5493 -0.0135
   9623SM   H2F13003   2.856   5.681  12.497  0.0458  1.6604  1.9105
   9623SM   H2G13004   2.744   5.621  12.638  0.9362 -1.6536 -0.2303
   9623SM   C3F13005   2.677   5.782  12.502 -0.2771 -0.2492 -0.2050
   9623SM   H3F13006   2.571   5.772  12.535 -0.2847 -1.7065 -0.6059
   9623SM   H3G13007   2.681   5.807  12.393  0.7072  0.3244 -0.0448
   9623SM   C4F13008   2.726   5.904  12.578 -0.2212 -0.0339 -0.0790
   9623SM   H4F13009   2.819   5.946  12.535 -0.6558 -1.0103 -2.0936
   9623SM   H4G13010   2.743   5.880  12.685  1.2347  2.0353  0.2146
   9623SM   C5F13011   2.618   6.014  12.596 -0.5625  0.3901  0.3748
   9623SM   H5F13012   2.532   5.963  12.643 -0.0040 -1.9079 -0.9312
   9623SM   H5G13013   2.575   6.050  12.501 -0.6428  0.9905  0.6348
   9623SM   C6F13014   2.655   6.126  12.697 -0.6819  0.6756 -0.4947
   9623SM   H6F13015   2.596   6.216  12.670 -1.0856  0.9143  1.0787
   9623SM   H6G13016   2.763   6.150  12.698 -0.2353 -1.1786 -0.9491
   9623SM   C7F13017   2.630   6.089  12.842 -0.2915 -0.4575 -0.0061
   9623SM   H7F13018   2.692   6.004  12.879 -0.0096 -0.2410  0.0192
   9623SM   H7G13019   2.523   6.061  12.859 -0.0671 -1.1742  0.2857
   9623SM   C8F13020   2.660   6.211  12.931 -0.3774  0.4201 -0.2846
   9623SM   H8F13021   2.587   6.293  12.910  0.4994  1.1180 -0.6955
   9623SM   H8G13022   2.755   6.254  12.894 -0.3584  0.6417  0.0240
   9623SM   C9F13023   2.657   6.188  13.085  0.6284 -0.1199  0.4040
   9623SM   H9F13024   2.722   6.262  13.137  0.7235  0.0254  0.0794
   9623SM   H9G13025   2.678   6.081  13.107 -1.7484 -0.9151 -0.9165
   9623SM  C10F13026   2.524   6.244  13.143 -0.2420  0.1425 -0.5000
   9623SM  H10F13027   2.438   6.206  13.083 -1.8677  1.1271  1.0783
   9623SM  H10G13028   2.522   6.353  13.119 -1.4909  0.4943  1.0329
   9623SM  C11F13029   2.500   6.213  13.297  0.5485  0.3407  0.5646
   9623SM  H11F13030   2.505   6.102  13.311 -1.1081  0.1494 -0.1575
   9623SM  H11G13031   2.404   6.245  13.341  1.4025 -0.8882  3.5879
   9623SM  C12F13032   2.600   6.283  13.391 -0.1830  0.2252 -0.1542
   9623SM  H12F13033   2.588   6.388  13.357  0.6449  0.5271  0.4512
   9623SM  H12G13034   2.702   6.245  13.373 -0.4819 -0.3801 -0.6259
   9623SM  C13F13035   2.556   6.284  13.538 -0.3013 -0.1527  0.0148
   9623SM  H13F13036   2.516   6.183  13.566 -0.1989  0.2263  1.6477
   9623SM  H13G13037   2.467   6.346  13.562  1.0138  1.7907  0.0985
   9623SM  C14F13038   2.668   6.317  13.632  0.2547 -0.2940  0.8973
   9623SM  H14F13039   2.758   6.255  13.616  0.8491  0.8108 -0.2874
   9623SM  H14G13040   2.625   6.307  13.734 -0.4890 -0.7077  0.5514
   9623SM  C15F13041   2.695   6.471  13.615  0.0521 -0.4230  0.1624
   9623SM  H15F13042   2.593   6.514  13.624 -0.7940 -2.3998  0.4218
   9623SM  H15G13043   2.746   6.498  13.520 -1.1876  0.8527 -0.1601
   9623SM  C16F13044   2.778   6.534  13.732 -0.1169 -0.2823 -0.5444
   9623SM  H16F13045   2.705   6.515  13.813 -0.0930  0.0956 -0.4312
   9623SM  H16G13046   2.802   6.641  13.712 -1.7439 -0.2049 -2.4868
   9623SM  C17F13047   2.908   6.461  13.767 -0.1294 -0.2230 -0.0746
   9623SM  H17F13048   2.974   6.440  13.680 -1.7996  1.1695 -1.7723
   9623SM  H17G13049   2.879   6.358  13.794 -1.8085  0.0472 -0.7305
   9623SM  C18F13050   2.990   6.504  13.888  0.0463  0.6572 -0.9638
   9623SM  H18F13051   3.039   6.600  13.863  1.2336  0.5170  0.6995
   9623SM  H18G13052   3.068   6.426  13.900 -1.3593 -0.7561 -0.6876
   9623SM  C19F13053   2.923   6.524  14.031 -0.0329 -0.0891 -0.2525
   9623SM  H19F13054   2.843   6.450  14.053  0.5111 -0.2408  1.4112
   9623SM  H19G13055   2.863   6.617  14.028 -1.2472 -0.7960  0.9840
   9623SM  C20F13056   3.014   6.525  14.155  0.3074  0.0949  0.5597
   9623SM  H20F13057   2.948   6.566  14.235  0.0174 -0.2468  0.4969
   9623SM  H20G13058   3.096   6.598  14.137 -0.5171  0.8491 -0.3110
   9623SM  C21F13059   3.061   6.387  14.217 -0.1408 -0.5439  0.5482
   9623SM  H21F13060   3.107   6.326  14.136 -0.0554  0.1932  0.0370
   9623SM  H21G13061   2.962   6.347  14.250 -0.8139  0.5892 -0.0185
   9623SM  C22F13062   3.154   6.399  14.335 -0.1826  0.8318 -0.7314
   9623SM  H22F13063   3.114   6.476  14.405 -1.8979 -1.8377  1.4200
   9623SM  H22G13064   3.249   6.438  14.293  0.5653  1.1778  1.1591
   9623SM  C23F13065   3.185   6.275  14.418  0.3280  0.2583 -0.3333
   9623SM  H23F13066   3.089   6.243  14.464  0.4678  0.4102  0.0666
   9623SM  H23G13067   3.252   6.303  14.501  1.1815  0.0036 -0.9259
   9623SM  H23H13068   3.231   6.191  14.363  0.7218 -0.2899  0.8139
   9723SM     N13069   3.815   0.883  11.571  0.0024  0.2053  0.3542
   9723SM   C1513070   3.933   0.819  11.643 -0.4000 -0.1375  0.0145
   9723SM  H15A13071   3.975   0.884  11.718 -1.0803  0.0623  0.2276
   9723SM  H15B13072   4.008   0.807  11.566  1.4393  1.2070  1.5184
   9723SM  H15C13073   3.917   0.722  11.688  1.3205  0.7976  2.8935
   9723SM   C1413074   3.713   0.948  11.663 -0.0328  0.4343  0.4931
   9723SM  H14A13075   3.757   1.016  11.734  1.3364  1.1081 -0.9469
   9723SM  H14B13076   3.664   0.869  11.719  0.5586 -0.2901 -0.0006
   9723SM  H14C13077   3.633   0.994  11.608  1.9445  1.1885 -1.9041
   9723SM   C1313078   3.848   0.997  11.479 -0.8905 -0.5805 -0.2563
   9723SM  H13A13079   3.882   1.080  11.538 -1.3856  0.0311 -0.8158
   9723SM  H13B13080   3.767   1.027  11.414 -0.0351  1.7577 -0.3326
   9723SM  H13C13081   3.931   0.969  11.415 -1.0900  1.4494 -1.4779
   9723SM   C1213082   3.747   0.771  11.494 -0.1891 -0.1646  0.4191
   9723SM  H12A13083   3.734   0.681  11.552 -0.9743  0.9472  2.0253
   9723SM  H12B13084   3.818   0.748  11.415  1.2684  1.9173  1.0278
   9723SM   C1113085   3.605   0.790  11.432  0.7197  0.3538 -0.1265
   9723SM  H11A13086   3.596   0.706  11.360 -0.0371 -1.1256  1.6321
   9723SM  H11B13087   3.596   0.889  11.382 -1.4583  0.6399  0.7259
   9723SM     P13088   3.381   0.673  11.527  0.2402 -0.3891 -0.6138
   9723SM   O1313089   3.257   0.744  11.492  0.3537  0.2319  0.3279
   9723SM   O1413090   3.412   0.551  11.450  0.1214  0.5675 -0.6546
   9723SM   O1113091   3.364   0.635  11.682  0.4838  0.6887  0.2025
   9723SM   O1213092   3.504   0.776  11.532  0.1711 -0.0139 -0.3375
   9723SM   C1S13093   3.475   0.655  11.772  0.5458  0.0524 -0.9384
   9723SM   H1S13094   3.518   0.757  11.768  1.1307 -0.2006 -1.2108
   9723SM   H1T13095   3.554   0.578  11.757  0.9572  0.4380 -0.7881
   9723SM    NF13096   3.550   0.651  12.006 -0.4332  0.1196  0.3121
   9723SM   HNF13097   3.596   0.572  12.045  1.9314  0.6534 -1.2135
   9723SM   C2S13098   3.435   0.623  11.918 -0.0655  0.0352 -0.0808
   9723SM   H2S13099   3.360   0.696  11.954  0.2458 -0.4260  1.5893
   9723SM   C3S13100   3.363   0.480  11.917 -0.2775 -0.1245  0.0649
   9723SM   H3S13101   3.430   0.407  11.867 -1.0463 -0.2395 -0.8228
   9723SM    O313102   3.251   0.470  11.833  0.1001  0.0229 -0.1527
   9723SM   HO313103   3.256   0.547  11.776 -2.7111  0.7221  0.3672
   9723SM   C4S13104   3.329   0.434  12.055  0.6258  0.5027 -0.8076
   9723SM   H4S13105   3.393   0.355  12.096 -0.2830  0.1811  0.0426
   9723SM   C5S13106   3.241   0.479  12.138  0.1310 -0.2454  0.3458
   9723SM   H5S13107   3.175   0.563  12.111  0.0967 -0.1755  0.6425
   9723SM   C6S13108   3.214   0.408  12.273 -0.1370  0.4141  0.0716
   9723SM   H6S13109   3.239   0.299  12.275 -0.9265  0.2277  0.7494
   9723SM   H6T13110   3.106   0.396  12.297 -0.3227 -0.4929 -1.1123
   9723SM   C7S13111   3.274   0.483  12.388  0.5928 -0.4441  0.3351
   9723SM   H7S13112   3.225   0.582  12.399  0.2776 -0.6855  1.1635
   9723SM   H7T13113   3.383   0.500  12.373  0.0176  4.1275  0.1566
   9723SM   C8S13114   3.257   0.418  12.524 -1.0030 -0.4614  0.8652
   9723SM   H8S13115   3.297   0.316  12.504  0.3935  0.2293 -0.0796
   9723SM   H8T13116   3.150   0.409  12.552 -1.7357  1.7446 -0.8838
   9723SM   C9S13117   3.324   0.491  12.647 -0.6583  0.5570  0.3719
   9723SM   H9S13118   3.276   0.588  12.673  1.1920  1.1895  1.6479
   9723SM   H9T13119   3.427   0.518  12.613 -0.3897 -0.5115  0.2752
   9723SM  C10S13120   3.328   0.406  12.776 -1.0457  0.2729  0.5361
   9723SM  H10S13121   3.387   0.316  12.748 -3.2923 -0.9105 -0.6136
   9723SM  H10T13122   3.223   0.378  12.801 -1.5303  1.2453 -0.3448
   9723SM  C11S13123   3.384   0.489  12.894 -0.6764  0.1370  0.2867
   9723SM  H11S13124   3.358   0.597  12.895  1.0831  0.6302  3.0552
   9723SM  H11T13125   3.495   0.481  12.901 -0.3067  3.2974 -0.1665
   9723SM  C12S13126   3.325   0.431  13.025 -0.3030 -0.1730  0.2619
   9723SM  H12S13127   3.338   0.320  13.025  1.0017 -0.0349 -0.5387
   9723SM  H12T13128   3.219   0.453  13.047 -0.7140  0.7785 -2.3300
   9723SM  C13S13129   3.405   0.487  13.144 -0.8776  0.0177  0.4166
   9723SM  H13S13130   3.398   0.598  13.149 -2.1249  0.0176 -0.7554
   9723SM  H13T13131   3.509   0.461  13.114 -0.1560 -2.3598  4.2603
   9723SM  C14S13132   3.361   0.440  13.284  0.5166  0.5496 -0.3236
   9723SM  H14S13133   3.355   0.329  13.285  0.6925  0.5413  1.1264
   9723SM  H14T13134   3.256   0.472  13.304  1.3833  1.8331  2.6810
   9723SM  C15S13135   3.447   0.500  13.397 -0.6744  0.7488 -0.2452
   9723SM  H15S13136   3.424   0.608  13.396 -3.4908  0.3000  2.4538
   9723SM  H15T13137   3.554   0.476  13.377 -0.4753 -0.5753  2.0050
   9723SM  C16S13138   3.415   0.445  13.535  1.4185  0.5830 -0.6735
   9723SM  H16S13139   3.459   0.343  13.540  3.4237  1.4322 -0.1764
   9723SM  H16T13140   3.306   0.439  13.557  1.4268 -1.0547 -0.9827
   9723SM  C17S13141   3.487   0.532  13.642 -0.1866 -0.5584  0.2195
   9723SM  H17S13142   3.437   0.630  13.625  0.3070  0.0427  2.0747
   9723SM  H17T13143   3.596   0.530  13.618 -0.2425  0.2642 -0.1413
   9723SM  C18S13144   3.471   0.487  13.783 -0.3995  0.1447 -0.4292
   9723SM  H18S13145   3.513   0.553  13.862  0.5457 -0.8027 -0.1166
   9723SM  H18T13146   3.521   0.388  13.793 -0.5174 -0.1413 -2.3693
   9723SM  H18U13147   3.362   0.485  13.804 -0.3038 -1.5287  0.0769
   9723SM   C1F13148   3.610   0.776  12.024  0.3154 -0.2851 -0.4167
   9723SM    OF13149   3.574   0.876  11.959 -0.2015 -0.0798 -0.2519
   9723SM   C2F13150   3.713   0.801  12.126 -0.8373 -0.3391  0.2788
   9723SM   H2F13151   3.799   0.861  12.086 -1.3232  1.8827  2.3046
   9723SM   H2G13152   3.757   0.705  12.161 -0.5193 -0.7263 -1.0888
   9723SM   C3F13153   3.657   0.854  12.263  0.2825 -0.2863 -0.0788
   9723SM   H3F13154   3.591   0.939  12.237  0.9439  0.1889 -0.2373
   9723SM   H3G13155   3.738   0.901  12.324  0.5544  0.0283 -0.6715
   9723SM   C4F13156   3.577   0.744  12.342 -0.7476 -0.5005  0.3132
   9723SM   H4F13157   3.651   0.665  12.369 -0.0955  0.5295  1.6414
   9723SM   H4G13158   3.493   0.699  12.285 -0.1138 -0.8530 -0.3655
   9723SM   C5F13159   3.514   0.793  12.469 -0.3412  0.2180  0.0361
   9723SM   H5F13160   3.433   0.723  12.497 -1.0891  1.6285  1.6190
   9723SM   H5G13161   3.463   0.891  12.451 -1.1875 -0.3303 -0.5956
   9723SM   C6F13162   3.609   0.795  12.592  0.2405 -0.1611 -0.0467
   9723SM   H6F13163   3.674   0.884  12.574 -0.6895  0.5207 -0.0668
   9723SM   H6G13164   3.681   0.711  12.579 -0.3034 -0.5782 -0.4147
   9723SM   C7F13165   3.540   0.791  12.726 -0.1085 -0.6197 -0.0455
   9723SM   H7F13166   3.525   0.684  12.752 -3.6121 -0.1510  0.4344
   9723SM   H7G13167   3.438   0.836  12.721  0.0131 -0.4264 -0.9690
   9723SM   C8F13168   3.615   0.868  12.835  0.8165 -0.0335  0.2037
   9723SM   H8F13169   3.590   0.974  12.812  2.9838  0.3694 -0.5465
   9723SM   H8G13170   3.724   0.849  12.834  1.1184  1.2370  2.6707
   9723SM   C9F13171   3.565   0.833  12.979 -0.2167  0.5532  0.4533
   9723SM   H9F13172   3.576   0.726  13.008 -2.5744 -0.3475 -1.5751
   9723SM   H9G13173   3.454   0.844  12.978 -0.2335  0.4120 -0.6449
   9723SM  C10F13174   3.616   0.934  13.081 -0.7295 -0.1684  0.1388
   9723SM  H10F13175   3.573   1.037  13.080 -3.3708 -1.2085 -1.0315
   9723SM  H10G13176   3.726   0.938  13.070 -0.7165  2.2877  0.5037
   9723SM  C11F13177   3.586   0.885  13.226  0.2177 -0.2263 -0.3370
   9723SM  H11F13178   3.615   0.778  13.232 -0.9299 -0.5888 -0.8472
   9723SM  H11G13179   3.476   0.892  13.244  0.3380 -1.5439  1.0555
   9723SM  C12F13180   3.653   0.964  13.337  0.0246 -0.5491  0.1089
   9723SM  H12F13181   3.641   1.073  13.320 -0.5828 -0.6422 -0.0600
   9723SM  H12G13182   3.763   0.949  13.349  0.1247 -0.3527 -0.5123
   9723SM  C13F13183   3.602   0.931  13.475  0.2668 -0.2122 -0.9660
   9723SM  H13F13184   3.683   0.909  13.547 -1.7722 -0.7880  1.2936
   9723SM  H13G13185   3.549   0.834  13.485  0.5594 -0.1709  1.5782
   9723SM  C14F13186   3.513   1.041  13.531  0.1430 -0.1012 -1.3414
   9723SM  H14F13187   3.410   1.022  13.496 -0.1875 -0.3773 -0.2750
   9723SM  H14G13188   3.543   1.144  13.504 -1.1569  1.1898  1.7054
   9723SM  C15F13189   3.520   1.045  13.681  0.2008  0.4058 -0.1676
   9723SM  H15F13190   3.623   1.077  13.710 -0.1242  0.2131  1.2778
   9723SM  H15G13191   3.502   0.945  13.724 -0.4997 -0.0352 -1.4257
   9723SM  C16F13192   3.410   1.134  13.746 -0.0775  0.4278  0.0318
   9723SM  H16F13193   3.305   1.103  13.729 -0.2481  1.4439 -0.8351
   9723SM  H16G13194   3.423   1.237  13.705  0.8400  0.2499 -0.1711
   9723SM  C17F13195   3.421   1.128  13.897 -0.6721 -0.3221  0.1169
   9723SM  H17F13196   3.526   1.157  13.917 -0.9088  2.2471 -1.8182
   9723SM  H17G13197   3.398   1.026  13.936  2.2271 -0.9677  0.3572
   9723SM  C18F13198   3.323   1.232  13.970 -0.7724  0.1240  0.5232
   9723SM  H18F13199   3.332   1.329  13.917 -0.7108 -0.1258  0.0709
   9723SM  H18G13200   3.375   1.254  14.066 -0.1187 -1.1398  0.4801
   9723SM  C19F13201   3.185   1.180  14.011  0.0216 -0.2003 -0.3258
   9723SM  H19F13202   3.199   1.072  14.034  0.1906  0.0822  0.9765
   9723SM  H19G13203   3.123   1.198  13.921 -1.1776  1.2882  0.7408
   9723SM  C20F13204   3.108   1.255  14.121 -0.3204 -0.2123  0.2076
   9723SM  H20F13205   3.122   1.361  14.093  0.0089  0.0037  1.1451
   9723SM  H20G13206   3.157   1.241  14.221  3.4280 -0.0622 -1.4352
   9723SM  C21F13207   2.959   1.220  14.125  0.2822  0.4549  0.2455
   9723SM  H21F13208   2.946   1.112  14.100 -2.6646  1.2848 -2.5652
   9723SM  H21G13209   2.919   1.271  14.034 -0.2786  1.5765  1.0985
   9723SM  C22F13210   2.890   1.271  14.254 -0.0899  0.8960  0.1688
   9723SM  H22F13211   2.782   1.247  14.239 -0.0795  1.6414 -1.2867
   9723SM  H22G13212   2.887   1.382  14.255  2.1608  0.9984 -0.5843
   9723SM  C23F13213   2.937   1.205  14.377  0.3335 -0.5580  0.0686
   9723SM  H23F13214   2.896   1.105  14.403  1.4721 -0.4531  2.5049
   9723SM  H23G13215   2.904   1.264  14.465  0.4710 -1.1257  0.5062
   9723SM  H23H13216   3.047   1.215  14.386  0.1881  0.6308  0.8075
   9823SM     N13217   0.676   4.773  11.573 -0.0738  0.9443  0.5498
   9823SM   C1513218   0.548   4.801  11.502 -0.3923 -0.3531 -0.3811
   9823SM  H15A13219   0.557   4.760  11.403  1.0121 -2.4071  0.5295
   9823SM  H15B13220   0.535   4.908  11.499  0.3184 -0.1837  1.3932
   9823SM  H15C13221   0.468   4.747  11.551  0.5340 -1.2608  0.1728
   9823SM   C1413222   0.678   4.637  11.616  0.5350 -0.0461 -0.0751
   9823SM  H14A13223   0.642   4.563  11.546 -2.4773 -0.7168  1.9849
   9823SM  H14B13224   0.601   4.626  11.691 -0.3083  0.7412 -0.8038
   9823SM  H14C13225   0.772   4.611  11.662  1.6980  1.5883 -1.3714
   9823SM   C1313226   0.797   4.792  11.480 -0.2043 -0.2184  0.0979
   9823SM  H13A13227   0.816   4.704  11.421 -1.9419 -0.5284 -0.0780
   9823SM  H13B13228   0.879   4.821  11.544  0.5848 -0.8814 -0.5889
   9823SM  H13C13229   0.777   4.879  11.419 -0.2008 -1.0894 -1.1911
   9823SM   C1213230   0.691   4.879  11.681 -0.2621 -0.0008 -0.4318
   9823SM  H12A13231   0.607   4.877  11.750 -0.2312 -2.3220 -0.3782
   9823SM  H12B13232   0.699   4.978  11.640  0.0212  0.1982  0.0960
   9823SM   C1113233   0.812   4.858  11.772 -0.5503  0.1073  0.1285
   9823SM  H11A13234   0.827   4.750  11.793  1.5592  0.8711  3.2356
   9823SM  H11B13235   0.791   4.899  11.873 -0.3876  0.7703 -0.1006
   9823SM     P13236   0.952   5.067  11.709 -0.1856  0.1267 -0.2869
   9823SM   O1313237   1.087   5.089  11.650  0.5810  0.1002  0.7078
   9823SM   O1413238   0.845   5.123  11.630  0.1372  0.2026 -0.0866
   9823SM   O1113239   0.939   5.113  11.858  0.4307 -0.5205  0.2629
   9823SM   O1213240   0.932   4.910  11.714 -0.2373 -0.5452 -0.3670
   9823SM   C1S13241   0.824   5.170  11.918 -0.3351  0.0604 -0.1607
   9823SM   H1S13242   0.735   5.121  11.873  0.2321 -0.6141 -0.5758
   9823SM   H1T13243   0.822   5.281  11.907  1.5938 -0.0597 -2.8408
   9823SM    NF13244   0.693   5.193  12.125 -0.2187  0.0458  0.4755
   9823SM   HNF13245   0.694   5.286  12.161 -0.0163  0.3855 -0.3779
   9823SM   C2S13246   0.814   5.133  12.068 -0.2787  0.3230 -0.4799
   9823SM   H2S13247   0.805   5.023  12.073 -0.3363  0.3089 -0.8502
   9823SM   C3S13248   0.942   5.162  12.152  0.1233 -0.1188 -0.3896
   9823SM   H3S13249   0.952   5.272  12.165  2.4213 -0.4692  1.3112
   9823SM    O313250   1.071   5.135  12.087  0.1832  0.2266  0.1805
   9823SM   HO313251   1.042   5.108  12.000 -1.7408  1.5888  0.3423
   9823SM   C4S13252   0.937   5.105  12.290 -0.1569 -0.8695  0.3568
   9823SM   H4S13253   0.857   5.149  12.352  0.0044 -0.4431  0.2613
   9823SM   C5S13254   1.008   5.000  12.332  0.2375  0.3628  1.0176
   9823SM   H5S13255   1.073   4.951  12.258 -2.3735 -0.6074 -0.7598
   9823SM   C6S13256   0.993   4.940  12.471  0.3831 -0.3875 -0.7452
   9823SM   H6S13257   0.946   4.840  12.460 -1.3195  0.5247 -2.4118
   9823SM   H6T13258   0.925   4.993  12.541  2.8925 -0.0309  1.5699
   9823SM   C7S13259   1.128   4.925  12.537 -0.2258 -0.1317 -0.1324
   9823SM   H7S13260   1.170   5.027  12.547  1.5655 -1.0001  2.2358
   9823SM   H7T13261   1.197   4.859  12.480  0.0895 -0.6758  0.8513
   9823SM   C8S13262   1.114   4.857  12.671  0.3136 -0.7283 -0.0898
   9823SM   H8S13263   1.211   4.812  12.702 -0.5738 -1.0389  2.4705
   9823SM   H8T13264   1.043   4.773  12.662 -0.3524 -0.1227 -0.6169
   9823SM   C9S13265   1.075   4.954  12.781 -0.3325  0.0026 -0.2246
   9823SM   H9S13266   0.966   4.974  12.775 -0.3163 -0.0715 -0.8131
   9823SM   H9T13267   1.132   5.049  12.771  1.0207 -0.5772  1.4045
   9823SM  C10S13268   1.106   4.895  12.922 -0.5089 -0.2033 -0.0448
   9823SM  H10S13269   1.211   4.860  12.934 -1.1389 -2.0587  0.4378
   9823SM  H10T13270   1.046   4.803  12.934  1.1401 -1.4613 -0.9703
   9823SM  C11S13271   1.074   5.001  13.029  0.2974 -0.0384  0.7494
   9823SM  H11S13272   0.983   5.048  12.988  0.4266  1.0262  1.6360
   9823SM  H11T13273   1.147   5.085  13.022  0.7304 -0.4338  0.4289
   9823SM  C12S13274   1.067   4.935  13.169 -0.0544  0.3336  0.8173
   9823SM  H12S13275   1.172   4.907  13.191  0.1630  0.4932  0.0196
   9823SM  H12T13276   1.005   4.843  13.167 -1.6248  1.3577 -0.1511
   9823SM  C13S13277   1.023   5.028  13.285 -0.3578  0.6396 -0.1048
   9823SM  H13S13278   0.912   5.031  13.278 -0.3333  0.0431 -0.9980
   9823SM  H13T13279   1.080   5.120  13.258  0.0784  0.4111  0.0412
   9823SM  C14S13280   1.081   4.993  13.425 -0.4302 -0.1844 -0.0800
   9823SM  H14S13281   1.035   5.076  13.483 -0.1120  2.0876 -2.8321
   9823SM  H14T13282   1.192   5.000  13.426 -0.4425  0.0879 -0.4403
   9823SM  C15S13283   1.029   4.859  13.495  0.2271 -0.3188 -0.2957
   9823SM  H15S13284   1.089   4.841  13.587 -1.9770  1.0588  1.5107
   9823SM  H15T13285   1.049   4.770  13.432 -1.8291 -2.4340  1.7710
   9823SM  C16S13286   0.877   4.862  13.533 -0.2045  0.3212 -0.2000
   9823SM  H16S13287   0.849   4.767  13.583  1.8776  0.6511  1.7459
   9823SM  H16T13288   0.826   4.852  13.435  0.6341 -0.9318 -0.5192
   9823SM  C17S13289   0.817   4.977  13.611  0.5246  0.0477  0.4445
   9823SM  H17S13290   0.709   4.965  13.631 -0.7211  1.5086 -4.0648
   9823SM  H17T13291   0.805   5.074  13.557  0.6294  1.2418  2.4708
   9823SM  C18S13292   0.884   4.982  13.748  0.0434 -0.4904  0.0960
   9823SM  H18S13293   0.993   4.966  13.737  0.0194 -0.1498 -0.6531
   9823SM  H18T13294   0.849   4.901  13.816 -0.4053  0.9057  1.6014
   9823SM  H18U13295   0.861   5.078  13.798 -0.8276 -1.3679  1.4679
   9823SM   C1F13296   0.579   5.134  12.110 -1.4084 -0.1936 -0.9879
   9823SM    OF13297   0.567   5.029  12.056 -0.2952 -0.2268  0.2503
   9823SM   C2F13298   0.469   5.203  12.172  0.6345 -0.0244  0.5913
   9823SM   H2F13299   0.447   5.289  12.105  3.7332 -1.1265 -2.1281
   9823SM   H2G13300   0.493   5.247  12.271 -0.3755 -0.5576  1.0917
   9823SM   C3F13301   0.349   5.114  12.182  0.2490  0.5122  0.6417
   9823SM   H3F13302   0.369   5.020  12.238 -1.0427 -0.3882 -0.3392
   9823SM   H3G13303   0.320   5.088  12.078  1.1014 -0.2658  0.5857
   9823SM   C4F13304   0.231   5.186  12.259 -0.5490  0.0993  0.5139
   9823SM   H4F13305   0.139   5.125  12.247 -0.1027 -0.4172 -0.4273
   9823SM   H4G13306   0.199   5.278  12.206 -5.4571 -0.8189  1.4326
   9823SM   C5F13307   0.264   5.233  12.403 -0.2862 -0.8327 -0.1458
   9823SM   H5F13308   0.331   5.322  12.401  0.3105 -1.2801 -0.1621
   9823SM   H5G13309   0.318   5.148  12.450  1.7319 -0.7942 -2.2143
   9823SM   C6F13310   0.142   5.259  12.495  0.3080  0.0454  0.0420
   9823SM   H6F13311   0.068   5.178  12.479  0.7012 -0.1653 -0.7557
   9823SM   H6G13312   0.096   5.353  12.459 -0.3025  0.1091  0.9594
   9823SM   C7F13313   0.180   5.281  12.639  0.1151 -0.7072 -0.7127
   9823SM   H7F13314   0.254   5.363  12.644  0.0761 -0.6467 -1.1516
   9823SM   H7G13315   0.237   5.199  12.689 -0.0051  1.0423  2.5810
   9823SM   C8F13316   0.065   5.327  12.728  0.0663 -0.1957 -0.0266
   9823SM   H8F13317  -0.011   5.248  12.745 -1.2155  0.7404 -1.1568
   9823SM   H8G13318   0.009   5.399  12.664  2.5186  2.5666  0.7409
   9823SM   C9F13319   0.110   5.394  12.855  0.3509 -0.1949 -0.0219
   9823SM   H9F13320   0.015   5.435  12.897 -0.3107  0.7029 -2.2835
   9823SM   H9G13321   0.180   5.479  12.838  2.4140 -1.2274  2.5162
   9823SM  C10F13322   0.170   5.312  12.961  0.1843  0.4542  0.2743
   9823SM  H10F13323   0.258   5.256  12.923  0.0644 -0.8045  1.7637
   9823SM  H10G13324   0.086   5.244  12.985 -0.0628  0.5485 -0.3094
   9823SM  C11F13325   0.216   5.395  13.080 -0.6055  0.3605 -0.9227
   9823SM  H11F13326   0.130   5.454  13.119 -1.3852 -0.6818 -1.0166
   9823SM  H11G13327   0.296   5.466  13.051 -0.4122  0.6661  0.3340
   9823SM  C12F13328   0.271   5.314  13.198  0.4557 -0.4710 -0.1998
   9823SM  H12F13329   0.353   5.246  13.167  1.7890  0.4393  1.1728
   9823SM  H12G13330   0.189   5.250  13.235 -1.2693  2.0479  0.6412
   9823SM  C13F13331   0.322   5.402  13.312 -0.0972  0.3039 -0.5060
   9823SM  H13F13332   0.401   5.465  13.265  0.1115  0.3636 -0.0838
   9823SM  H13G13333   0.368   5.344  13.395 -1.0519 -1.1541 -0.9523
   9823SM  C14F13334   0.211   5.495  13.366 -0.7313  0.7813 -0.6393
   9823SM  H14F13335   0.123   5.426  13.371  0.9860 -1.4536  0.7347
   9823SM  H14G13336   0.195   5.577  13.293  1.2335  1.8803  0.1215
   9823SM  C15F13337   0.250   5.556  13.505  0.5808  0.3923  0.5965
   9823SM  H15F13338   0.329   5.632  13.486 -1.0856  2.2959  0.8962
   9823SM  H15G13339   0.285   5.486  13.584  1.0588  0.8479  0.7976
   9823SM  C16F13340   0.124   5.632  13.562 -0.4391 -0.2788  0.1360
   9823SM  H16F13341   0.045   5.555  13.576  0.6112 -1.3642  0.3146
   9823SM  H16G13342   0.091   5.697  13.478  2.3339 -2.4347 -2.8936
   9823SM  C17F13343   0.164   5.729  13.673 -0.3479 -0.3212 -0.4594
   9823SM  H17F13344   0.089   5.805  13.704  0.0751 -1.3139  3.4907
   9823SM  H17G13345   0.251   5.784  13.631  0.2606 -0.7782  0.1693
   9823SM  C18F13346   0.212   5.657  13.801 -0.2162 -0.0466  0.0855
   9823SM  H18F13347   0.253   5.744  13.857 -2.6266  0.0065  1.8821
   9823SM  H18G13348   0.284   5.573  13.788  0.2015  0.4084 -0.6843
   9823SM  C19F13349   0.093   5.600  13.880  0.9266  0.1555 -0.5465
   9823SM  H19F13350   0.041   5.516  13.829 -0.8411  0.5514  0.5371
   9823SM  H19G13351   0.003   5.664  13.893  0.5245 -0.5271  0.1522
   9823SM  C20F13352   0.132   5.548  14.020 -0.1504 -0.0446 -0.6915
   9823SM  H20F13353   0.031   5.523  14.057 -0.5158  0.5387 -1.2835
   9823SM  H20G13354   0.173   5.618  14.097  0.6423  0.0461 -1.1759
   9823SM  C21F13355   0.217   5.422  14.012  0.2941 -0.1726 -0.4343
   9823SM  H21F13356   0.320   5.464  14.023  1.0902 -2.4229  1.6908
   9823SM  H21G13357   0.205   5.361  13.921 -1.4689 -0.5141 -0.0057
   9823SM  C22F13358   0.187   5.337  14.131  0.7652  0.5217  0.1847
   9823SM  H22F13359   0.085   5.298  14.115  1.7248 -2.3924  0.5273
   9823SM  H22G13360   0.199   5.394  14.225  0.5746  2.4900 -0.9206
   9823SM  C23F13361   0.289   5.220  14.134 -0.5882  0.5137 -0.0171
   9823SM  H23F13362   0.270   5.163  14.228 -2.3450 -1.4475 -1.4746
   9823SM  H23G13363   0.393   5.255  14.150  0.0661 -1.8588  1.3938
   9823SM  H23H13364   0.296   5.161  14.041  1.9808  0.5754  0.0774
   9923SM     N13365   0.526   6.726  11.149  0.1666  0.2839 -0.1987
   9923SM   C1513366   0.638   6.809  11.213 -1.0674 -0.2158 -0.6449
   9923SM  H15A13367   0.676   6.771  11.307  1.1192  0.4175 -1.2177
   9923SM  H15B13368   0.598   6.908  11.229 -2.3827 -1.0054  1.4784
   9923SM  H15C13369   0.717   6.813  11.140 -0.2923 -0.9969  0.1332
   9923SM   C1413370   0.553   6.585  11.124  0.3020 -0.3353 -0.2999
   9923SM  H14A13371   0.467   6.535  11.083  0.0186 -0.6536  0.6626
   9923SM  H14B13372   0.588   6.528  11.208  2.3756 -0.7738 -1.4003
   9923SM  H14C13373   0.632   6.564  11.054  0.3318 -2.6609  0.3672
   9923SM   C1313374   0.405   6.733  11.238 -0.6734 -0.5268 -0.1649
   9923SM  H13A13375   0.434   6.743  11.342 -2.0787  2.2791  0.0436
   9923SM  H13B13376   0.339   6.648  11.228  0.0222 -1.2928  1.3984
   9923SM  H13C13377   0.358   6.829  11.223  3.8585  2.0798  0.3946
   9923SM   C1213378   0.494   6.789  11.023  0.9736 -0.4050  0.0682
   9923SM  H12A13379   0.395   6.765  10.986  1.6069 -0.4076 -1.7404
   9923SM  H12B13380   0.544   6.744  10.939 -1.7803 -0.8504 -1.4642
   9923SM   C1113381   0.502   6.942  11.011 -0.5057 -0.4442 -0.0723
   9923SM  H11A13382   0.465   6.965  10.909 -2.6702  0.3895  0.8405
   9923SM  H11B13383   0.602   6.991  11.013 -2.3384  3.6713 -1.1770
   9923SM     P13384   0.286   7.050  11.073  0.1398  0.3704 -0.4902
   9923SM   O1313385   0.294   7.144  10.963 -0.1828 -0.7798  0.6824
   9923SM   O1413386   0.202   6.926  11.071 -0.1452 -0.4046 -0.2588
   9923SM   O1113387   0.247   7.130  11.198  0.7349 -0.3042 -0.3285
   9923SM   O1213388   0.430   7.008  11.118  0.3772  0.1957 -0.1751
   9923SM   C1S13389   0.255   7.064  11.328  0.3820 -0.2819  0.1231
   9923SM   H1S13390   0.354   7.026  11.359 -1.0499 -0.7955  4.8166
   9923SM   H1T13391   0.180   6.983  11.329 -0.1282  0.1422 -1.3658
   9923SM    NF13392   0.203   7.076  11.570  0.7620  0.3136 -0.2737
   9923SM   HNF13393   0.110   7.040  11.578  0.8794 -0.2893 -1.4289
   9923SM   C2S13394   0.219   7.158  11.453 -0.1487  0.2765  1.1144
   9923SM   H2S13395   0.309   7.224  11.453  1.7064 -1.9643 -1.6359
   9923SM   C3S13396   0.093   7.244  11.417  0.2920  1.0232 -0.0611
   9923SM   H3S13397   0.016   7.165  11.401  2.8678 -1.5765 -0.3334
   9923SM    O313398   0.085   7.308  11.291  0.4885  0.1766  0.0719
   9923SM   HO313399   0.142   7.253  11.238 -0.8003 -2.6390  1.4195
   9923SM   C4S13400   0.052   7.327  11.536  0.0052 -0.0488  0.3033
   9923SM   H4S13401  -0.010   7.268  11.605 -0.3055  0.9450  0.8825
   9923SM   C5S13402   0.086   7.449  11.562 -0.3427 -0.5086  0.8472
   9923SM   H5S13403   0.156   7.510  11.505 -0.5810 -0.7023  0.3397
   9923SM   C6S13404   0.033   7.510  11.688 -0.3495  0.2824 -0.9806
   9923SM   H6S13405  -0.078   7.501  11.691 -0.4472  1.4803  1.1437
   9923SM   H6T13406   0.066   7.616  11.699  0.7817 -0.1676  0.2730
   9923SM   C7S13407   0.097   7.463  11.824  0.2253 -0.2095 -0.2713
   9923SM   H7S13408   0.208   7.466  11.825  0.2131  1.6562  1.5778
   9923SM   H7T13409   0.074   7.355  11.838 -1.4463 -0.0745 -1.5907
   9923SM   C8S13410   0.046   7.533  11.952 -0.6157  0.4468  0.5180
   9923SM   H8S13411  -0.063   7.512  11.952 -0.5333 -0.0727  1.8224
   9923SM   H8T13412   0.074   7.640  11.943  0.1404  0.2363  0.2845
   9923SM   C9S13413   0.109   7.485  12.082 -0.0109 -0.2154 -0.0778
   9923SM   H9S13414   0.220   7.484  12.074 -0.0713 -2.8603 -1.5500
   9923SM   H9T13415   0.075   7.382  12.103  1.2757 -1.1629 -2.3487
   9923SM  C10S13416   0.061   7.572  12.202 -0.9977  0.6926 -0.7221
   9923SM  H10S13417  -0.047   7.553  12.218 -0.4154 -4.4696 -1.0833
   9923SM  H10T13418   0.091   7.678  12.191 -2.2656  1.1072 -0.2910
   9923SM  C11S13419   0.121   7.526  12.332 -0.6687  0.6138  0.3480
   9923SM  H11S13420   0.232   7.531  12.331 -0.5638 -0.0337  2.8201
   9923SM  H11T13421   0.104   7.418  12.348  2.1055 -0.0077 -0.3905
   9923SM  C12S13422   0.061   7.599  12.454  0.0416 -0.0209 -0.2593
   9923SM  H12S13423  -0.045   7.568  12.443  0.4540 -1.7097  0.1958
   9923SM  H12T13424   0.068   7.710  12.446  0.7957 -0.1173 -1.1342
   9923SM  C13S13425   0.130   7.546  12.581 -0.5627 -0.0328 -0.4973
   9923SM  H13S13426   0.239   7.568  12.570 -0.6559  1.9948  1.6320
   9923SM  H13T13427   0.104   7.439  12.588 -0.2556 -0.1835 -1.4663
   9923SM  C14S13428   0.076   7.621  12.700  0.4433 -0.8503  0.0327
   9923SM  H14S13429  -0.033   7.602  12.692 -0.1977  1.1768  2.7644
   9923SM  H14T13430   0.080   7.731  12.707  2.3989 -0.7824 -1.3430
   9923SM  C15S13431   0.140   7.577  12.834 -0.2058 -0.1802 -0.3979
   9923SM  H15S13432   0.248   7.556  12.823  0.1100 -0.1735  2.1228
   9923SM  H15T13433   0.101   7.474  12.850  2.0086 -0.7577  1.8381
   9923SM  C16S13434   0.090   7.669  12.950 -0.1215  0.1763 -0.1217
   9923SM  H16S13435  -0.021   7.669  12.947 -0.1090  0.3370 -0.9673
   9923SM  H16T13436   0.118   7.774  12.924 -0.2902  0.7473  1.8344
   9923SM  C17S13437   0.149   7.653  13.086  0.0903  0.2731 -0.4681
   9923SM  H17S13438   0.259   7.658  13.078  0.1717 -1.9606 -1.3108
   9923SM  H17T13439   0.122   7.557  13.135  2.3229  0.1548  0.6611
   9923SM  C18S13440   0.099   7.761  13.179  0.1740 -0.0935 -0.3831
   9923SM  H18S13441   0.155   7.857  13.170  1.2818 -0.6896 -0.0894
   9923SM  H18T13442   0.133   7.728  13.279 -0.1829 -2.0376 -0.8690
   9923SM  H18U13443  -0.011   7.767  13.193  0.4486 -0.3740  2.5307
   9923SM   C1F13444   0.311   7.028  11.641  0.1648 -0.2180  0.1708
   9923SM    OF13445   0.424   7.070  11.619 -0.3425 -0.5403  0.0766
   9923SM   C2F13446   0.280   6.922  11.748 -0.4867 -0.5068  0.6336
   9923SM   H2F13447   0.371   6.906  11.811  0.8309 -0.3631 -1.1565
   9923SM   H2G13448   0.249   6.826  11.701 -0.0510  0.2576 -1.2910
   9923SM   C3F13449   0.169   6.981  11.836  0.4457  0.3566  1.1547
   9923SM   H3F13450   0.080   6.978  11.769  1.7075  0.1904 -0.5874
   9923SM   H3G13451   0.182   7.083  11.877 -0.1514  0.4630  1.0962
   9923SM   C4F13452   0.154   6.894  11.964 -0.1096  0.3675  0.0811
   9923SM   H4F13453   0.254   6.871  12.007 -0.2540  2.2009  1.5604
   9923SM   H4G13454   0.113   6.799  11.925  0.7817  0.5520 -1.4135
   9923SM   C5F13455   0.067   6.961  12.070  0.2933  0.0834 -0.3037
   9923SM   H5F13456  -0.028   6.976  12.013 -0.3230 -2.5849 -0.1113
   9923SM   H5G13457   0.112   7.055  12.107  1.4468 -1.2790  1.9351
   9923SM   C6F13458   0.047   6.857  12.184  0.0921 -0.2526 -0.1018
   9923SM   H6F13459   0.005   6.761  12.148 -2.2338  0.0544  1.5078
   9923SM   H6G13460  -0.034   6.907  12.242  1.0972  2.4616 -0.8696
   9923SM   C7F13461   0.169   6.852  12.274 -0.6133  0.8397  0.6470
   9923SM   H7F13462   0.169   6.936  12.347  1.5925 -1.0867  3.0859
   9923SM   H7G13463   0.255   6.861  12.205 -2.1239  1.5971 -1.1955
   9923SM   C8F13464   0.195   6.728  12.362  0.7896  0.0296  0.2616
   9923SM   H8F13465   0.203   6.637  12.298 -1.4268  0.2317 -0.4015
   9923SM   H8G13466   0.117   6.724  12.441 -1.4162 -0.6429 -1.8185
   9923SM   C9F13467   0.335   6.740  12.426  0.1942  0.1044  0.8065
   9923SM   H9F13468   0.329   6.833  12.487  1.7221  1.2028 -0.6422
   9923SM   H9G13469   0.417   6.730  12.352  0.4481  0.4375  1.0396
   9923SM  C10F13470   0.355   6.631  12.536 -0.1937 -0.0172 -0.2595
   9923SM  H10F13471   0.459   6.640  12.573 -0.6442  1.0580  0.7936
   9923SM  H10G13472   0.348   6.536  12.479  0.8159 -0.1259 -0.2205
   9923SM  C11F13473   0.264   6.645  12.653  0.2699  0.3624 -0.4116
   9923SM  H11F13474   0.206   6.552  12.670  1.8149 -0.6524 -0.4572
   9923SM  H11G13475   0.186   6.722  12.636  0.6676  0.9191  0.2716
   9923SM  C12F13476   0.336   6.668  12.780 -0.0556  0.2566 -0.8025
   9923SM  H12F13477   0.397   6.761  12.777 -0.3568  0.4409 -1.4203
   9923SM  H12G13478   0.407   6.587  12.808 -0.2543  0.5004  0.4639
   9923SM  C13F13479   0.250   6.677  12.906  0.4447  0.3552  0.9528
   9923SM  H13F13480   0.181   6.592  12.925 -1.0557  0.7512 -2.1456
   9923SM  H13G13481   0.186   6.768  12.910 -1.7210 -0.9588 -1.1308
   9923SM  C14F13482   0.343   6.688  13.029 -0.3663 -0.4411 -0.2359
   9923SM  H14F13483   0.417   6.768  13.013 -1.2453 -0.1043 -3.1104
   9923SM  H14G13484   0.407   6.597  13.034 -1.3775 -1.1137  2.3380
   9923SM  C15F13485   0.263   6.720  13.160 -0.8467 -0.0401 -0.0658
   9923SM  H15F13486   0.195   6.634  13.178  1.9967 -2.1805  1.3013
   9923SM  H15G13487   0.209   6.817  13.155  1.2536  1.2106  0.0755
   9923SM  C16F13488   0.373   6.740  13.265  0.8344  0.2679 -0.1106
   9923SM  H16F13489   0.445   6.817  13.229 -0.6283  1.7983  0.1537
   9923SM  H16G13490   0.438   6.650  13.267 -2.2652 -2.1070  2.3310
   9923SM  C17F13491   0.318   6.771  13.399  0.1645 -0.1053 -0.0341
   9923SM  H17F13492   0.257   6.687  13.438 -0.1232 -0.1417 -0.5488
   9923SM  H17G13493   0.263   6.867  13.385  1.9469  1.1254  1.0281
   9923SM  C18F13494   0.427   6.794  13.498 -0.7356 -0.5808 -0.0334
   9923SM  H18F13495   0.479   6.889  13.475 -1.7738  0.4175  1.5680
   9923SM  H18G13496   0.503   6.713  13.491 -0.9664 -0.8162  0.1783
   9923SM  C19F13497   0.362   6.803  13.641  0.3082  0.6890 -0.1697
   9923SM  H19F13498   0.299   6.714  13.664  0.5180  0.5381 -0.1685
   9923SM  H19G13499   0.297   6.893  13.646  0.1674  0.6590 -1.3056
   9923SM  C20F13500   0.478   6.806  13.737 -0.3186 -0.8766 -0.1129
   9923SM  H20F13501   0.530   6.905  13.730  1.8531 -1.9251  0.3933
   9923SM  H20G13502   0.551   6.729  13.706 -0.2145  0.0209 -2.3134
   9923SM  C21F13503   0.443   6.784  13.888 -0.2542  0.3528 -0.2888
   9923SM  H21F13504   0.436   6.676  13.912  1.2614  0.6187  1.6095
   9923SM  H21G13505   0.349   6.840  13.908 -0.4521  1.1037 -2.9264
   9923SM  C22F13506   0.550   6.840  13.979 -0.1354 -0.2325  0.3646
   9923SM  H22F13507   0.539   6.950  13.979  0.2601 -0.1923 -0.0615
   9923SM  H22G13508   0.646   6.807  13.935  0.3461  1.3766  0.1480
   9923SM  C23F13509   0.544   6.801  14.123 -0.2442 -0.3285 -0.2418
   9923SM  H23F13510   0.572   6.695  14.146 -1.3805 -0.7647 -0.7906
   9923SM  H23G13511   0.441   6.818  14.160 -0.4010  0.7925 -1.1583
   9923SM  H23H13512   0.618   6.855  14.186 -0.2184  2.0602 -2.2038
  10023SM     N13513   6.714   0.389  10.914  0.4486  0.9063 -0.2717
  10023SM   C1513514   6.596   0.476  10.932  0.4061  0.6669 -0.1954
  10023SM  H15A13515   6.602   0.506  11.035  0.0803 -1.8731  0.6270
  10023SM  H15B13516   6.503   0.425  10.912 -0.1138  1.0316  1.2091
  10023SM  H15C13517   6.597   0.563  10.869 -1.6654  0.1038 -1.1072
  10023SM   C1413518   6.722   0.335  10.772 -0.3609 -0.6297 -0.2045
  10023SM  H14A13519   6.652   0.257  10.746 -0.9954 -0.3396  0.5940
  10023SM  H14B13520   6.821   0.294  10.761  0.4161  0.9652  0.5465
  10023SM  H14C13521   6.712   0.408  10.693 -0.6216 -0.9003 -0.4214
  10023SM   C1313522   6.833   0.486  10.927 -0.2728 -0.0452  0.2358
  10023SM  H13A13523   6.831   0.556  10.845 -0.6824 -1.0266 -0.6111
  10023SM  H13B13524   6.926   0.431  10.927  0.2903  0.8612 -0.6599
  10023SM  H13C13525   6.810   0.545  11.015 -0.8827  1.3395 -0.8010
  10023SM   C1213526   6.715   0.288  11.022  0.5916 -0.5787  0.3211
  10023SM  H12A13527   6.714   0.338  11.117  0.8777  0.7406 -0.3340
  10023SM  H12B13528   6.809   0.236  11.015  1.4407  1.0046 -0.7315
  10023SM   C1113529   6.609   0.173  11.020 -0.5377  0.3290  0.1802
  10023SM  H11A13530   6.619   0.105  10.933  2.7338  1.1738 -0.2339
  10023SM  H11B13531   6.509   0.222  11.010 -0.0885  1.3370  0.5111
  10023SM     P13532   6.529   0.083  11.254 -0.2246  0.1254 -0.0832
  10023SM   O1313533   6.424   0.004  11.194  0.0697  0.0206  0.4419
  10023SM   O1413534   6.588   0.039  11.377  0.0326 -0.8579  0.2935
  10023SM   O1113535   6.477   0.230  11.287 -0.2170  0.0800  0.3188
  10023SM   O1213536   6.632   0.105  11.147 -0.5334 -0.1726 -0.2092
  10023SM   C1S13537   6.413   0.258  11.413  0.0915 -0.1829  0.1210
  10023SM   H1S13538   6.438   0.189  11.497 -0.8721 -1.4655 -0.6140
  10023SM   H1T13539   6.305   0.248  11.390 -0.1633  0.3574  1.0445
  10023SM    NF13540   6.420   0.417  11.615 -0.3170 -0.7528  0.8992
  10023SM   HNF13541   6.343   0.479  11.629  0.5333  1.2231 -2.0121
  10023SM   C2S13542   6.458   0.400  11.469 -0.4634  0.3679  0.6669
  10023SM   H2S13543   6.567   0.417  11.464 -0.2231 -1.2880 -0.6423
  10023SM   C3S13544   6.391   0.504  11.373 -0.3861  0.8172  0.3012
  10023SM   H3S13545   6.286   0.469  11.380  0.6648 -2.8690 -0.3926
  10023SM    O313546   6.407   0.484  11.232  0.0990 -0.4214 -0.0596
  10023SM   HO313547   6.432   0.392  11.225 -0.4006 -0.5475 -0.2302
  10023SM   C4S13548   6.400   0.650  11.408 -0.0156 -0.6232  0.7446
  10023SM   H4S13549   6.306   0.689  11.449 -0.2422 -1.9698  1.5539
  10023SM   C5S13550   6.491   0.741  11.363  0.9067  0.3581  0.3085
  10023SM   H5S13551   6.562   0.702  11.289 -0.1169  0.3632 -0.7208
  10023SM   C6S13552   6.483   0.893  11.381 -0.1710  0.2418  0.1235
  10023SM   H6S13553   6.379   0.929  11.375 -0.0492  0.5263 -0.2820
  10023SM   H6T13554   6.544   0.932  11.297  0.5849 -1.3944 -0.1340
  10023SM   C7S13555   6.550   0.931  11.515  0.9745  0.6733 -0.3822
  10023SM   H7S13556   6.571   1.040  11.521 -0.2802  0.9945 -1.3009
  10023SM   H7T13557   6.649   0.882  11.526  0.8818  0.6409  0.3647
  10023SM   C8S13558   6.465   0.903  11.641  0.2619 -0.1961 -0.3408
  10023SM   H8S13559   6.450   0.793  11.645 -0.2008 -0.1663 -1.0261
  10023SM   H8T13560   6.368   0.957  11.638  0.7245  0.6733 -0.0829
  10023SM   C9S13561   6.532   0.942  11.777  0.3638 -0.2907 -0.2479
  10023SM   H9S13562   6.520   1.053  11.772 -0.4654 -0.4246 -2.1063
  10023SM   H9T13563   6.641   0.924  11.786  1.0766  1.6042 -3.4902
  10023SM  C10S13564   6.456   0.878  11.895 -0.3506  0.4259 -0.0409
  10023SM  H10S13565   6.478   0.770  11.883 -1.9171  0.1474 -0.6675
  10023SM  H10T13566   6.346   0.891  11.882 -0.7459 -0.8468  1.6739
  10023SM  C11S13567   6.503   0.941  12.028 -0.3205 -0.0751 -0.6452
  10023SM  H11S13568   6.499   1.052  12.031  2.2638  0.0692 -0.1515
  10023SM  H11T13569   6.612   0.921  12.037 -0.5485 -1.3076 -0.3998
  10023SM  C12S13570   6.440   0.882  12.155  0.4545 -0.3570 -0.1233
  10023SM  H12S13571   6.493   0.784  12.160  2.4370  0.6534 -0.0407
  10023SM  H12T13572   6.336   0.875  12.118  1.6745  0.9724 -4.3820
  10023SM  C13S13573   6.465   0.949  12.287  0.1089 -0.5275 -0.3698
  10023SM  H13S13574   6.415   1.048  12.296 -1.5210 -1.4046  0.8503
  10023SM  H13T13575   6.572   0.975  12.299 -0.3297  0.8078  1.0045
  10023SM  C14S13576   6.428   0.869  12.408  0.0887  0.5738  0.3637
  10023SM  H14S13577   6.466   0.765  12.403  0.9979  0.8877  0.5443
  10023SM  H14T13578   6.318   0.868  12.422 -0.7270  3.0193 -4.0084
  10023SM  C15S13579   6.486   0.944  12.530  0.2535 -0.4784 -0.0171
  10023SM  H15S13580   6.452   1.049  12.549  0.1909 -0.4251 -0.4134
  10023SM  H15T13581   6.596   0.953  12.517  0.0410 -0.5771 -2.3187
  10023SM  C16S13582   6.478   0.872  12.668  0.2625 -0.3536  0.2237
  10023SM  H16S13583   6.554   0.791  12.669  1.2950  0.5713 -0.7555
  10023SM  H16T13584   6.382   0.817  12.674  0.9968 -1.7592 -0.2679
  10023SM  C17S13585   6.498   0.970  12.783 -0.6672 -0.1980 -0.2802
  10023SM  H17S13586   6.445   1.065  12.766  1.5975  0.7315 -2.8047
  10023SM  H17T13587   6.606   0.995  12.783 -0.3987 -1.1961 -1.8330
  10023SM  C18S13588   6.469   0.898  12.915 -0.3037  0.3922  1.0826
  10023SM  H18S13589   6.552   0.825  12.927  0.5548  0.7587 -1.8449
  10023SM  H18T13590   6.377   0.835  12.924 -0.7493  0.8552  0.0099
  10023SM  H18U13591   6.479   0.970  12.999 -0.0030 -0.2214  1.5868
  10023SM   C1F13592   6.491   0.358  11.715  0.2862  0.0447  0.1542
  10023SM    OF13593   6.572   0.275  11.692 -0.2032  0.5846 -0.1873
  10023SM   C2F13594   6.447   0.397  11.853 -0.1106 -0.1196  0.6399
  10023SM   H2F13595   6.343   0.358  11.859 -0.3340 -0.2316 -2.5374
  10023SM   H2G13596   6.430   0.506  11.861 -0.5283 -0.0777 -0.6926
  10023SM   C3F13597   6.548   0.364  11.966  0.4182 -0.5116  0.0906
  10023SM   H3F13598   6.647   0.409  11.944  0.3289 -0.3497  0.0169
  10023SM   H3G13599   6.569   0.256  11.954 -0.2876 -0.5895 -0.5260
  10023SM   C4F13600   6.492   0.409  12.100 -0.8835  0.2675 -0.3078
  10023SM   H4F13601   6.401   0.351  12.128 -0.4504 -0.3484 -0.1451
  10023SM   H4G13602   6.455   0.514  12.097 -2.2687 -0.0650  2.0290
  10023SM   C5F13603   6.591   0.404  12.208  0.3892 -0.5428 -0.2427
  10023SM   H5F13604   6.682   0.458  12.175  0.7252 -1.3225 -0.6321
  10023SM   H5G13605   6.621   0.298  12.227 -2.4987 -1.7397 -1.7885
  10023SM   C6F13606   6.539   0.458  12.345  0.3532  0.6205  0.5551
  10023SM   H6F13607   6.461   0.391  12.385  1.5873 -2.0250 -1.1493
  10023SM   H6G13608   6.511   0.561  12.313  1.8104 -0.0680 -3.6150
  10023SM   C7F13609   6.651   0.447  12.453 -0.6907 -0.9532  0.4304
  10023SM   H7F13610   6.644   0.523  12.533  1.2102 -2.0194  1.6820
  10023SM   H7G13611   6.742   0.468  12.393 -2.3491 -1.4211 -2.4805
  10023SM   C8F13612   6.663   0.311  12.521 -0.2974 -0.0855  0.6170
  10023SM   H8F13613   6.629   0.231  12.452  2.1945 -1.6839  1.1082
  10023SM   H8G13614   6.595   0.312  12.608 -2.1445 -0.6625 -0.7569
  10023SM   C9F13615   6.802   0.267  12.563  0.2896  0.3250 -0.2317
  10023SM   H9F13616   6.885   0.273  12.489  0.4135  0.6294 -0.0676
  10023SM   H9G13617   6.782   0.162  12.593  0.9395 -0.0923 -1.1962
  10023SM  C10F13618   6.861   0.334  12.683 -0.0013 -0.1225 -0.0675
  10023SM  H10F13619   6.786   0.310  12.762 -0.9587  1.7946 -0.3342
  10023SM  H10G13620   6.868   0.443  12.663  1.4078  0.0252  1.0348
  10023SM  C11F13621   6.994   0.281  12.727 -0.1405 -0.0400 -0.5753
  10023SM  H11F13622   7.070   0.312  12.651  0.1770 -0.8637 -0.6067
  10023SM  H11G13623   6.992   0.170  12.732  0.9605 -0.1942 -2.3486
  10023SM  C12F13624   7.051   0.330  12.856 -0.3086 -0.1129 -0.2356
  10023SM  H12F13625   7.057   0.441  12.860 -3.6789  0.1669  1.4049
  10023SM  H12G13626   7.153   0.289  12.870 -0.1946  0.4976  0.8131
  10023SM  C13F13627   6.967   0.293  12.983 -0.2078  0.4857  0.3845
  10023SM  H13F13628   6.926   0.191  12.966 -2.2063  1.2907  0.0820
  10023SM  H13G13629   6.873   0.352  12.988  0.0489  0.7693  3.6634
  10023SM  C14F13630   7.047   0.310  13.115  0.3955 -0.3609 -0.3926
  10023SM  H14F13631   7.139   0.248  13.104  0.4132  0.0705 -3.6014
  10023SM  H14G13632   6.988   0.270  13.199 -0.9560  2.5650  0.1820
  10023SM  C15F13633   7.073   0.456  13.152  0.2326 -0.2968 -0.4114
  10023SM  H15F13634   6.974   0.505  13.161  0.3565  0.1083 -1.2308
  10023SM  H15G13635   7.126   0.501  13.066 -1.3703  1.2361 -0.6396
  10023SM  C16F13636   7.167   0.462  13.279  0.7252 -0.0650  0.2120
  10023SM  H16F13637   7.190   0.570  13.295 -1.2661  0.3874  0.3113
  10023SM  H16G13638   7.265   0.422  13.247  0.7486  0.4173 -0.3385
  10023SM  C17F13639   7.133   0.391  13.410  0.6213  0.2735  0.0359
  10023SM  H17F13640   7.210   0.396  13.489  0.7369 -0.6212 -0.0128
  10023SM  H17G13641   7.124   0.285  13.378  1.0101  0.3111 -0.2045
  10023SM  C18F13642   6.999   0.439  13.473  0.0112 -1.2235 -0.8020
  10023SM  H18F13643   6.917   0.422  13.400  0.3000 -1.4594 -1.0736
  10023SM  H18G13644   7.005   0.549  13.487 -2.0387 -1.2713  0.9899
  10023SM  C19F13645   6.966   0.380  13.615 -0.0436  0.1140  0.0918
  10023SM  H19F13646   6.956   0.270  13.610 -4.2970  0.3115  0.3708
  10023SM  H19G13647   6.864   0.415  13.641 -0.7387 -0.9386 -1.0701
  10023SM  C20F13648   7.072   0.406  13.723  0.3749  0.1245 -0.3853
  10023SM  H20F13649   7.118   0.506  13.707 -1.9551  0.9725 -2.4603
  10023SM  H20G13650   7.151   0.333  13.696 -0.1702 -0.3439 -0.7156
  10023SM  C21F13651   7.029   0.368  13.864 -0.1767 -0.0657 -0.2839
  10023SM  H21F13652   7.018   0.258  13.866 -0.0852 -0.0733 -0.1584
  10023SM  H21G13653   6.935   0.416  13.901 -0.4713  0.7667 -2.0222
  10023SM  C22F13654   7.122   0.393  13.986  0.2400  0.2008 -0.2198
  10023SM  H22F13655   7.217   0.336  13.987  0.1789  0.0968  0.3327
  10023SM  H22G13656   7.074   0.359  14.080  0.1702 -1.7492 -0.9158
  10023SM  C23F13657   7.154   0.541  14.003  0.2059 -0.4370 -0.0177
  10023SM  H23F13658   7.214   0.554  14.096 -0.4460  1.3515  0.1891
  10023SM  H23G13659   7.062   0.598  14.026  0.1379 -0.7662  0.5471
  10023SM  H23H13660   7.206   0.593  13.920  1.3277  1.9856  2.0739
  101CHL1    C313661   3.598   4.153  16.443  0.9740  0.4764  0.2714
  101CHL1    H313662   3.612   4.049  16.406  0.5569  0.2660  0.6928
  101CHL1    O313663   3.619   4.155  16.579  0.3669  0.2860  0.0770
  101CHL1   H3'13664   3.573   4.236  16.604  0.8763 -0.4587  3.9164
  101CHL1    C413665   3.712   4.243  16.379  0.4439 -0.4209  0.2473
  101CHL1   H4A13666   3.695   4.345  16.420  1.3009 -0.0996 -0.1887
  101CHL1   H4B13667   3.800   4.192  16.424 -0.0287 -0.3811  1.2524
  101CHL1    C513668   3.695   4.245  16.229  0.1656  0.3584  0.7549
  101CHL1    C613669   3.787   4.207  16.146  0.4874 -0.4607 -0.2179
  101CHL1    H613670   3.882   4.179  16.194  0.8253  1.3833  0.2777
  101CHL1    C713671   3.773   4.210  16.002 -0.6446 -0.3472 -0.0513
  101CHL1   H7A13672   3.869   4.255  15.970 -0.1413 -0.0085  1.8152
  101CHL1   H7B13673   3.754   4.104  15.972 -2.4958 -0.1843  0.4085
  101CHL1    C813674   3.652   4.304  15.957  0.0955 -0.1815 -0.2488
  101CHL1    H813675   3.676   4.410  15.983  3.7860 -0.6909 -1.0709
  101CHL1   C1413676   3.626   4.275  15.812 -0.2938  0.6935  0.7988
  101CHL1   H1413677   3.593   4.169  15.807 -0.2627  0.6115  2.0418
  101CHL1   C1513678   3.747   4.268  15.716 -0.4022 -0.6120 -0.0155
  101CHL1  H15A13679   3.827   4.342  15.738  0.0447 -1.1418  0.1503
  101CHL1  H15B13680   3.798   4.170  15.721  0.6680 -0.1370 -1.0126
  101CHL1   C1613681   3.681   4.284  15.581 -0.1746 -0.4390 -0.0560
  101CHL1  H16A13682   3.718   4.377  15.533  0.2798  0.2296  1.5145
  101CHL1  H16B13683   3.709   4.195  15.520 -0.3598  1.5397 -3.2813
  101CHL1   C1713684   3.526   4.289  15.604 -0.3156 -0.1636  0.6445
  101CHL1   H1713685   3.495   4.182  15.608  2.4127 -1.0614  0.1538
  101CHL1   C1313686   3.514   4.349  15.747 -0.4454  0.6875  0.5375
  101CHL1   C1813687   3.549   4.502  15.737 -0.1053 -0.4247 -0.0156
  101CHL1  H18A13688   3.489   4.562  15.666  1.0233  1.7953  0.8371
  101CHL1  H18B13689   3.524   4.544  15.837 -1.6466 -1.3983  0.0506
  101CHL1  H18C13690   3.660   4.506  15.729  0.1310  4.0430  2.4071
  101CHL1   C1213691   3.388   4.317  15.818 -0.4117  0.0095 -0.2792
  101CHL1  H12A13692   3.299   4.377  15.787 -1.4966 -0.9759  0.8201
  101CHL1  H12B13693   3.359   4.213  15.791  0.5438 -0.4371  0.3771
  101CHL1   C1113694   3.400   4.332  15.973 -0.4313 -0.1511 -0.3492
  101CHL1  H11A13695   3.403   4.443  15.981 -1.5401  0.0959 -2.8098
  101CHL1  H11B13696   3.305   4.291  16.013 -0.9306  2.3841  1.2819
  101CHL1    C913697   3.530   4.266  16.034 -0.7694  0.2874  0.0149
  101CHL1    H913698   3.515   4.157  16.021  0.8974  0.1338 -0.9485
  101CHL1   C1013699   3.552   4.292  16.187 -0.0459 -0.1988 -0.2076
  101CHL1   C1913700   3.543   4.450  16.222  0.1846  0.1501  0.0576
  101CHL1  H19A13701   3.619   4.507  16.166  1.3291 -0.5660  0.8296
  101CHL1  H19B13702   3.449   4.492  16.182  0.2342  1.7227  1.4504
  101CHL1  H19C13703   3.544   4.472  16.331  0.4381 -1.1359  0.3352
  101CHL1    C113704   3.433   4.217  16.261  0.0554  0.1557  0.6413
  101CHL1   H1A13705   3.334   4.264  16.243  0.5643  1.0542  0.0690
  101CHL1   H1B13706   3.446   4.119  16.211  0.0537 -0.1829  1.2923
  101CHL1    C213707   3.454   4.197  16.409  0.6355 -0.5021  0.1319
  101CHL1   H2A13708   3.374   4.144  16.464 -0.8467  2.7091  1.3503
  101CHL1   H2B13709   3.444   4.303  16.443  0.1443  0.0037 -1.4682
  101CHL1   C2013710   3.457   4.361  15.482 -0.2972  0.7391 -0.0563
  101CHL1   H2013711   3.501   4.461  15.461  0.0741  0.9410  1.5992
  101CHL1   C2113712   3.311   4.376  15.517 -0.6813 -0.3860  0.3151
  101CHL1  H21A13713   3.258   4.394  15.421  0.6281  1.8841 -0.0502
  101CHL1  H21B13714   3.289   4.462  15.584  0.0346  0.3929 -0.4311
  101CHL1  H21C13715   3.265   4.286  15.565  0.5858 -2.2109 -1.7106
  101CHL1   C2213716   3.477   4.281  15.347  0.3773  0.1348  0.3916
  101CHL1  H22A13717   3.580   4.241  15.336 -0.0228 -0.1448 -4.1600
  101CHL1  H22B13718   3.412   4.191  15.357 -0.1702  0.7206  2.6673
  101CHL1   C2313719   3.436   4.350  15.212 -0.1398 -0.0402 -0.0390
  101CHL1  H23A13720   3.332   4.388  15.218 -0.0191  0.4227 -0.7385
  101CHL1  H23B13721   3.514   4.427  15.195 -0.3028  0.0234 -0.5352
  101CHL1   C2413722   3.445   4.264  15.084 -0.5053  0.0918 -0.2580
  101CHL1  H24A13723   3.540   4.208  15.092  0.0071  0.9671 -0.0674
  101CHL1  H24B13724   3.371   4.181  15.092  1.7046 -1.8862  0.6035
  101CHL1   C2513725   3.426   4.338  14.946 -0.8208 -0.2146  0.9894
  101CHL1   H2513726   3.507   4.415  14.941 -0.6076 -0.4667  0.4689
  101CHL1   C2613727   3.438   4.227  14.839 -0.6607  0.6809  0.4184
  101CHL1  H26A13728   3.526   4.165  14.867  1.0652  2.9368  0.3371
  101CHL1  H26B13729   3.349   4.161  14.833 -0.9660  0.6255  3.7632
  101CHL1  H26C13730   3.462   4.276  14.741  0.6096 -0.8891 -0.1044
  101CHL1   C2713731   3.290   4.411  14.929 -0.9849  0.3225  0.1564
  101CHL1  H27A13732   3.203   4.342  14.927 -0.5779 -0.2246  0.9627
  101CHL1  H27B13733   3.284   4.485  15.011  1.7744  1.6562 -0.7167
  101CHL1  H27C13734   3.293   4.474  14.837 -0.5963  0.8189  0.5059
  102CHL1    C313735   1.792   5.162  16.382 -0.0522  0.1222  0.1289
  102CHL1    H313736   1.693   5.159  16.332 -0.4069 -1.2975  0.8599
  102CHL1    O313737   1.768   5.147  16.520  0.0653  0.5321 -0.1317
  102CHL1   H3'13738   1.850   5.112  16.555 -0.3822 -0.7886 -0.3347
  102CHL1    C413739   1.876   5.044  16.337  0.3540  0.2181 -0.2207
  102CHL1   H4A13740   1.968   5.040  16.399 -0.5204  0.4792  1.1446
  102CHL1   H4B13741   1.813   4.956  16.361  0.8773 -0.1713 -0.2469
  102CHL1    C513742   1.907   5.045  16.192 -0.1855  0.2614 -0.6312
  102CHL1    C613743   1.874   4.947  16.110 -0.3654  0.3225  0.1260
  102CHL1    H613744   1.835   4.854  16.155  0.9241  0.0424  0.7202
  102CHL1    C713745   1.896   4.942  15.955 -0.1191 -0.8960  0.0980
  102CHL1   H7A13746   1.928   4.840  15.927  1.9120 -0.1634 -0.4179
  102CHL1   H7B13747   1.807   4.981  15.900 -0.1123  0.6462  1.1317
  102CHL1    C813748   1.992   5.056  15.920  0.2423 -0.0465 -0.4475
  102CHL1    H813749   2.095   5.031  15.953 -0.2217 -1.6358 -0.1213
  102CHL1   C1413750   1.994   5.071  15.767  0.1193  0.4038 -0.1816
  102CHL1   H1413751   1.892   5.108  15.747 -0.2676 -0.1835  0.6476
  102CHL1   C1513752   2.027   4.944  15.682 -0.4348  0.1304 -0.7225
  102CHL1  H15A13753   2.116   4.896  15.728 -1.0255  0.7860  1.2254
  102CHL1  H15B13754   1.939   4.876  15.686 -1.0215  0.8302 -1.3830
  102CHL1   C1613755   2.075   4.993  15.545 -0.4697 -0.8028 -0.0217
  102CHL1  H16A13756   2.177   4.957  15.518  0.0818 -1.1866  2.3228
  102CHL1  H16B13757   1.993   4.959  15.478  0.8322 -1.3841 -1.3786
  102CHL1   C1713758   2.068   5.148  15.558 -0.4344  0.1582 -0.5158
  102CHL1   H1713759   1.965   5.189  15.542 -2.2821 -2.1488  3.6812
  102CHL1   C1313760   2.093   5.175  15.703  0.1871 -0.1395 -0.0197
  102CHL1   C1813761   2.236   5.148  15.742 -0.4495 -0.3526  0.0218
  102CHL1  H18A13762   2.251   5.123  15.849  0.8805  1.4258  0.3010
  102CHL1  H18B13763   2.285   5.072  15.677 -0.7383 -0.1586 -0.4241
  102CHL1  H18C13764   2.294   5.241  15.727 -1.3677  0.6416  2.1376
  102CHL1   C1213765   2.032   5.309  15.766 -0.6087  0.7286  0.5272
  102CHL1  H12A13766   2.096   5.394  15.735  0.7691 -0.7738 -0.8993
  102CHL1  H12B13767   1.932   5.321  15.717  0.5438 -2.5088 -3.1369
  102CHL1   C1113768   2.037   5.305  15.924 -0.0112  0.6617  0.8572
  102CHL1  H11A13769   2.141   5.315  15.962  0.2545  1.7375 -0.0853
  102CHL1  H11B13770   1.990   5.400  15.958 -0.6760 -0.6071  3.7796
  102CHL1    C913771   1.952   5.185  15.982 -0.5701  0.3372 -0.1179
  102CHL1    H913772   1.850   5.214  15.950 -0.5080 -0.3953 -1.0342
  102CHL1   C1013773   1.963   5.179  16.143 -0.4218 -0.4343 -0.7517
  102CHL1   C1913774   2.110   5.202  16.196  0.1629  0.4674  0.1702
  102CHL1  H19A13775   2.181   5.140  16.136 -2.3850  0.8396 -3.5518
  102CHL1  H19B13776   2.151   5.304  16.182  0.5674  0.5318  1.6648
  102CHL1  H19C13777   2.121   5.169  16.301  2.2781  2.1052  0.5256
  102CHL1    C113778   1.883   5.300  16.197  0.7471  1.0620  0.0859
  102CHL1   H1A13779   1.938   5.396  16.184  0.1364  1.6190  1.4389
  102CHL1   H1B13780   1.781   5.299  16.153  0.5988 -1.6740  0.3084
  102CHL1    C213781   1.849   5.298  16.344 -0.1945 -0.4669 -0.1037
  102CHL1   H2A13782   1.775   5.378  16.367  0.1567 -0.2038  0.1406
  102CHL1   H2B13783   1.930   5.321  16.417  1.2174 -1.9015 -1.1778
  102CHL1   C2013784   2.155   5.214  15.447 -0.1794 -0.1496  0.1718
  102CHL1   H2013785   2.261   5.186  15.468 -0.0441  1.0886  1.2535
  102CHL1   C2113786   2.146   5.368  15.470 -0.3893  0.3675  0.1866
  102CHL1  H21A13787   2.039   5.398  15.463 -1.1567 -1.8796  1.2077
  102CHL1  H21B13788   2.191   5.428  15.388 -1.9981  0.6259 -0.5367
  102CHL1  H21C13789   2.194   5.400  15.565  1.1200  0.5465 -0.6009
  102CHL1   C2213790   2.105   5.188  15.302 -0.3443 -0.1185  0.0307
  102CHL1  H22A13791   2.132   5.083  15.277 -0.5738  0.0058 -0.7792
  102CHL1  H22B13792   1.996   5.205  15.292 -0.0217  1.7422 -0.7361
  102CHL1   C2313793   2.176   5.268  15.197 -0.5144  0.1750  0.3984
  102CHL1  H23A13794   2.154   5.377  15.206 -0.4408  0.5376 -2.5927
  102CHL1  H23B13795   2.285   5.252  15.209 -0.4745  0.6904  0.7719
  102CHL1   C2413796   2.139   5.233  15.053 -0.5485 -0.0229  0.9484
  102CHL1  H24A13797   2.161   5.124  15.048  1.1923  0.3281  0.4707
  102CHL1  H24B13798   2.032   5.253  15.029 -0.8424 -1.2880  1.0958
  102CHL1   C2513799   2.222   5.312  14.943  0.7518  0.0147  0.7274
  102CHL1   H2513800   2.195   5.419  14.957  1.0570  0.0784  0.8385
  102CHL1   C2613801   2.374   5.295  14.955  0.4305  0.0015 -0.6609
  102CHL1  H26A13802   2.432   5.348  14.877  1.5265 -0.5675 -0.2584
  102CHL1  H26B13803   2.411   5.322  15.056  2.2762  0.5091 -1.4393
  102CHL1  H26C13804   2.399   5.187  14.948 -1.5824 -0.5547  0.0337
  102CHL1   C2713805   2.181   5.274  14.798 -0.4353  0.1088  0.4420
  102CHL1  H27A13806   2.199   5.169  14.769 -0.2026 -0.3231  2.0553
  102CHL1  H27B13807   2.073   5.291  14.781 -0.4590 -1.8366 -1.9250
  102CHL1  H27C13808   2.237   5.331  14.720 -0.1183 -1.5370 -0.5641
  103CHL1    C313809   2.718   2.191  16.105  0.3107 -0.2373  0.9648
  103CHL1    H313810   2.630   2.250  16.073 -0.2556 -2.1653 -1.3621
  103CHL1    O313811   2.705   2.142  16.238 -0.0821  0.2110  0.1431
  103CHL1   H3'13812   2.788   2.145  16.288 -1.2798 -0.0963  2.2946
  103CHL1    C413813   2.723   2.067  16.006 -0.5518 -0.4559 -0.3447
  103CHL1   H4A13814   2.799   1.999  16.049 -1.6332 -1.2769  0.3220
  103CHL1   H4B13815   2.621   2.023  16.017 -1.2195  1.0218 -0.3246
  103CHL1    C513816   2.731   2.103  15.856 -0.4413  0.0710  0.5281
  103CHL1    C613817   2.633   2.071  15.763 -0.5608  0.5746 -0.2313
  103CHL1    H613818   2.547   2.010  15.797  1.3030 -1.4333  1.1603
  103CHL1    C713819   2.647   2.109  15.619  1.0847  0.1486 -0.4919
  103CHL1   H7A13820   2.628   2.022  15.552 -0.3913  1.1780 -1.4782
  103CHL1   H7B13821   2.573   2.187  15.592  0.2099 -0.2591  0.6288
  103CHL1    C813822   2.785   2.161  15.578 -0.5289 -0.0837 -0.6030
  103CHL1    H813823   2.860   2.080  15.583  0.9126  1.2532  0.2985
  103CHL1   C1413824   2.782   2.225  15.442  0.0047 -0.0199  0.0869
  103CHL1   H1413825   2.712   2.310  15.450 -0.6783 -0.6661  1.1660
  103CHL1   C1513826   2.737   2.135  15.328  0.0132 -0.5047 -0.3871
  103CHL1  H15A13827   2.790   2.038  15.344 -3.0605 -2.6442 -2.0693
  103CHL1  H15B13828   2.630   2.106  15.336  0.0676 -0.3507  1.3300
  103CHL1   C1613829   2.770   2.219  15.208  0.6842 -1.0625 -0.3826
  103CHL1  H16A13830   2.803   2.161  15.119 -0.1516 -1.0764 -0.6933
  103CHL1  H16B13831   2.671   2.261  15.182  0.5166 -1.0550  0.2675
  103CHL1   C1713832   2.865   2.338  15.254 -0.2639  0.0593  0.2737
  103CHL1   H1713833   2.803   2.429  15.247 -0.1480  0.0227 -1.7563
  103CHL1   C1313834   2.912   2.301  15.395 -0.0388 -0.1900 -0.1504
  103CHL1   C1813835   3.025   2.195  15.391  0.3175  1.5094  0.1400
  103CHL1  H18A13836   3.125   2.230  15.358  0.6421  0.7390  0.2862
  103CHL1  H18B13837   3.042   2.144  15.488 -0.0528 -0.0570 -0.5757
  103CHL1  H18C13838   2.997   2.112  15.322 -0.2147  2.7063 -1.1149
  103CHL1   C1213839   2.940   2.408  15.496  0.1095 -0.4265  0.3024
  103CHL1  H12A13840   3.036   2.460  15.474 -0.6820  0.7190 -0.5466
  103CHL1  H12B13841   2.863   2.487  15.487 -1.1643 -1.5385  1.1196
  103CHL1   C1113842   2.952   2.349  15.636  0.0580  0.6056 -0.1459
  103CHL1  H11A13843   3.042   2.289  15.662 -1.5679 -1.2551  1.5300
  103CHL1  H11B13844   2.956   2.435  15.707 -0.3310  2.1081 -1.8629
  103CHL1    C913845   2.829   2.261  15.686  0.6234 -0.0174  0.8111
  103CHL1    H913846   2.746   2.335  15.687 -1.2542 -1.9050 -1.5945
  103CHL1   C1013847   2.847   2.203  15.831  0.4526  0.8375 -0.8412
  103CHL1   C1913848   2.978   2.122  15.845 -1.2007  0.1285  0.3715
  103CHL1  H19A13849   2.985   2.052  15.758  0.3256  0.4382  0.2179
  103CHL1  H19B13850   3.069   2.184  15.834  1.3553 -3.3124  0.4100
  103CHL1  H19C13851   2.993   2.058  15.935  3.4684  0.4509  0.0773
  103CHL1    C113852   2.852   2.322  15.937 -0.1565  0.5206 -0.5219
  103CHL1   H1A13853   2.956   2.360  15.928  0.2072 -0.4309 -0.5053
  103CHL1   H1B13854   2.772   2.395  15.912 -0.3640  0.1782 -0.8690
  103CHL1    C213855   2.836   2.283  16.089 -0.3541  0.0522 -0.4197
  103CHL1   H2A13856   2.822   2.379  16.144  1.1219  0.3787 -0.5585
  103CHL1   H2B13857   2.926   2.233  16.131  0.0041  1.7975  1.0266
  103CHL1   C2013858   2.973   2.367  15.144 -0.1649 -0.3285 -0.7153
  103CHL1   H2013859   3.031   2.277  15.116 -0.6995 -0.5971 -0.9682
  103CHL1   C2113860   3.066   2.484  15.190  0.6136 -0.1800 -0.4558
  103CHL1  H21A13861   3.012   2.578  15.216 -0.1562 -0.5709 -0.6125
  103CHL1  H21B13862   3.140   2.519  15.115  0.4369  1.1867 -0.0192
  103CHL1  H21C13863   3.124   2.462  15.282 -1.2419 -0.2277  0.7411
  103CHL1   C2213864   2.901   2.408  15.014 -0.6132 -0.0267  0.3361
  103CHL1  H22A13865   2.819   2.337  14.988  0.4602 -0.7385 -1.2210
  103CHL1  H22B13866   2.851   2.505  15.036  0.9326  0.9159 -0.1977
  103CHL1   C2313867   2.996   2.410  14.886  0.0105  0.0824 -0.2483
  103CHL1  H23A13868   3.081   2.476  14.913 -1.0457  1.2400  0.3400
  103CHL1  H23B13869   3.032   2.306  14.871 -2.5294 -1.4327  2.8794
  103CHL1   C2413870   2.943   2.459  14.747  0.1532  0.0065  0.1658
  103CHL1  H24A13871   2.869   2.382  14.715  2.8833 -1.6427 -2.7368
  103CHL1  H24B13872   2.886   2.553  14.761  2.1390  1.1297  1.1253
  103CHL1   C2513873   3.041   2.474  14.627 -0.0366 -0.0611  0.2506
  103CHL1   H2513874   3.116   2.550  14.658 -0.7795  1.2828 -1.1074
  103CHL1   C2613875   3.125   2.352  14.591 -0.0720  0.4349  0.1118
  103CHL1  H26A13876   3.195   2.317  14.670 -0.4862 -0.3811  0.1280
  103CHL1  H26B13877   3.058   2.269  14.562  0.6407 -1.2197  2.9042
  103CHL1  H26C13878   3.191   2.359  14.501  1.4004  0.6264  1.1694
  103CHL1   C2713879   2.972   2.528  14.496 -0.5714 -0.1168  0.2953
  103CHL1  H27A13880   3.046   2.538  14.414 -0.5860  0.4621  0.3439
  103CHL1  H27B13881   2.895   2.463  14.450 -2.2632  1.1678  1.1939
  103CHL1  H27C13882   2.926   2.626  14.521 -0.8573  0.3360 -1.8121
  104CHL1    C313883   4.659   4.529  16.203  0.1805 -0.3851 -0.4157
  104CHL1    H313884   4.710   4.626  16.220  1.1377 -1.0085  0.4361
  104CHL1    O313885   4.685   4.451  16.317  0.2971 -0.1358  0.1838
  104CHL1   H3'13886   4.630   4.374  16.299 -0.9061  1.0499 -1.5550
  104CHL1    C413887   4.504   4.548  16.185 -0.8635  0.1631 -0.7463
  104CHL1   H4A13888   4.452   4.450  16.192 -1.3119  0.4460 -0.0346
  104CHL1   H4B13889   4.464   4.601  16.274  0.3365 -0.7404  0.3750
  104CHL1    C513890   4.467   4.626  16.057  0.1337 -0.8441  0.0097
  104CHL1    C613891   4.390   4.738  16.050 -0.2141 -0.2667  0.8612
  104CHL1    H613892   4.352   4.783  16.143  1.0117 -0.3037  1.3984
  104CHL1    C713893   4.347   4.802  15.921  0.0339  0.5468 -0.5951
  104CHL1   H7A13894   4.238   4.825  15.925  0.0471  0.4836  0.5451
  104CHL1   H7B13895   4.394   4.902  15.930  1.7181 -0.3874  3.0462
  104CHL1    C813896   4.374   4.717  15.791  0.5623  0.5794 -0.7907
  104CHL1    H813897   4.294   4.640  15.790  0.8709  0.2607 -0.8868
  104CHL1   C1413898   4.379   4.813  15.671 -0.3160  0.6534  1.0131
  104CHL1   H1413899   4.464   4.883  15.678  0.7041 -0.3442 -0.7592
  104CHL1   C1513900   4.258   4.901  15.643 -0.5617  0.3037 -0.7481
  104CHL1  H15A13901   4.156   4.859  15.651 -1.3627  2.2275 -0.2253
  104CHL1  H15B13902   4.251   4.992  15.707 -1.0823 -0.9179  1.0246
  104CHL1   C1613903   4.281   4.935  15.497 -0.2829  0.1784  0.6247
  104CHL1  H16A13904   4.188   4.913  15.441  1.2962  0.7231 -2.4123
  104CHL1  H16B13905   4.296   5.045  15.503 -2.1122  0.4072  2.0162
  104CHL1   C1713906   4.401   4.859  15.435  0.5372 -0.3191 -0.7010
  104CHL1   H1713907   4.491   4.925  15.439 -1.4019  2.5217 -0.6117
  104CHL1   C1313908   4.413   4.741  15.538 -0.2190 -0.0641 -0.4773
  104CHL1   C1813909   4.300   4.644  15.496 -0.3603 -0.2249 -0.1152
  104CHL1  H18A13910   4.337   4.573  15.419  2.1694  1.8944 -1.0443
  104CHL1  H18B13911   4.264   4.595  15.589 -1.1078  0.3061 -0.1179
  104CHL1  H18C13912   4.205   4.691  15.461  0.1921  1.6361  0.7174
  104CHL1   C1213913   4.549   4.669  15.555 -0.1141  0.2076  0.7621
  104CHL1  H12A13914   4.584   4.616  15.464 -0.0647 -0.5721  1.2365
  104CHL1  H12B13915   4.619   4.753  15.578 -0.3898  0.8645 -0.6794
  104CHL1   C1113916   4.547   4.575  15.674  0.3938  0.1127  0.0042
  104CHL1  H11A13917   4.475   4.493  15.652  0.0846 -0.3230  2.3163
  104CHL1  H11B13918   4.650   4.535  15.680  0.3560 -0.8106 -3.3299
  104CHL1    C913919   4.510   4.647  15.807  0.8093  0.6089 -0.2653
  104CHL1    H913920   4.583   4.729  15.822 -0.0854  1.4517 -0.4253
  104CHL1   C1013921   4.527   4.552  15.930 -0.2935  0.0326  0.0336
  104CHL1   C1913922   4.458   4.415  15.895 -0.4223 -0.1883  0.1087
  104CHL1  H19A13923   4.364   4.431  15.838 -1.6009  0.2562  2.0883
  104CHL1  H19B13924   4.522   4.349  15.833 -0.1464  1.5612 -1.5715
  104CHL1  H19C13925   4.439   4.362  15.991 -1.1328 -1.1096 -0.5168
  104CHL1    C113926   4.671   4.533  15.953 -0.6506  0.0517  0.0430
  104CHL1   H1A13927   4.715   4.475  15.869 -2.2350  0.3541 -1.0345
  104CHL1   H1B13928   4.722   4.631  15.970 -2.0170  0.5056  1.7473
  104CHL1    C213929   4.707   4.456  16.078 -0.2018  0.1066  0.2409
  104CHL1   H2A13930   4.818   4.447  16.083 -0.1393 -0.5485 -1.7409
  104CHL1   H2B13931   4.660   4.355  16.072 -1.1366  0.5629 -0.3232
  104CHL1   C2013932   4.385   4.839  15.285 -0.6634  0.0534 -0.2322
  104CHL1   H2013933   4.288   4.801  15.247 -0.1322  0.4010 -2.0069
  104CHL1   C2113934   4.486   4.730  15.227 -0.7106  0.2145  0.8494
  104CHL1  H21A13935   4.585   4.778  15.240  0.0550 -1.2644  0.6076
  104CHL1  H21B13936   4.464   4.707  15.120  0.7295 -2.4592  1.0539
  104CHL1  H21C13937   4.488   4.634  15.283  1.1436 -1.3077 -1.6344
  104CHL1   C2213938   4.400   4.981  15.221  0.4355  0.1039  0.0488
  104CHL1  H22A13939   4.316   5.047  15.251 -0.6963 -0.4224 -1.8331
  104CHL1  H22B13940   4.498   5.027  15.248  0.6365  0.9088 -1.8452
  104CHL1   C2313941   4.405   4.973  15.069  1.0424  0.6704 -0.0834
  104CHL1  H23A13942   4.494   4.918  15.032 -0.0575 -0.3305 -1.3280
  104CHL1  H23B13943   4.321   4.909  15.035  1.3377 -1.7440  3.1707
  104CHL1   C2413944   4.398   5.106  14.985  0.2538  0.1153 -1.0990
  104CHL1  H24A13945   4.298   5.151  15.002  0.9874  0.8806  1.6971
  104CHL1  H24B13946   4.467   5.173  15.041 -1.3453 -1.6897  3.5473
  104CHL1   C2513947   4.442   5.076  14.836  0.6889  0.3355  0.3696
  104CHL1   H2513948   4.525   5.002  14.838  1.1969  0.8951  0.4586
  104CHL1   C2613949   4.326   5.007  14.753 -0.5150 -0.1766 -0.3197
  104CHL1  H26A13950   4.356   5.004  14.646 -0.7492  1.6181 -0.4594
  104CHL1  H26B13951   4.307   4.911  14.806 -4.4466 -0.0604 -1.1848
  104CHL1  H26C13952   4.230   5.063  14.750 -1.4418 -1.6454  0.5281
  104CHL1   C2713953   4.478   5.208  14.772 -0.0295  0.2867 -0.1679
  104CHL1  H27A13954   4.386   5.256  14.732  1.3086  1.7956 -1.6377
  104CHL1  H27B13955   4.540   5.271  14.840  1.2303 -0.9874 -0.0865
  104CHL1  H27C13956   4.544   5.186  14.685  1.1213  0.2563  0.6938
  105CHL1    C313957   4.611   3.167  16.020 -0.0962 -0.5155  0.0662
  105CHL1    H313958   4.631   3.061  16.048 -0.2573 -0.8202 -0.9258
  105CHL1    O313959   4.547   3.236  16.127 -0.5206  0.3492  0.0812
  105CHL1   H3'13960   4.614   3.297  16.160  0.3250 -0.5054 -0.0041
  105CHL1    C413961   4.738   3.233  15.971  0.3153  0.3003 -0.6567
  105CHL1   H4A13962   4.732   3.343  15.964 -1.4800  0.6050  3.2287
  105CHL1   H4B13963   4.809   3.233  16.057 -0.1229  1.8674 -0.2627
  105CHL1    C513964   4.802   3.186  15.840  0.1275 -0.2131 -0.1992
  105CHL1    C613965   4.935   3.142  15.834 -0.3563  0.1109 -0.5468
  105CHL1    H613966   4.987   3.150  15.931 -0.9240 -0.8484 -0.1450
  105CHL1    C713967   4.993   3.086  15.711 -0.1800 -0.0511  0.5771
  105CHL1   H7A13968   5.086   3.141  15.683  0.1759 -0.9734 -0.1055
  105CHL1   H7B13969   5.018   2.978  15.716 -0.1518 -0.2437 -2.2011
  105CHL1    C813970   4.907   3.110  15.581 -0.6031  0.3926 -1.1425
  105CHL1    H813971   4.925   3.215  15.552 -1.8142  0.3667 -2.0917
  105CHL1   C1413972   4.950   3.008  15.470 -0.3242 -0.1815 -0.0357
  105CHL1   H1413973   4.935   2.907  15.512  1.5212 -0.3554  0.2618
  105CHL1   C1513974   5.102   3.006  15.438 -0.6779 -0.3002 -0.1011
  105CHL1  H15A13975   5.150   3.106  15.429  0.2495 -0.7341 -0.0600
  105CHL1  H15B13976   5.163   2.952  15.514 -0.7539  2.8790  2.4363
  105CHL1   C1613977   5.108   2.937  15.301  0.4123  0.1932  0.0806
  105CHL1  H16A13978   5.167   3.002  15.232 -1.6652  0.9927 -1.0644
  105CHL1  H16B13979   5.159   2.839  15.306  1.5298  0.8050  1.3532
  105CHL1   C1713980   4.958   2.915  15.250  0.2416 -0.5470 -0.0626
  105CHL1   H1713981   4.940   2.815  15.294 -0.8465 -0.8353 -1.0923
  105CHL1   C1313982   4.874   3.015  15.337 -0.1025  0.4114  0.0037
  105CHL1   C1813983   4.874   3.158  15.285 -0.0823  0.2838  0.1724
  105CHL1  H18A13984   4.977   3.189  15.259  0.1586 -1.6180 -1.3220
  105CHL1  H18B13985   4.815   3.163  15.190  0.8862 -1.2929 -0.5513
  105CHL1  H18C13986   4.823   3.225  15.358 -1.1118  2.1871 -2.1299
  105CHL1   C1213987   4.731   2.974  15.379  0.1157 -0.0982  0.1284
  105CHL1  H12A13988   4.653   2.986  15.300  2.0388  0.3682 -1.8081
  105CHL1  H12B13989   4.739   2.873  15.424 -0.2069  0.2271  0.9377
  105CHL1   C1113990   4.669   3.067  15.483  0.2624 -0.1012 -0.3000
  105CHL1  H11A13991   4.642   3.167  15.443  1.1013  0.3076  0.1333
  105CHL1  H11B13992   4.571   3.023  15.514  0.9070 -0.8008  0.8044
  105CHL1    C913993   4.761   3.080  15.614 -0.0957 -0.4838  0.3349
  105CHL1    H913994   4.754   2.977  15.655 -2.0563  0.0849  1.5220
  105CHL1   C1013995   4.707   3.165  15.723  0.4520 -0.6995 -0.3506
  105CHL1   C1913996   4.670   3.305  15.670 -0.0439 -0.0347 -0.1837
  105CHL1  H19A13997   4.763   3.360  15.642  1.0644 -0.5378  2.2835
  105CHL1  H19B13998   4.582   3.287  15.604  0.1342  0.0180 -0.4372
  105CHL1  H19C13999   4.624   3.360  15.755 -1.1638 -1.8736  0.4493
  105CHL1    C114000   4.576   3.098  15.777 -0.1766 -0.4170 -0.5167
  105CHL1   H1A14001   4.501   3.097  15.695 -3.1621 -0.4799  1.9942
  105CHL1   H1B14002   4.609   2.996  15.804 -0.4781 -0.3187  0.2593
  105CHL1    C214003   4.510   3.159  15.904 -0.4698  1.2014 -0.4208
  105CHL1   H2A14004   4.435   3.077  15.919  2.7029 -2.0289 -0.7803
  105CHL1   H2B14005   4.466   3.260  15.892  0.8418  1.7225 -0.9217
  105CHL1   C2014006   4.906   2.902  15.104 -0.2765 -0.0667  0.6587
  105CHL1   H2014007   4.890   3.002  15.059  1.7901 -0.2471 -0.6289
  105CHL1   C2114008   4.775   2.818  15.101  1.4227  0.1884  0.5950
  105CHL1  H21A14009   4.793   2.714  15.134 -0.5739 -0.5583 -0.4897
  105CHL1  H21B14010   4.740   2.813  14.996  1.4745  0.3458  0.5705
  105CHL1  H21C14011   4.688   2.861  15.155 -1.9114 -0.9187 -3.3428
  105CHL1   C2214012   5.020   2.844  15.012  0.3487  0.8645  0.2889
  105CHL1  H22A14013   5.116   2.894  15.037  1.3019 -0.6989 -0.1302
  105CHL1  H22B14014   5.017   2.733  15.016  0.6109  0.8349 -0.2727
  105CHL1   C2314015   5.004   2.878  14.858 -0.4200 -0.1263  0.4660
  105CHL1  H23A14016   5.079   2.816  14.806  0.9415  2.4875 -0.8507
  105CHL1  H23B14017   4.905   2.848  14.816  0.3160 -0.5115 -1.0404
  105CHL1   C2414018   5.024   3.025  14.814  0.3020  1.0544 -0.4154
  105CHL1  H24A14019   4.934   3.085  14.840  0.7383  1.3609  0.4723
  105CHL1  H24B14020   5.111   3.068  14.869  1.4252 -0.5616 -0.8678
  105CHL1   C2514021   5.046   3.032  14.667  0.2671  1.0592  0.7792
  105CHL1   H2514022   5.110   2.947  14.637 -2.7117 -0.4575 -1.9519
  105CHL1   C2614023   4.921   3.010  14.576 -0.1222 -0.3774  0.0463
  105CHL1  H26A14024   4.958   3.033  14.474  0.2155  0.1346  0.2790
  105CHL1  H26B14025   4.871   2.911  14.584  1.1258 -0.9651  0.7222
  105CHL1  H26C14026   4.840   3.078  14.610 -0.1306 -0.1907 -0.3429
  105CHL1   C2714027   5.108   3.162  14.624 -0.7153 -0.5491  0.1813
  105CHL1  H27A14028   5.208   3.175  14.670 -0.9315 -1.3028  0.8898
  105CHL1  H27B14029   5.122   3.153  14.515 -0.6047 -0.9548  0.2273
  105CHL1  H27C14030   5.036   3.239  14.658 -0.6489 -1.2831  2.1061
  106CHL1    C314031   1.069   2.904  16.023  0.2840 -0.1726  0.2807
  106CHL1    H314032   1.173   2.886  16.057 -0.0178 -2.0056  0.3258
  106CHL1    O314033   0.994   2.906  16.144 -0.1439 -0.6720 -0.5348
  106CHL1   H3'14034   1.049   2.963  16.197 -1.0263  0.6492 -0.9885
  106CHL1    C414035   1.055   3.043  15.958  0.2928 -0.0310 -0.6493
  106CHL1   H4A14036   0.949   3.074  15.964  0.0661 -1.0533  3.6240
  106CHL1   H4B14037   1.117   3.116  16.015 -0.5990  0.1858  0.0686
  106CHL1    C514038   1.096   3.059  15.811  0.0189  0.0928  0.3807
  106CHL1    C614039   1.172   3.159  15.780 -0.0274  0.2304 -0.3678
  106CHL1    H614040   1.200   3.232  15.858  2.4892 -2.5491  1.5554
  106CHL1    C714041   1.216   3.177  15.636  0.6955 -0.2060 -0.2598
  106CHL1   H7A14042   1.189   3.279  15.601 -0.5216 -0.4117  0.0536
  106CHL1   H7B14043   1.327   3.175  15.633  0.7148  0.4289 -0.0594
  106CHL1    C814044   1.158   3.080  15.539 -0.8525 -0.0772 -0.5165
  106CHL1    H814045   1.060   3.107  15.495 -1.4628 -0.2497  0.7135
  106CHL1   C1414046   1.245   3.080  15.414  0.0708  0.0167 -0.5379
  106CHL1   H1414047   1.345   3.037  15.437 -1.3000 -2.6215  0.9825
  106CHL1   C1514048   1.275   3.222  15.354 -0.0541 -0.0038 -0.0449
  106CHL1  H15A14049   1.186   3.287  15.344 -1.6123 -1.6537  1.9996
  106CHL1  H15B14050   1.352   3.261  15.425 -1.1885  1.4702  0.4220
  106CHL1   C1614051   1.331   3.177  15.216 -0.5738 -0.6765 -0.4064
  106CHL1  H16A14052   1.268   3.226  15.139 -2.9690 -1.0494  1.2164
  106CHL1  H16B14053   1.440   3.199  15.204 -0.5154 -1.0497 -0.5767
  106CHL1   C1714054   1.310   3.024  15.194 -0.2080 -0.0443  0.9618
  106CHL1   H1714055   1.403   2.979  15.234  1.1817  1.5313 -0.3103
  106CHL1   C1314056   1.204   2.998  15.294 -0.3338  0.2931 -0.6594
  106CHL1   C1814057   1.069   3.035  15.229  0.0564  0.2033  0.2159
  106CHL1  H18A14058   1.062   3.140  15.192 -0.3104 -0.3896 -1.4870
  106CHL1  H18B14059   1.045   2.963  15.148 -0.0382  1.1391 -0.6121
  106CHL1  H18C14060   0.981   3.024  15.296 -0.3105  2.2582  0.1367
  106CHL1   C1214061   1.209   2.856  15.356 -0.4488 -0.8048  0.6166
  106CHL1  H12A14062   1.184   2.784  15.276 -2.1478  1.1939 -0.7600
  106CHL1  H12B14063   1.312   2.828  15.389 -0.6512 -1.5950  0.5876
  106CHL1   C1114064   1.113   2.839  15.478 -1.3178 -0.3407  0.5184
  106CHL1  H11A14065   1.012   2.856  15.436 -0.8947  0.2599 -0.2983
  106CHL1  H11B14066   1.119   2.740  15.527 -0.6037 -1.1210 -1.0654
  106CHL1    C914067   1.149   2.939  15.591  0.3504 -0.1869 -1.1673
  106CHL1    H914068   1.244   2.913  15.642 -1.4271 -1.5411  1.6860
  106CHL1   C1014069   1.056   2.946  15.719  0.6211  0.1294  0.4561
  106CHL1   C1914070   0.903   2.968  15.694  0.0927  0.7959 -0.5517
  106CHL1  H19A14071   0.880   3.069  15.655  1.2149  0.3887 -2.4054
  106CHL1  H19B14072   0.860   2.887  15.631  2.5153 -0.9167 -0.1174
  106CHL1  H19C14073   0.843   2.953  15.787  0.0265 -1.2900 -0.8772
  106CHL1    C114074   1.069   2.806  15.791 -0.0518 -0.7588  0.0277
  106CHL1   H1A14075   1.015   2.731  15.730 -1.3151 -1.3720  1.8141
  106CHL1   H1B14076   1.178   2.788  15.806  0.3788  2.1378  0.9869
  106CHL1    C214077   1.019   2.793  15.937  0.4165 -0.7800 -1.0074
  106CHL1   H2A14078   1.032   2.695  15.987  0.3993  0.7450  2.2732
  106CHL1   H2B14079   0.909   2.809  15.943  0.6048 -0.0812  1.6488
  106CHL1   C2014080   1.305   2.975  15.049  0.2413 -0.7615 -0.6564
  106CHL1   H2014081   1.216   3.012  14.995 -0.6838 -1.7087  0.1952
  106CHL1   C2114082   1.293   2.823  15.042  0.4909  0.4579 -1.3469
  106CHL1  H21A14083   1.192   2.791  15.075  0.1258  1.9591 -0.9417
  106CHL1  H21B14084   1.363   2.762  15.102 -1.8015 -2.2122 -1.1601
  106CHL1  H21C14085   1.306   2.785  14.938  0.6393 -2.8057 -0.2574
  106CHL1   C2214086   1.429   3.017  14.960  0.0967  0.1552  0.2530
  106CHL1  H22A14087   1.412   2.977  14.858 -1.2120  2.0155 -0.3225
  106CHL1  H22B14088   1.423   3.125  14.935  0.7218 -0.0851 -0.9772
  106CHL1   C2314089   1.570   2.981  15.011  0.3179  0.2324  0.5523
  106CHL1  H23A14090   1.595   3.046  15.098 -3.6410  0.5300  1.6348
  106CHL1  H23B14091   1.572   2.871  15.029  0.9776  0.2840  0.8423
  106CHL1   C2414092   1.663   3.002  14.890 -0.1735 -0.0311  0.3927
  106CHL1  H24A14093   1.626   2.970  14.790  0.8562  0.9112 -0.3005
  106CHL1  H24B14094   1.678   3.111  14.878 -1.0064  0.1199  0.6095
  106CHL1   C2514095   1.808   2.938  14.904 -0.6701 -0.3487  0.3811
  106CHL1   H2514096   1.798   2.828  14.909 -2.2958 -0.3587 -1.4470
  106CHL1   C2614097   1.881   2.972  14.766 -0.6610  0.1870  0.2681
  106CHL1  H26A14098   1.990   2.963  14.788 -0.7330 -1.0697  0.1620
  106CHL1  H26B14099   1.863   2.892  14.691 -0.8560  0.8746 -0.4268
  106CHL1  H26C14100   1.850   3.071  14.726  1.2743  0.6401 -0.2414
  106CHL1   C2714101   1.881   2.992  15.023  0.3824 -0.0124  0.2528
  106CHL1  H27A14102   1.828   2.975  15.119 -1.8919 -0.8301 -1.0845
  106CHL1  H27B14103   1.983   2.951  15.039  0.6990  1.0392  1.0762
  106CHL1  H27C14104   1.901   3.100  15.004  2.4182 -0.5398 -0.8839
  107CHL1    C314105   2.571   0.166  16.083 -0.8701 -0.3606 -0.0509
  107CHL1    H314106   2.645   0.084  16.068 -0.8883 -0.0695 -1.9301
  107CHL1    O314107   2.525   0.148  16.214  0.7638 -0.0412 -0.3159
  107CHL1   H3'14108   2.601   0.173  16.268  1.1246 -0.3177 -0.6904
  107CHL1    C414109   2.645   0.296  16.063  0.6738 -0.5270  0.0435
  107CHL1   H4A14110   2.576   0.382  16.079 -1.3824 -1.7796 -1.4824
  107CHL1   H4B14111   2.734   0.304  16.128  0.1960  0.6633  0.5797
  107CHL1    C514112   2.687   0.308  15.916  0.4211 -0.0484  0.1673
  107CHL1    C614113   2.819   0.316  15.889  0.4749  0.2742 -0.2495
  107CHL1    H614114   2.891   0.325  15.972 -0.7519 -0.4196  0.9370
  107CHL1    C714115   2.878   0.323  15.758 -0.7098  0.2434 -0.1196
  107CHL1   H7A14116   2.946   0.410  15.761  0.4386 -0.6187 -0.6307
  107CHL1   H7B14117   2.934   0.231  15.730 -1.3898 -0.5920  1.1419
  107CHL1    C814118   2.772   0.341  15.643  0.0834  0.1064  0.1270
  107CHL1    H814119   2.745   0.448  15.649  0.3432  0.1558  0.4515
  107CHL1   C1414120   2.836   0.300  15.513 -0.0040 -0.4370  0.2920
  107CHL1   H1414121   2.872   0.197  15.530  0.3653 -0.5022 -0.7835
  107CHL1   C1514122   2.964   0.373  15.464 -0.9321  0.0587  0.3680
  107CHL1  H15A14123   2.968   0.482  15.486 -1.8106  0.7882 -2.5798
  107CHL1  H15B14124   3.054   0.332  15.514  0.1495  2.7904  0.8296
  107CHL1   C1614125   2.979   0.339  15.316  0.3318  0.8180 -0.2369
  107CHL1  H16A14126   2.983   0.435  15.260 -0.7391  1.2138  0.3336
  107CHL1  H16B14127   3.061   0.266  15.301 -0.9422 -0.6021 -0.6066
  107CHL1   C1714128   2.840   0.271  15.280 -0.1576 -0.3422  0.4240
  107CHL1   H1714129   2.841   0.160  15.287 -0.7016 -0.3644  0.1759
  107CHL1   C1314130   2.739   0.316  15.391 -0.2062  0.5034  0.3106
  107CHL1   C1814131   2.702   0.462  15.363 -0.3530  0.2831 -0.4091
  107CHL1  H18A14132   2.781   0.526  15.316  0.0829  1.2317  1.5190
  107CHL1  H18B14133   2.607   0.467  15.305  0.8029 -0.3156 -2.4869
  107CHL1  H18C14134   2.683   0.525  15.452  3.7249  1.8372 -0.4143
  107CHL1   C1214135   2.620   0.224  15.421 -0.1308  0.5583  0.0272
  107CHL1  H12A14136   2.543   0.235  15.342  0.0982 -2.3960 -0.7194
  107CHL1  H12B14137   2.652   0.120  15.442  0.6804  1.2807  2.8843
  107CHL1   C1114138   2.547   0.271  15.547  0.2673 -0.3668 -0.2475
  107CHL1  H11A14139   2.514   0.376  15.532  2.0941  0.7455  2.5299
  107CHL1  H11B14140   2.461   0.204  15.565 -0.2913  0.6140  0.8640
  107CHL1    C914141   2.645   0.262  15.672 -0.1363 -0.0360 -0.2698
  107CHL1    H914142   2.679   0.156  15.683  0.8096  0.3891  1.0905
  107CHL1   C1014143   2.578   0.297  15.805  0.2868  0.0979  0.5078
  107CHL1   C1914144   2.510   0.432  15.794 -0.2458 -0.3949 -0.0583
  107CHL1  H19A14145   2.570   0.495  15.725  2.1142 -1.4451  0.9392
  107CHL1  H19B14146   2.410   0.418  15.747 -1.1508  2.3553  0.9032
  107CHL1  H19C14147   2.503   0.488  15.889 -0.2134 -0.8910  0.2367
  107CHL1    C114148   2.483   0.182  15.840 -0.0332  0.3648 -0.2311
  107CHL1   H1A14149   2.385   0.195  15.791 -0.6247  0.1242  0.8685
  107CHL1   H1B14150   2.520   0.081  15.809  1.2365  0.3645  1.1384
  107CHL1    C214151   2.456   0.161  15.992 -1.0553 -0.2243 -0.0842
  107CHL1   H2A14152   2.406   0.062  15.999  0.4703 -1.0652 -0.7028
  107CHL1   H2B14153   2.379   0.238  16.011  0.8376  1.4190  1.2659
  107CHL1   C2014154   2.811   0.288  15.130 -0.3238 -0.3526 -0.3884
  107CHL1   H2014155   2.781   0.394  15.116  2.5780  0.6570  0.4630
  107CHL1   C2114156   2.690   0.193  15.096 -0.6234  0.5303  0.2638
  107CHL1  H21A14157   2.671   0.185  14.987 -0.8889 -1.0146  0.4002
  107CHL1  H21B14158   2.599   0.225  15.151  0.6789  2.9566  1.1572
  107CHL1  H21C14159   2.714   0.096  15.145 -2.9267  0.1068  0.6881
  107CHL1   C2214160   2.933   0.259  15.043 -0.4551 -0.3347 -0.7280
  107CHL1  H22A14161   2.993   0.352  15.052 -1.2337  0.0592  0.5879
  107CHL1  H22B14162   2.994   0.178  15.087 -0.1027  0.6148  0.5656
  107CHL1   C2314163   2.912   0.250  14.892 -0.1218  0.7522  0.1226
  107CHL1  H23A14164   2.860   0.155  14.868 -1.5764  1.9144 -1.5698
  107CHL1  H23B14165   2.835   0.328  14.874 -1.6147 -0.2926  1.6001
  107CHL1   C2414166   3.046   0.273  14.827 -0.1917 -0.1047 -0.4148
  107CHL1  H24A14167   3.085   0.376  14.848 -0.7554  0.5101 -2.2066
  107CHL1  H24B14168   3.114   0.194  14.863 -0.6630  0.4172  1.7831
  107CHL1   C2514169   3.043   0.274  14.673 -0.0014  0.2038  0.0397
  107CHL1   H2514170   2.978   0.359  14.644 -1.2097 -0.4786  0.6366
  107CHL1   C2614171   3.182   0.311  14.613 -0.5076  0.2619 -0.1303
  107CHL1  H26A14172   3.166   0.352  14.511  1.2440  0.3291 -0.4167
  107CHL1  H26B14173   3.242   0.371  14.685 -0.5597  0.7544 -0.4940
  107CHL1  H26C14174   3.249   0.223  14.603  0.3125  0.4443  2.7848
  107CHL1   C2714175   2.986   0.142  14.615  0.2197 -0.0146 -0.4464
  107CHL1  H27A14176   2.965   0.145  14.505 -0.1418 -1.8786 -0.4766
  107CHL1  H27B14177   3.059   0.060  14.632 -0.5507 -0.1119  2.9579
  107CHL1  H27C14178   2.901   0.101  14.674  0.5663  1.9014  1.4970
  108CHL1    C314179   5.367   1.937  15.707 -0.1861 -0.3146  0.0283
  108CHL1    H314180   5.438   2.016  15.674 -0.7811  0.5446  0.7689
  108CHL1    O314181   5.334   1.946  15.844 -0.4509  0.4191 -0.1297
  108CHL1   H3'14182   5.256   1.895  15.868  1.6507 -2.3320  1.4663
  108CHL1    C414183   5.231   1.958  15.624 -0.0865  0.1173 -0.4234
  108CHL1   H4A14184   5.165   1.877  15.662  0.2694  0.3759  0.8157
  108CHL1   H4B14185   5.186   2.056  15.652 -1.2135  0.0999 -2.0560
  108CHL1    C514186   5.262   1.961  15.478  0.2224  0.2726  0.5570
  108CHL1    C614187   5.230   2.063  15.400 -0.0151 -0.0509 -0.8160
  108CHL1    H614188   5.166   2.142  15.441 -0.3630 -0.9567  0.4515
  108CHL1    C714189   5.251   2.080  15.252 -0.6313 -0.0140 -0.1950
  108CHL1   H7A14190   5.157   2.131  15.220  0.3681  2.4371  0.5263
  108CHL1   H7B14191   5.334   2.151  15.229  0.7978 -1.5280  0.1013
  108CHL1    C814192   5.276   1.947  15.192 -0.0427  1.0008 -0.4308
  108CHL1    H814193   5.179   1.893  15.185  0.8336 -0.5303 -1.4642
  108CHL1   C1414194   5.334   1.965  15.056  0.2084 -0.1836 -0.1965
  108CHL1   H1414195   5.429   2.020  15.073 -0.3067  1.1577 -1.4947
  108CHL1   C1514196   5.269   2.052  14.954  0.4202 -0.0143  0.2330
  108CHL1  H15A14197   5.161   2.029  14.952  0.5647 -0.7110  0.3890
  108CHL1  H15B14198   5.278   2.161  14.978  2.2464  0.0142 -0.4168
  108CHL1   C1614199   5.340   2.011  14.826 -0.2341  0.0396  0.5163
  108CHL1  H16A14200   5.271   1.998  14.740  0.0240 -0.2344  0.3488
  108CHL1  H16B14201   5.401   2.092  14.779  0.0354 -0.2169  0.4227
  108CHL1   C1714202   5.438   1.888  14.849  0.1423  0.0981  0.1099
  108CHL1   H1714203   5.541   1.925  14.869  0.2187 -0.3904  0.6578
  108CHL1   C1314204   5.375   1.837  14.980 -0.1532  0.3859  0.2201
  108CHL1   C1814205   5.260   1.748  14.932 -0.5384  1.0423 -0.5579
  108CHL1  H18A14206   5.194   1.794  14.855  0.7210  1.2652 -1.5368
  108CHL1  H18B14207   5.302   1.655  14.889 -1.3313  0.4797 -0.1442
  108CHL1  H18C14208   5.192   1.704  15.009 -1.4151 -0.9463 -2.3526
  108CHL1   C1214209   5.484   1.762  15.064  0.6700  0.1525 -0.3890
  108CHL1  H12A14210   5.511   1.669  15.010 -1.0695 -0.4733 -0.2290
  108CHL1  H12B14211   5.576   1.824  15.074  1.0790 -0.5722  0.4552
  108CHL1   C1114212   5.429   1.732  15.200  0.3399 -0.1372  0.0482
  108CHL1  H11A14213   5.351   1.653  15.195  0.7270 -0.6752  1.7911
  108CHL1  H11B14214   5.503   1.674  15.259 -0.2350 -1.1697 -0.2303
  108CHL1    C914215   5.374   1.857  15.271 -0.2672 -0.1591 -0.2814
  108CHL1    H914216   5.468   1.917  15.274  0.2282 -0.9538  1.0436
  108CHL1   C1014217   5.332   1.836  15.424  0.4107 -0.2368 -0.0227
  108CHL1   C1914218   5.236   1.715  15.432 -0.1245  0.0550 -0.3173
  108CHL1  H19A14219   5.200   1.699  15.536  0.0093  2.1620  0.0865
  108CHL1  H19B14220   5.142   1.735  15.376  0.5723  1.3412 -1.0813
  108CHL1  H19C14221   5.286   1.621  15.400 -1.1491 -0.2136 -1.1736
  108CHL1    C114222   5.456   1.809  15.516  0.5952 -0.1290  0.1117
  108CHL1   H1A14223   5.495   1.711  15.483 -1.0816  0.0339 -2.7233
  108CHL1   H1B14224   5.535   1.884  15.495  3.4284 -2.9567 -0.0956
  108CHL1    C214225   5.419   1.801  15.662 -0.1575 -0.2278 -1.0494
  108CHL1   H2A14226   5.509   1.768  15.718 -1.2830 -0.1772  0.8675
  108CHL1   H2B14227   5.355   1.716  15.693  1.1115 -0.2549  1.7742
  108CHL1   C2014228   5.458   1.803  14.722 -0.4683 -0.0902  0.0825
  108CHL1   H2014229   5.356   1.771  14.691 -0.0031 -1.2096 -0.3156
  108CHL1   C2114230   5.556   1.689  14.738  0.1893  0.2163  0.5500
  108CHL1  H21A14231   5.515   1.615  14.811 -2.2134  1.1387  0.2443
  108CHL1  H21B14232   5.655   1.725  14.771 -0.4912  0.8019  2.0235
  108CHL1  H21C14233   5.565   1.630  14.644  0.3341  1.1988 -0.0601
  108CHL1   C2214234   5.489   1.884  14.594 -0.3895 -0.3174  0.4261
  108CHL1  H22A14235   5.419   1.968  14.574  0.2443 -0.3518 -2.3843
  108CHL1  H22B14236   5.589   1.931  14.595 -0.7857  0.6857 -1.6621
  108CHL1   C2314237   5.471   1.812  14.467  0.1843 -0.0021 -0.5187
  108CHL1  H23A14238   5.538   1.725  14.449 -0.4367 -1.0357  1.8633
  108CHL1  H23B14239   5.369   1.767  14.468  0.2122 -0.2603  3.1020
  108CHL1   C2414240   5.472   1.899  14.342  0.2672  0.4815 -0.6845
  108CHL1  H24A14241   5.426   1.849  14.254  0.5769 -1.3478  0.1450
  108CHL1  H24B14242   5.403   1.981  14.371 -1.7821 -0.9767 -1.2354
  108CHL1   C2514243   5.605   1.952  14.309  0.0920 -0.0903  0.1038
  108CHL1   H2514244   5.649   1.988  14.405 -2.2482 -0.0190  1.2311
  108CHL1   C2614245   5.697   1.846  14.250 -0.2040 -0.4819 -0.1153
  108CHL1  H26A14246   5.802   1.881  14.254  0.3854 -2.2381  0.6047
  108CHL1  H26B14247   5.695   1.752  14.309  0.3543 -0.9483 -0.8268
  108CHL1  H26C14248   5.666   1.815  14.148 -0.4953 -1.9693  0.3964
  108CHL1   C2714249   5.600   2.077  14.218 -0.1919 -0.0756 -0.2769
  108CHL1  H27A14250   5.574   2.041  14.116  3.0107 -1.5405 -0.7201
  108CHL1  H27B14251   5.537   2.160  14.258  1.7341  1.6504 -0.6048
  108CHL1  H27C14252   5.707   2.107  14.213 -0.0747 -0.5298 -0.5102
  109CHL1    C314253   1.499   6.321  16.560  0.2230 -0.5722  0.2397
  109CHL1    H314254   1.394   6.353  16.545  0.8731  0.7580 -1.9895
  109CHL1    O314255   1.527   6.301  16.697 -0.8884 -0.0595  0.0241
  109CHL1   H3'14256   1.623   6.305  16.708 -0.8462  2.4803 -0.5386
  109CHL1    C414257   1.540   6.196  16.480 -0.3596 -0.4882 -0.5864
  109CHL1   H4A14258   1.642   6.170  16.517 -0.5445  1.1153  1.1791
  109CHL1   H4B14259   1.470   6.119  16.521 -1.7125  0.5674 -0.8626
  109CHL1    C514260   1.538   6.222  16.332  0.4712  0.1297  0.7454
  109CHL1    C614261   1.482   6.134  16.251  0.3364  0.5822 -0.1653
  109CHL1    H614262   1.441   6.040  16.290 -2.7600  0.6689 -2.7719
  109CHL1    C714263   1.467   6.151  16.104 -0.6683 -0.2489  0.5405
  109CHL1   H7A14264   1.493   6.055  16.054 -0.8889 -0.7654  1.4072
  109CHL1   H7B14265   1.364   6.173  16.071 -0.4310  0.0301 -0.0432
  109CHL1    C814266   1.559   6.268  16.052 -0.0641  0.5677 -0.3873
  109CHL1    H814267   1.658   6.218  16.048  0.1673  0.9755 -0.0048
  109CHL1   C1414268   1.516   6.318  15.920  0.3599  0.3322  0.4895
  109CHL1   H1414269   1.423   6.376  15.932 -0.1334  0.1923 -2.0238
  109CHL1   C1514270   1.473   6.208  15.825  0.3372  0.0132 -0.2378
  109CHL1  H15A14271   1.529   6.112  15.825  0.1620 -0.0916  0.5268
  109CHL1  H15B14272   1.365   6.199  15.846 -0.0648 -0.5639 -2.3493
  109CHL1   C1614273   1.499   6.269  15.682  0.2943  0.7906 -0.0629
  109CHL1  H16A14274   1.582   6.214  15.634 -1.1721 -1.6498  0.0252
  109CHL1  H16B14275   1.408   6.267  15.618 -1.5727 -2.2497  2.3605
  109CHL1   C1714276   1.544   6.422  15.704  0.1117  0.6348 -0.2255
  109CHL1   H1714277   1.447   6.477  15.698 -2.0487 -3.0043 -3.9170
  109CHL1   C1314278   1.607   6.415  15.847 -0.7310 -0.6835  0.4900
  109CHL1   C1814279   1.752   6.352  15.836  0.1721 -0.8287 -0.3941
  109CHL1  H18A14280   1.813   6.442  15.813  0.0325 -0.3719  0.9288
  109CHL1  H18B14281   1.794   6.318  15.933  0.0856  1.5579  0.5412
  109CHL1  H18C14282   1.761   6.276  15.756 -1.8539 -1.3171 -0.2078
  109CHL1   C1214283   1.608   6.541  15.939  1.0336 -0.3880  0.0043
  109CHL1  H12A14284   1.678   6.620  15.905 -1.2211  2.0084  0.6693
  109CHL1  H12B14285   1.507   6.586  15.948  1.0722 -0.5200  1.1825
  109CHL1   C1114286   1.656   6.509  16.084  0.3306  0.5694  0.6657
  109CHL1  H11A14287   1.759   6.467  16.086 -1.1339 -3.6151 -0.0437
  109CHL1  H11B14288   1.648   6.599  16.148 -0.5950  0.2890  0.9682
  109CHL1    C914289   1.566   6.396  16.145 -0.2120  0.4062 -0.2272
  109CHL1    H914290   1.462   6.434  16.143 -2.2306 -4.3911 -1.1005
  109CHL1   C1014291   1.597   6.360  16.293  0.0213  0.6571 -0.0298
  109CHL1   C1914292   1.748   6.332  16.301  0.4582 -0.2916  0.2604
  109CHL1  H19A14293   1.778   6.261  16.221  1.8026  0.9504 -0.3936
  109CHL1  H19B14294   1.808   6.425  16.292 -0.3760  0.7302  3.8659
  109CHL1  H19C14295   1.779   6.281  16.395 -0.0995  0.3285  0.7862
  109CHL1    C114296   1.572   6.485  16.386  0.1890  1.0752  0.4941
  109CHL1   H1A14297   1.651   6.553  16.349  0.6053 -0.3113 -1.3281
  109CHL1   H1B14298   1.471   6.522  16.360 -0.2071 -0.6696 -0.6440
  109CHL1    C214299   1.578   6.451  16.534  0.1025 -0.2004  0.3038
  109CHL1   H2A14300   1.530   6.539  16.582  2.1867  0.5545  1.1338
  109CHL1   H2B14301   1.684   6.454  16.568  0.2283  0.9727 -0.1180
  109CHL1   C2014302   1.625   6.480  15.584  1.1638  0.0031 -0.6093
  109CHL1   H2014303   1.725   6.432  15.592 -0.0973 -2.4735  2.2169
  109CHL1   C2114304   1.642   6.634  15.609  0.2560 -0.0111  0.5523
  109CHL1  H21A14305   1.538   6.670  15.625 -0.1187 -0.0432 -1.4583
  109CHL1  H21B14306   1.674   6.697  15.522  0.0308 -0.8775 -0.1715
  109CHL1  H21C14307   1.705   6.646  15.700 -1.0385  1.5015  1.3043
  109CHL1   C2214308   1.566   6.452  15.442  0.2052  0.0005 -0.1119
  109CHL1  H22A14309   1.538   6.345  15.431 -0.7724  0.1452  0.8094
  109CHL1  H22B14310   1.471   6.507  15.426 -0.1037 -0.8975 -1.5464
  109CHL1   C2314311   1.664   6.483  15.325  0.7579  0.0865 -0.3178
  109CHL1  H23A14312   1.716   6.581  15.338 -0.3616  0.6151  0.3087
  109CHL1  H23B14313   1.748   6.411  15.336 -1.4969 -2.5115  0.8919
  109CHL1   C2414314   1.585   6.475  15.197 -0.5035 -1.4064 -0.1391
  109CHL1  H24A14315   1.542   6.373  15.190  0.3977 -1.8332  0.4206
  109CHL1  H24B14316   1.502   6.549  15.194  0.8951  0.2471  0.0417
  109CHL1   C2514317   1.676   6.503  15.079  0.1161  0.3267  0.2721
  109CHL1   H2514318   1.622   6.469  14.988  2.2983  1.8318 -1.7297
  109CHL1   C2614319   1.715   6.650  15.059 -0.0018  0.5402  0.3048
  109CHL1  H26A14320   1.775   6.654  14.965 -0.0032  1.1849  0.3265
  109CHL1  H26B14321   1.629   6.718  15.049  0.3046  0.9994  0.7489
  109CHL1  H26C14322   1.778   6.677  15.147  1.7207 -1.0319 -0.3689
  109CHL1   C2714323   1.799   6.413  15.075  0.1669  0.4956 -0.7144
  109CHL1  H27A14324   1.871   6.445  15.154  0.9403  0.3201 -1.3304
  109CHL1  H27B14325   1.779   6.304  15.078 -1.5631  0.7986  1.8013
  109CHL1  H27C14326   1.857   6.429  14.981  0.1558 -0.4258 -0.8879
  110CHL1    C314327   0.521   3.801  15.876  0.2435 -0.3341  1.0292
  110CHL1    H314328   0.536   3.906  15.907 -1.9715 -0.2997  2.1451
  110CHL1    O314329   0.488   3.717  15.987  0.1109 -0.1291 -0.1593
  110CHL1   H3'14330   0.567   3.703  16.039 -0.1462 -0.4261  0.1574
  110CHL1    C414331   0.396   3.786  15.787  0.2996  0.0100  0.7934
  110CHL1   H4A14332   0.360   3.681  15.780 -0.7956  0.3297  1.4001
  110CHL1   H4B14333   0.307   3.832  15.835  1.1992 -0.0432  2.5855
  110CHL1    C514334   0.406   3.835  15.644  0.5380  0.3765 -0.2299
  110CHL1    C614335   0.334   3.933  15.604  0.5070  0.0901  0.0485
  110CHL1    H614336   0.262   3.979  15.674  2.4693  0.8106  1.6971
  110CHL1    C714337   0.333   3.981  15.467 -0.1415 -0.6015 -0.6445
  110CHL1   H7A14338   0.229   3.971  15.428 -0.7227 -1.8134  1.0761
  110CHL1   H7B14339   0.375   4.083  15.455  1.3235 -0.8138  1.9878
  110CHL1    C814340   0.413   3.889  15.371  0.0036  0.1284 -0.4384
  110CHL1    H814341   0.349   3.799  15.359  0.6358 -0.7006  1.8496
  110CHL1   C1414342   0.436   3.954  15.237 -0.2165  0.7087  0.1086
  110CHL1   H1414343   0.491   4.047  15.262 -0.6405  0.4544  2.1812
  110CHL1   C1514344   0.318   4.006  15.156  0.7425 -0.3974  0.7131
  110CHL1  H15A14345   0.227   3.942  15.163  1.1460 -0.7962  2.9126
  110CHL1  H15B14346   0.279   4.104  15.191 -0.6637 -0.6054 -0.1761
  110CHL1   C1614347   0.378   4.021  15.009 -0.4921  0.3397 -0.9196
  110CHL1  H16A14348   0.329   3.957  14.932 -1.1226  0.5136 -0.6717
  110CHL1  H16B14349   0.354   4.124  14.976 -1.0743  0.1248 -1.1772
  110CHL1   C1714350   0.523   3.978  15.019  0.2261 -0.6349 -0.4421
  110CHL1   H1714351   0.572   4.072  15.051 -0.0913 -0.1423 -1.3514
  110CHL1   C1314352   0.521   3.877  15.136 -0.0014 -0.5265 -0.0340
  110CHL1   C1814353   0.450   3.746  15.093 -0.5369 -0.8676  0.0526
  110CHL1  H18A14354   0.533   3.689  15.046 -0.1411 -0.8815  0.7642
  110CHL1  H18B14355   0.407   3.691  15.180 -4.9088  0.5001 -0.9574
  110CHL1  H18C14356   0.355   3.767  15.039 -2.6587 -0.6782  3.5832
  110CHL1   C1214357   0.659   3.846  15.200 -0.3348  0.3870 -0.5436
  110CHL1  H12A14358   0.720   3.792  15.125  2.6903  2.0526  0.5218
  110CHL1  H12B14359   0.699   3.948  15.219  3.6122 -1.2410  1.0013
  110CHL1   C1114360   0.635   3.771  15.329  0.4635  0.4557 -0.1322
  110CHL1  H11A14361   0.595   3.672  15.296 -0.3110  1.3239 -1.9446
  110CHL1  H11B14362   0.731   3.763  15.385 -1.0769  1.6071  2.8981
  110CHL1    C914363   0.548   3.854  15.430  0.1953 -0.0769 -0.4925
  110CHL1    H914364   0.609   3.945  15.447  1.0941 -0.5928 -0.8890
  110CHL1   C1014365   0.530   3.769  15.566  0.1008 -0.1723 -0.0376
  110CHL1   C1914366   0.510   3.619  15.542  0.0133  0.1054 -0.8972
  110CHL1  H19A14367   0.595   3.565  15.494  0.2365  0.7109 -1.1943
  110CHL1  H19B14368   0.497   3.565  15.638  2.0868  1.8104  0.4244
  110CHL1  H19C14369   0.419   3.611  15.478 -1.2972  0.1667  0.8918
  110CHL1    C114370   0.652   3.794  15.657  0.5536  0.1493  0.2301
  110CHL1   H1A14371   0.732   3.725  15.622  2.2803  0.7950  2.5773
  110CHL1   H1B14372   0.701   3.894  15.659  2.0925 -0.5460  2.4990
  110CHL1    C214373   0.642   3.741  15.799 -0.0236 -0.0036 -0.1758
  110CHL1   H2A14374   0.734   3.779  15.849  0.1773 -1.0830  0.3066
  110CHL1   H2B14375   0.641   3.630  15.790  0.5106  0.1284 -2.6368
  110CHL1   C2014376   0.607   3.938  14.892  0.1311  0.1419  0.0116
  110CHL1   H2014377   0.608   3.828  14.903 -2.1562  0.2040  1.4541
  110CHL1   C2114378   0.746   3.998  14.905  0.1002 -0.0475 -0.3230
  110CHL1  H21A14379   0.743   4.109  14.903  3.3369  0.1370 -2.6185
  110CHL1  H21B14380   0.807   3.960  14.820 -1.7726 -0.1451 -1.6967
  110CHL1  H21C14381   0.782   3.966  15.005 -0.3906 -0.8860 -0.4010
  110CHL1   C2214382   0.548   3.970  14.755  0.0327 -0.2068 -0.3218
  110CHL1  H22A14383   0.437   3.965  14.757 -0.0825  1.9331  1.2527
  110CHL1  H22B14384   0.578   4.075  14.735 -1.7138  0.0540 -1.7767
  110CHL1   C2314385   0.585   3.870  14.647  0.1810 -0.0732  0.1464
  110CHL1  H23A14386   0.695   3.869  14.630 -0.1580 -1.7211 -2.4847
  110CHL1  H23B14387   0.545   3.770  14.673 -2.0960  0.1156 -2.2364
  110CHL1   C2414388   0.510   3.900  14.522 -0.1953  0.4648 -0.8158
  110CHL1  H24A14389   0.401   3.879  14.531  0.0178  0.3031  2.1493
  110CHL1  H24B14390   0.523   4.009  14.507 -0.3027  0.4520 -1.0249
  110CHL1   C2514391   0.571   3.839  14.390 -0.9091 -0.6275  0.4356
  110CHL1   H2514392   0.607   3.739  14.422  0.4295  0.2713  1.9389
  110CHL1   C2614393   0.467   3.844  14.276 -0.0843 -0.4049 -0.0691
  110CHL1  H26A14394   0.402   3.932  14.293  0.0658 -0.2664 -0.2134
  110CHL1  H26B14395   0.509   3.850  14.173  0.4274  2.1545  0.2311
  110CHL1  H26C14396   0.416   3.745  14.276 -2.4592  0.6955  2.0380
  110CHL1   C2714397   0.707   3.897  14.352 -0.4476  0.5762 -0.0826
  110CHL1  H27A14398   0.760   3.843  14.271 -1.6019  2.0472 -1.8748
  110CHL1  H27B14399   0.682   3.996  14.308  1.5376  1.4774  0.6769
  110CHL1  H27C14400   0.768   3.917  14.443  1.6157 -1.2676 -0.9523
  111CHL1    C314401   2.071   0.474  15.940 -0.6314  0.2137  0.0806
  111CHL1    H314402   2.165   0.415  15.954 -0.5185  0.2190 -0.6171
  111CHL1    O314403   2.005   0.475  16.060  0.1268  0.4127 -0.1427
  111CHL1   H3'14404   1.947   0.550  16.048 -2.0189 -1.0474  0.4490
  111CHL1    C414405   2.093   0.610  15.883  0.1508  0.2903 -0.5099
  111CHL1   H4A14406   1.992   0.655  15.883  0.6382  1.4216 -0.4850
  111CHL1   H4B14407   2.149   0.663  15.964  0.1712 -0.3256 -0.1141
  111CHL1    C514408   2.149   0.611  15.742  0.3748 -0.3430  1.0635
  111CHL1    C614409   2.264   0.682  15.709 -0.5934  0.9930 -0.1276
  111CHL1    H614410   2.312   0.746  15.784 -1.5613  0.0010  1.4070
  111CHL1    C714411   2.319   0.682  15.576 -0.4086 -0.5434 -0.5165
  111CHL1   H7A14412   2.351   0.785  15.548  2.1338 -0.9154  0.6916
  111CHL1   H7B14413   2.409   0.619  15.590 -0.9577 -1.4453 -0.9903
  111CHL1    C814414   2.231   0.614  15.464 -0.5483 -0.2775 -0.9074
  111CHL1    H814415   2.153   0.687  15.434  1.0200  1.9641  0.1621
  111CHL1   C1414416   2.314   0.573  15.343 -0.2202 -0.2615  0.3045
  111CHL1   H1414417   2.381   0.492  15.380 -0.7811 -1.0470 -0.3662
  111CHL1   C1514418   2.401   0.689  15.289 -0.2485  0.0913 -0.3844
  111CHL1  H15A14419   2.353   0.789  15.290  0.8464  0.6227  0.4119
  111CHL1  H15B14420   2.486   0.712  15.357  0.5014  0.2383 -1.3508
  111CHL1   C1614421   2.456   0.656  15.156 -0.1304  0.2091  0.3410
  111CHL1  H16A14422   2.438   0.730  15.075 -1.5105 -1.4992 -0.9585
  111CHL1  H16B14423   2.564   0.635  15.139  0.1600  1.5163  0.4020
  111CHL1   C1714424   2.374   0.522  15.123  0.2696 -0.6380  0.2888
  111CHL1   H1714425   2.429   0.432  15.157 -2.3701 -1.7473  2.0100
  111CHL1   C1314426   2.245   0.522  15.215  0.1406  0.6117  0.6363
  111CHL1   C1814427   2.143   0.631  15.173 -0.3293 -0.2297 -0.1632
  111CHL1  H18A14428   2.063   0.648  15.249  0.0069  0.5910  0.0129
  111CHL1  H18B14429   2.196   0.724  15.147 -1.6816  0.7735  0.5067
  111CHL1  H18C14430   2.094   0.596  15.080  1.5342 -0.3304 -1.1471
  111CHL1   C1214431   2.175   0.390  15.269 -0.2037 -0.4697  0.6272
  111CHL1  H12A14432   2.119   0.336  15.189  3.2870 -0.2120 -2.2329
  111CHL1  H12B14433   2.261   0.322  15.290 -0.5577 -1.3059 -0.4993
  111CHL1   C1114434   2.095   0.410  15.394 -0.3356  0.6572  0.1658
  111CHL1  H11A14435   2.011   0.475  15.361 -2.5502 -1.0214  2.1030
  111CHL1  H11B14436   2.056   0.310  15.425 -0.7270  1.0084  0.8207
  111CHL1    C914437   2.168   0.486  15.511  0.0038 -0.4545  0.1362
  111CHL1    H914438   2.250   0.421  15.549 -0.8389 -0.9595  1.1579
  111CHL1   C1014439   2.082   0.514  15.634 -0.3943  0.1470 -0.3532
  111CHL1   C1914440   1.944   0.565  15.599 -0.3055 -0.4875  0.3130
  111CHL1  H19A14441   1.874   0.493  15.550  0.8298 -1.6867  0.4043
  111CHL1  H19B14442   1.887   0.594  15.690 -1.6365  0.2145 -0.6984
  111CHL1  H19C14443   1.948   0.656  15.536 -0.1395  0.9454  2.3081
  111CHL1    C114444   2.058   0.379  15.699 -1.2074 -0.6242 -0.0736
  111CHL1   H1A14445   1.997   0.320  15.627 -0.2151 -1.0586 -0.5761
  111CHL1   H1B14446   2.150   0.323  15.725 -2.0652 -1.3660  1.4608
  111CHL1    C214447   1.993   0.377  15.845 -0.1390 -0.1933  0.2411
  111CHL1   H2A14448   1.974   0.277  15.888  0.0968  0.6530  2.4289
  111CHL1   H2B14449   1.900   0.435  15.825  1.0286  1.6169 -0.2730
  111CHL1   C2014450   2.343   0.506  14.973  0.2003  0.5907  0.5045
  111CHL1   H2014451   2.277   0.586  14.933  0.0687  0.3915  0.3158
  111CHL1   C2114452   2.268   0.377  14.944 -0.5607 -0.6419  0.0028
  111CHL1  H21A14453   2.169   0.374  14.994 -0.9986  2.0980 -0.5717
  111CHL1  H21B14454   2.321   0.287  14.982 -0.6809 -1.5842 -1.9418
  111CHL1  H21C14455   2.245   0.369  14.836 -0.6870 -1.0696  0.0622
  111CHL1   C2214456   2.474   0.496  14.892  0.8036 -0.3872  0.9296
  111CHL1  H22A14457   2.523   0.595  14.900  0.6512 -0.3424  1.2912
  111CHL1  H22B14458   2.541   0.426  14.946  0.5750 -1.5308 -0.2185
  111CHL1   C2314459   2.466   0.473  14.743 -0.2487 -0.7817  0.5409
  111CHL1  H23A14460   2.431   0.370  14.720 -1.4440  0.2016 -2.5251
  111CHL1  H23B14461   2.391   0.550  14.714  0.3475 -0.6862 -0.8185
  111CHL1   C2414462   2.602   0.480  14.678  0.7138 -0.0258  0.7672
  111CHL1  H24A14463   2.625   0.588  14.689  0.8021 -0.0260  0.5909
  111CHL1  H24B14464   2.673   0.419  14.737 -0.0460  0.1447  1.9034
  111CHL1   C2514465   2.612   0.444  14.526 -0.5161  0.0977 -0.0093
  111CHL1   H2514466   2.526   0.478  14.465  0.8441 -2.2650 -3.6190
  111CHL1   C2614467   2.729   0.503  14.457 -0.1152  0.2966  0.4194
  111CHL1  H26A14468   2.827   0.477  14.503 -0.4587 -2.0493 -0.0428
  111CHL1  H26B14469   2.740   0.482  14.349  0.0466 -0.7342  0.6206
  111CHL1  H26C14470   2.716   0.613  14.462  0.6414  0.3599  1.4061
  111CHL1   C2714471   2.621   0.291  14.510 -0.4128 -0.8974 -0.1850
  111CHL1  H27A14472   2.664   0.265  14.411  3.0214 -4.0174  1.8850
  111CHL1  H27B14473   2.695   0.241  14.576  1.6418  2.0940 -0.0104
  111CHL1  H27C14474   2.524   0.238  14.526  0.2558 -2.3739 -0.7669
  112CHL1    C314475   3.817   0.109  16.103  0.0335  1.2101 -0.1418
  112CHL1    H314476   3.707   0.103  16.086 -0.2081 -1.8596  1.6557
  112CHL1    O314477   3.842   0.120  16.245 -0.1718  0.6643 -0.1004
  112CHL1   H3'14478   3.895   0.042  16.264  1.2449  1.2260 -1.5413
  112CHL1    C414479   3.867  -0.021  16.035  0.2649 -0.7718  0.3082
  112CHL1   H4A14480   3.969  -0.029  16.080  0.3724  0.8326  0.3994
  112CHL1   H4B14481   3.806  -0.103  16.080 -0.9123 -0.3584 -0.5192
  112CHL1    C514482   3.869  -0.023  15.885 -0.8414 -0.1457  0.0157
  112CHL1    C614483   3.827  -0.128  15.810  0.9537 -0.0204 -0.4550
  112CHL1    H614484   3.778  -0.217  15.853  2.1388 -1.0921 -1.2518
  112CHL1    C714485   3.819  -0.130  15.659 -0.0182 -0.6139  0.3824
  112CHL1   H7A14486   3.864  -0.225  15.623 -2.3594 -0.6724 -2.8097
  112CHL1   H7B14487   3.716  -0.135  15.618 -0.0646  0.7797  0.2932
  112CHL1    C814488   3.904  -0.013  15.597  0.8203  0.3273  0.4873
  112CHL1    H814489   4.013  -0.037  15.597  0.6831 -0.3562  1.6636
  112CHL1   C1414490   3.860   0.004  15.445 -1.0687 -0.5670  1.1380
  112CHL1   H1414491   3.751   0.026  15.449 -0.9164  1.0737 -1.3263
  112CHL1   C1514492   3.873  -0.120  15.360 -0.8316  0.0524  0.4430
  112CHL1  H15A14493   3.972  -0.165  15.382  0.5409  3.9896  3.7766
  112CHL1  H15B14494   3.790  -0.191  15.378 -0.2472 -0.9917 -0.8516
  112CHL1   C1614495   3.874  -0.064  15.211 -0.1781  0.4444 -0.0878
  112CHL1  H16A14496   3.966  -0.111  15.171  0.7850  1.1941  1.1782
  112CHL1  H16B14497   3.779  -0.100  15.166  0.0796  0.5474 -0.7311
  112CHL1   C1714498   3.875   0.095  15.225 -0.3835  0.3343 -0.4791
  112CHL1   H1714499   3.766   0.115  15.220 -0.3071  1.1273  0.7151
  112CHL1   C1314500   3.923   0.123  15.368  0.4850 -0.2540 -0.6050
  112CHL1   C1814501   4.079   0.119  15.368  0.4072 -0.7117 -0.1862
  112CHL1  H18A14502   4.111   0.130  15.474 -1.9674  0.3145  0.4757
  112CHL1  H18B14503   4.111   0.027  15.315 -1.1371 -0.6941 -1.2081
  112CHL1  H18C14504   4.118   0.207  15.313 -1.1746 -0.1341 -0.4250
  112CHL1   C1214505   3.876   0.256  15.438 -0.2758  0.4190 -0.5067
  112CHL1  H12A14506   3.933   0.342  15.398  2.2129 -0.7898  0.2232
  112CHL1  H12B14507   3.766   0.262  15.423 -0.2304  0.9777 -0.6087
  112CHL1   C1114508   3.903   0.250  15.591  0.4491  0.1182  0.4804
  112CHL1  H11A14509   4.011   0.277  15.605  0.4367  0.2867  0.2621
  112CHL1  H11B14510   3.841   0.335  15.629 -2.8794 -1.9257 -0.0250
  112CHL1    C914511   3.872   0.115  15.669  0.0559 -0.4270 -0.1236
  112CHL1    H914512   3.761   0.117  15.670  0.0354  1.5291  1.2798
  112CHL1   C1014513   3.919   0.108  15.815 -0.9475 -0.2909 -0.2004
  112CHL1   C1914514   4.074   0.104  15.822 -0.2713 -0.1803 -0.7436
  112CHL1  H19A14515   4.116   0.194  15.771 -0.4887 -1.2045 -2.8275
  112CHL1  H19B14516   4.105   0.097  15.928 -0.7005  2.1816 -0.3850
  112CHL1  H19C14517   4.112   0.018  15.765  0.4326  1.0054 -2.1190
  112CHL1    C114518   3.856   0.231  15.886 -0.2553 -0.2290 -0.4334
  112CHL1   H1A14519   3.904   0.322  15.845 -0.5984  0.3069  0.3410
  112CHL1   H1B14520   3.749   0.226  15.856 -0.8000 -1.3711  1.4821
  112CHL1    C214521   3.877   0.231  16.033  0.0610 -0.5417 -0.3584
  112CHL1   H2A14522   3.839   0.323  16.084  0.1048 -2.1539  2.8558
  112CHL1   H2B14523   3.984   0.229  16.062 -0.5283 -0.4057  2.0544
  112CHL1   C2014524   3.939   0.162  15.101 -0.2587 -0.5602 -0.5287
  112CHL1   H2014525   4.050   0.152  15.099 -0.2563 -0.7899  0.3379
  112CHL1   C2114526   3.897   0.307  15.115 -0.5968 -0.0803  0.0631
  112CHL1  H21A14527   3.932   0.371  15.032 -0.1659  0.7041  0.8254
  112CHL1  H21B14528   3.949   0.354  15.202  0.7649 -1.6704  0.1668
  112CHL1  H21C14529   3.786   0.308  15.113 -0.6135 -0.4106  0.5595
  112CHL1   C2214530   3.892   0.100  14.972 -0.5013  0.9256 -0.9189
  112CHL1  H22A14531   3.912  -0.009  14.968  0.5082  1.1025 -0.7025
  112CHL1  H22B14532   3.781   0.104  14.964 -0.6141  1.9896  0.7349
  112CHL1   C2314533   3.959   0.165  14.851 -0.8123 -0.6367 -0.3245
  112CHL1  H23A14534   3.894   0.254  14.834  1.1044  0.8978  0.0411
  112CHL1  H23B14535   4.064   0.195  14.873 -0.9471  0.7563 -1.3950
  112CHL1   C2414536   3.951   0.073  14.723  0.4955 -0.1898  0.1478
  112CHL1  H24A14537   4.015  -0.014  14.749 -0.1289 -0.6257  0.2598
  112CHL1  H24B14538   3.846   0.038  14.722 -0.3564  1.9764  2.6466
  112CHL1   C2514539   3.986   0.146  14.589  0.1085  0.3769 -0.0809
  112CHL1   H2514540   4.086   0.194  14.602  0.9328 -1.2837 -0.0465
  112CHL1   C2614541   4.024   0.039  14.483  0.0893 -0.2171  0.1569
  112CHL1  H26A14542   4.088  -0.044  14.522  0.4789  0.7156  1.5875
  112CHL1  H26B14543   3.935  -0.011  14.440 -1.2497  2.0271  0.2021
  112CHL1  H26C14544   4.074   0.085  14.395 -2.7408 -0.3424 -1.6286
  112CHL1   C2714545   3.877   0.230  14.534 -0.0791  0.6594  0.3548
  112CHL1  H27A14546   3.784   0.173  14.513 -0.0547 -0.5812  3.0987
  112CHL1  H27B14547   3.869   0.314  14.607  0.6721  1.3931 -0.3802
  112CHL1  H27C14548   3.922   0.271  14.441  1.7865  0.6643  1.2073
  113CHL1    C314549   0.741   4.101  16.033 -0.2525 -0.0255  0.4457
  113CHL1    H314550   0.717   4.004  15.983 -0.2709  0.2943 -0.1765
  113CHL1    O314551   0.762   4.083  16.169 -0.3838 -0.4398  0.0197
  113CHL1   H3'14552   0.836   4.023  16.176 -0.7617 -1.4283 -3.0513
  113CHL1    C414553   0.870   4.166  15.967  0.5387 -0.1163  0.3986
  113CHL1   H4A14554   0.896   4.257  16.024  0.5698 -0.1809  0.4872
  113CHL1   H4B14555   0.960   4.101  15.979  2.1752  1.3026 -2.8697
  113CHL1    C514556   0.850   4.192  15.822  0.6315  0.1917 -0.4190
  113CHL1    C614557   0.936   4.137  15.737 -0.0466 -0.4362  0.2293
  113CHL1    H614558   1.018   4.079  15.781 -0.8539  0.5978  3.3318
  113CHL1    C714559   0.926   4.155  15.589 -0.3182  0.0946  0.1111
  113CHL1   H7A14560   1.030   4.170  15.552  1.1497 -2.0339  2.9915
  113CHL1   H7B14561   0.907   4.058  15.538  1.6912 -0.5246  0.4172
  113CHL1    C814562   0.830   4.272  15.547  0.2707 -0.4035  0.4520
  113CHL1    H814563   0.879   4.369  15.568  1.6156 -0.9160 -0.1925
  113CHL1   C1414564   0.803   4.267  15.405  0.1797 -0.3893  0.2921
  113CHL1   H1414565   0.761   4.168  15.377 -0.7580 -0.0140  0.3250
  113CHL1   C1514566   0.934   4.267  15.314  0.7138  0.5807 -0.2716
  113CHL1  H15A14567   0.999   4.354  15.335  1.1911 -0.2327  1.8471
  113CHL1  H15B14568   0.997   4.176  15.316 -0.3239 -0.1491  1.6387
  113CHL1   C1614569   0.867   4.285  15.177  0.1809 -0.2599 -0.4261
  113CHL1  H16A14570   0.910   4.360  15.107 -2.2275  0.2731 -1.4133
  113CHL1  H16B14571   0.853   4.190  15.122 -0.8595 -1.1443  1.2866
  113CHL1   C1714572   0.715   4.334  15.196  0.5946 -0.4272 -0.2634
  113CHL1   H1714573   0.650   4.244  15.187 -0.4878  0.5063 -3.0904
  113CHL1   C1314574   0.708   4.370  15.347 -0.7272  0.1586  0.0128
  113CHL1   C1814575   0.769   4.505  15.372  0.4785 -0.2936 -0.1205
  113CHL1  H18A14576   0.778   4.522  15.482  3.6081 -0.4091 -0.2638
  113CHL1  H18B14577   0.872   4.513  15.331  2.4876 -2.7452  3.8510
  113CHL1  H18C14578   0.699   4.582  15.332 -2.7489 -1.1801  3.2121
  113CHL1   C1214579   0.575   4.343  15.416  0.1874  0.4817  0.3420
  113CHL1  H12A14580   0.504   4.424  15.390 -0.3092 -0.0557  0.0047
  113CHL1  H12B14581   0.538   4.246  15.377 -0.1412  0.3515  0.9711
  113CHL1   C1114582   0.578   4.349  15.576  0.2226  0.7086  0.5217
  113CHL1  H11A14583   0.592   4.457  15.600 -0.0338  0.8076  0.2221
  113CHL1  H11B14584   0.486   4.306  15.620 -0.0380 -0.1542 -0.8237
  113CHL1    C914585   0.697   4.262  15.632 -0.6293  0.4197 -0.5165
  113CHL1    H914586   0.656   4.160  15.620 -0.4028  0.2593 -0.0011
  113CHL1   C1014587   0.720   4.265  15.786 -0.5204 -0.7277 -0.4988
  113CHL1   C1914588   0.735   4.411  15.830 -0.3036 -0.5405  0.1190
  113CHL1  H19A14589   0.758   4.412  15.939 -0.6054  1.7018  0.2083
  113CHL1  H19B14590   0.818   4.457  15.771 -3.3807  2.3659 -2.3415
  113CHL1  H19C14591   0.633   4.453  15.820 -0.6179 -1.1652  0.6664
  113CHL1    C114592   0.595   4.205  15.855 -0.1421 -0.1576  0.1650
  113CHL1   H1A14593   0.513   4.279  15.843  0.6444  1.4029  3.1764
  113CHL1   H1B14594   0.559   4.119  15.795  0.6856  1.1975 -2.3869
  113CHL1    C214595   0.614   4.181  16.006 -0.2005 -0.4438  0.5409
  113CHL1   H2A14596   0.528   4.120  16.042 -0.8158 -0.2332 -0.5536
  113CHL1   H2B14597   0.613   4.279  16.058 -3.5924  0.0971 -0.2766
  113CHL1   C2014598   0.669   4.439  15.086  0.3173  0.6754 -0.0507
  113CHL1   H2014599   0.728   4.532  15.102 -1.2977  1.6335  0.6248
  113CHL1   C2114600   0.526   4.473  15.100  0.7949 -0.3931  0.8492
  113CHL1  H21A14601   0.513   4.532  15.194 -1.3974 -0.6394  0.7573
  113CHL1  H21B14602   0.461   4.384  15.115 -1.2290  0.8163 -0.2484
  113CHL1  H21C14603   0.494   4.530  15.010  1.9036 -1.4845 -0.2759
  113CHL1   C2214604   0.692   4.382  14.945  0.2030  0.2839  0.1543
  113CHL1  H22A14605   0.792   4.333  14.942  0.1915  0.2889 -0.4496
  113CHL1  H22B14606   0.620   4.300  14.927 -0.2108  1.1252 -2.4857
  113CHL1   C2314607   0.670   4.482  14.826  0.5205 -0.2430  0.3135
  113CHL1  H23A14608   0.572   4.533  14.833  0.7111  0.4825 -1.7335
  113CHL1  H23B14609   0.741   4.567  14.836 -1.4354  1.2683  2.5125
  113CHL1   C2414610   0.686   4.409  14.693 -0.1058 -0.4752 -0.1712
  113CHL1  H24A14611   0.609   4.331  14.676 -0.2130 -0.1063 -1.4471
  113CHL1  H24B14612   0.674   4.471  14.601 -1.4707 -0.9583 -0.3417
  113CHL1   C2514613   0.819   4.336  14.665  0.1056 -0.3464 -0.3211
  113CHL1   H2514614   0.817   4.249  14.735 -2.8964  2.8393  4.0618
  113CHL1   C2614615   0.820   4.259  14.532 -0.2387  0.3111  0.0198
  113CHL1  H26A14616   0.920   4.213  14.513 -0.8882 -0.2010 -2.6098
  113CHL1  H26B14617   0.737   4.191  14.501 -0.8678  1.9428 -2.1100
  113CHL1  H26C14618   0.813   4.335  14.452 -0.0568 -0.1799 -0.4714
  113CHL1   C2714619   0.947   4.427  14.686  0.3613  0.6573 -0.1210
  113CHL1  H27A14620   0.949   4.484  14.781  1.5310  1.3366 -0.5323
  113CHL1  H27B14621   1.032   4.360  14.661  1.1749  2.0710 -1.3526
  113CHL1  H27C14622   0.935   4.505  14.607 -1.4568  0.2119 -0.3462
  114CHL1    C314623   3.594   5.337  16.320  0.6298  0.6236 -0.2514
  114CHL1    H314624   3.690   5.289  16.291  0.6855  1.6730 -1.8810
  114CHL1    O314625   3.569   5.347  16.463 -0.2666  0.6625  0.6171
  114CHL1   H3'14626   3.489   5.398  16.474 -0.4406  0.0751  2.4301
  114CHL1    C414627   3.579   5.475  16.260 -0.1739  0.3794  0.1914
  114CHL1   H4A14628   3.475   5.502  16.290 -0.4338 -2.3242  2.0452
  114CHL1   H4B14629   3.645   5.552  16.306 -1.8631  2.3669 -0.5543
  114CHL1    C514630   3.589   5.455  16.106 -0.2545  0.2588  0.0319
  114CHL1    C614631   3.687   5.525  16.047 -0.6681  0.4575  0.0493
  114CHL1    H614632   3.741   5.593  16.113 -0.4359  0.6017 -0.2856
  114CHL1    C714633   3.711   5.525  15.896  1.0016 -0.5234  0.3588
  114CHL1   H7A14634   3.728   5.628  15.857  1.2505 -1.1361 -1.2315
  114CHL1   H7B14635   3.805   5.472  15.871  2.8194  3.3302 -1.9305
  114CHL1    C814636   3.586   5.468  15.823  0.4586  0.0607  0.3729
  114CHL1    H814637   3.505   5.544  15.824 -0.8890 -1.3424  0.0314
  114CHL1   C1414638   3.624   5.440  15.687  0.0298 -1.4310  0.3581
  114CHL1   H1414639   3.699   5.358  15.689  1.0203 -0.5429  2.0642
  114CHL1   C1514640   3.698   5.540  15.599  0.3050 -0.4728  0.4124
  114CHL1  H15A14641   3.637   5.633  15.610 -1.8134 -1.9253  1.6677
  114CHL1  H15B14642   3.806   5.563  15.610  0.0863  0.7922  0.1223
  114CHL1   C1614643   3.669   5.501  15.445  0.3035 -0.3495 -0.2330
  114CHL1  H16A14644   3.629   5.595  15.402 -0.4578 -1.0434 -1.0933
  114CHL1  H16B14645   3.763   5.472  15.393  0.3666  1.0739 -0.9651
  114CHL1   C1714646   3.569   5.385  15.453 -0.1587  0.2491  0.5899
  114CHL1   H1714647   3.631   5.294  15.467  0.2727  0.0657 -2.0819
  114CHL1   C1314648   3.505   5.395  15.599  0.3626 -0.2904  0.2363
  114CHL1   C1814649   3.390   5.499  15.591 -0.3412  0.6863 -0.6518
  114CHL1  H18A14650   3.420   5.581  15.523 -2.0058  1.6873 -0.2116
  114CHL1  H18B14651   3.302   5.441  15.554  1.8524 -3.6540  0.2749
  114CHL1  H18C14652   3.362   5.546  15.687 -1.0089  1.6754 -1.3106
  114CHL1   C1214653   3.455   5.257  15.651  0.1073 -0.2823  0.2335
  114CHL1  H12A14654   3.369   5.215  15.595  1.0166 -2.4511  0.3532
  114CHL1  H12B14655   3.543   5.190  15.642  0.9857  0.8606  0.0979
  114CHL1   C1114656   3.428   5.268  15.801 -0.0494  0.3973  0.7699
  114CHL1  H11A14657   3.325   5.304  15.823  0.6828  3.4626 -0.3058
  114CHL1  H11B14658   3.420   5.158  15.812 -2.1905  0.3829 -0.2777
  114CHL1    C914659   3.537   5.338  15.887  1.1068 -0.9050  0.4368
  114CHL1    H914660   3.624   5.270  15.890  1.1364 -0.8964 -0.1238
  114CHL1   C1014661   3.493   5.357  16.037  0.5021 -0.0897  0.8724
  114CHL1   C1914662   3.361   5.425  16.041  0.5571 -0.2260 -0.3423
  114CHL1  H19A14663   3.357   5.521  15.985  0.6547 -1.0917 -1.8808
  114CHL1  H19B14664   3.270   5.369  16.011  0.6597 -2.2588  2.6791
  114CHL1  H19C14665   3.331   5.436  16.148 -1.3054 -2.0528 -0.6196
  114CHL1    C114666   3.486   5.223  16.111 -0.0222  0.7719  0.0429
  114CHL1   H1A14667   3.393   5.169  16.083 -0.7989  1.5311  1.0649
  114CHL1   H1B14668   3.577   5.164  16.086 -1.2534 -0.4742 -1.6691
  114CHL1    C214669   3.482   5.243  16.262 -0.0730 -0.5479  0.6920
  114CHL1   H2A14670   3.485   5.144  16.312  0.2669 -0.4289  0.9125
  114CHL1   H2B14671   3.383   5.285  16.288 -0.7440 -1.8706  0.3646
  114CHL1   C2014672   3.479   5.357  15.333 -0.1399 -0.3564  0.2751
  114CHL1   H2014673   3.384   5.317  15.375  0.3078 -0.5354  1.1525
  114CHL1   C2114674   3.524   5.229  15.261 -0.4039 -0.4713 -1.1912
  114CHL1  H21A14675   3.513   5.142  15.329  1.6937  0.6942  0.7459
  114CHL1  H21B14676   3.628   5.226  15.220 -0.8602  1.0056 -2.5782
  114CHL1  H21C14677   3.458   5.206  15.174 -2.0423 -0.3975 -0.0149
  114CHL1   C2214678   3.446   5.475  15.242 -0.4226  0.3342  0.1549
  114CHL1  H22A14679   3.434   5.564  15.307 -0.4429 -1.1717  2.2959
  114CHL1  H22B14680   3.533   5.488  15.174 -1.3907  3.2182 -0.6989
  114CHL1   C2314681   3.302   5.463  15.173 -0.3914 -0.0648  0.3641
  114CHL1  H23A14682   3.299   5.367  15.117  1.7859  0.3805 -0.6216
  114CHL1  H23B14683   3.228   5.462  15.255  0.2092 -0.1468  0.9149
  114CHL1   C2414684   3.264   5.577  15.079  0.0258 -0.4160 -0.4925
  114CHL1  H24A14685   3.156   5.559  15.062 -0.4225 -1.7252  2.9330
  114CHL1  H24B14686   3.278   5.669  15.139 -0.3065 -0.1463 -0.8226
  114CHL1   C2514687   3.343   5.593  14.956  0.5035 -0.9415 -0.0184
  114CHL1   H2514688   3.453   5.587  14.975  1.2349  0.7137 -2.9994
  114CHL1   C2614689   3.306   5.487  14.852 -0.2387  0.0284  0.5967
  114CHL1  H26A14690   3.205   5.512  14.814  0.6008  2.3973 -0.2941
  114CHL1  H26B14691   3.383   5.486  14.772  0.2633  1.2259  1.0427
  114CHL1  H26C14692   3.298   5.381  14.885  2.3562 -1.1742 -2.1346
  114CHL1   C2714693   3.325   5.739  14.900  0.2116 -0.4200 -0.0169
  114CHL1  H27A14694   3.361   5.816  14.971 -0.0057  0.3397 -0.7187
  114CHL1  H27B14695   3.381   5.746  14.805 -1.2501 -0.9224 -0.9585
  114CHL1  H27C14696   3.218   5.746  14.872 -0.0020 -0.7235  0.6924
  115CHL1    C314697   0.839   1.106  15.799  0.2442  0.1062  0.2845
  115CHL1    H314698   0.829   1.213  15.768 -0.7290 -0.4855 -1.6028
  115CHL1    O314699   0.783   1.098  15.932  0.3491  0.2301  0.4467
  115CHL1   H3'14700   0.838   1.159  15.981  0.0327  0.5798  0.3692
  115CHL1    C414701   0.759   1.028  15.686 -0.1209 -0.0035 -0.2045
  115CHL1   H4A14702   0.738   0.921  15.708 -1.9841  0.5267  0.8218
  115CHL1   H4B14703   0.657   1.072  15.678  0.3933  1.2045 -0.3664
  115CHL1    C514704   0.841   1.043  15.556 -0.2569  0.4687 -0.4370
  115CHL1    C614705   0.777   1.096  15.447  0.0443  0.4970 -1.2280
  115CHL1    H614706   0.671   1.122  15.460  0.0910 -0.1623  0.8072
  115CHL1    C714707   0.842   1.122  15.316  0.5618  0.1424 -0.4772
  115CHL1   H7A14708   0.766   1.111  15.236  0.0852  1.0728 -0.1593
  115CHL1   H7B14709   0.883   1.224  15.306 -1.5054  0.8449 -2.4788
  115CHL1    C814710   0.969   1.032  15.298  0.1641  0.1742  0.1487
  115CHL1    H814711   0.943   0.924  15.290  2.2998 -0.2423 -3.1280
  115CHL1   C1414712   1.037   1.078  15.168 -0.1867 -0.1885 -0.1986
  115CHL1   H1414713   1.069   1.183  15.179  0.0779 -0.2653 -0.2216
  115CHL1   C1514714   0.960   1.077  15.033 -0.1117  0.2816  0.4485
  115CHL1  H15A14715   0.891   0.990  15.030 -0.9487  0.9001  1.0251
  115CHL1  H15B14716   0.893   1.166  15.026 -2.1647 -1.0060  2.2594
  115CHL1   C1614717   1.064   1.070  14.926  0.7567 -0.1612 -0.6207
  115CHL1  H16A14718   1.051   0.975  14.870 -1.2342 -1.0987  1.3006
  115CHL1  H16B14719   1.058   1.151  14.851  1.1185 -1.2096 -1.8235
  115CHL1   C1714720   1.199   1.074  14.998 -0.1729  0.0961  0.2303
  115CHL1   H1714721   1.226   1.181  15.012  1.5306 -0.5857  2.7105
  115CHL1   C1314722   1.169   1.007  15.138 -0.1968 -0.2274 -0.4695
  115CHL1   C1814723   1.145   0.856  15.119  0.4428  0.5865 -0.4280
  115CHL1  H18A14724   1.243   0.803  15.123  0.2282  0.2715  1.3402
  115CHL1  H18B14725   1.087   0.809  15.201 -1.6992 -0.7682 -2.5955
  115CHL1  H18C14726   1.081   0.825  15.033  0.3562 -0.0973 -0.1229
  115CHL1   C1214727   1.265   1.028  15.258  0.2354 -0.1337 -0.6394
  115CHL1  H12A14728   1.356   0.968  15.234  1.4226  1.6767 -0.8148
  115CHL1  H12B14729   1.284   1.137  15.270  0.3943 -0.2832  0.6886
  115CHL1   C1114730   1.197   0.980  15.388 -0.6376 -0.3704 -0.3468
  115CHL1  H11A14731   1.193   0.870  15.377  0.1887 -0.2699 -1.8903
  115CHL1  H11B14732   1.277   0.993  15.464  0.2657  1.4168 -1.5357
  115CHL1    C914733   1.058   1.047  15.418 -0.4799 -0.5297 -0.6075
  115CHL1    H914734   1.075   1.157  15.422 -0.2380 -0.4467 -2.5864
  115CHL1   C1014735   0.988   1.009  15.554  0.3086  0.0831  0.1943
  115CHL1   C1914736   1.010   0.857  15.572  0.1245  0.2379 -0.7156
  115CHL1  H19A14737   0.939   0.814  15.645 -2.0267  0.7656 -2.3947
  115CHL1  H19B14738   0.998   0.800  15.477 -0.3632 -2.2295  0.7474
  115CHL1  H19C14739   1.115   0.840  15.603  0.0936  1.9106  0.4382
  115CHL1    C114740   1.056   1.085  15.672  0.5936 -0.1495 -0.9170
  115CHL1   H1A14741   1.163   1.054  15.666  1.1714  1.7169 -0.7433
  115CHL1   H1B14742   1.067   1.192  15.647  1.8657  0.8133  3.0289
  115CHL1    C214743   0.991   1.061  15.806  0.2630  0.7694  0.3155
  115CHL1   H2A14744   1.036   1.125  15.885 -2.0792  0.8633  1.6459
  115CHL1   H2B14745   1.001   0.954  15.833  4.3294  1.1832  1.1908
  115CHL1   C2014746   1.301   1.012  14.902  0.1781 -0.3959 -0.0644
  115CHL1   H2014747   1.285   0.903  14.901 -1.1845 -0.2038 -0.6082
  115CHL1   C2114748   1.437   1.027  14.962 -0.3528  0.1618 -0.5788
  115CHL1  H21A14749   1.438   0.970  15.056  0.6597  2.9946  1.2659
  115CHL1  H21B14750   1.459   1.135  14.977 -2.3555  0.8236 -1.9073
  115CHL1  H21C14751   1.516   0.984  14.897 -0.1783 -1.9612  0.9765
  115CHL1   C2214752   1.303   1.066  14.753 -0.7890 -0.2065 -0.3773
  115CHL1  H22A14753   1.199   1.060  14.716 -0.1386 -2.2604 -2.1308
  115CHL1  H22B14754   1.340   1.170  14.747 -1.3009  0.0234  0.3875
  115CHL1   C2314755   1.374   0.977  14.646 -0.1966  0.3360  0.1001
  115CHL1  H23A14756   1.483   0.981  14.670 -0.4862 -0.9597  1.8525
  115CHL1  H23B14757   1.328   0.875  14.646  1.8802 -0.6800  1.8987
  115CHL1   C2414758   1.348   1.028  14.498  0.0971 -0.8012 -0.1234
  115CHL1  H24A14759   1.238   1.017  14.485  0.1008 -0.2680 -0.6673
  115CHL1  H24B14760   1.360   1.139  14.493  0.0168 -0.8470 -1.8618
  115CHL1   C2514761   1.412   0.962  14.375 -0.0956  0.4316  0.0306
  115CHL1   H2514762   1.390   0.853  14.380 -1.6280  0.7437  0.7323
  115CHL1   C2614763   1.352   1.017  14.245  0.4330 -0.0944  0.2531
  115CHL1  H26A14764   1.345   1.127  14.249 -1.0424 -0.0557 -1.7444
  115CHL1  H26B14765   1.421   0.989  14.163  1.4707 -0.2078  1.1460
  115CHL1  H26C14766   1.249   0.978  14.229  1.1584 -1.2165 -2.1992
  115CHL1   C2714767   1.565   0.981  14.379 -0.3597 -0.0335  0.3235
  115CHL1  H27A14768   1.604   0.946  14.477 -1.9772 -1.5310  0.4725
  115CHL1  H27B14769   1.604   0.926  14.290  0.7852  0.9900  0.1635
  115CHL1  H27C14770   1.595   1.087  14.364 -0.1733  0.0785  1.4273
  116CHL1    C314771   3.275   0.573  16.198  0.7517  0.1252 -0.5045
  116CHL1    H314772   3.311   0.468  16.193  1.2859  0.2420  0.5518
  116CHL1    O314773   3.242   0.600  16.328 -0.1116 -0.0464  0.5039
  116CHL1   H3'14774   3.267   0.691  16.347 -2.4158  0.6142  0.7776
  116CHL1    C414775   3.387   0.671  16.154 -0.5598 -0.3742 -0.1246
  116CHL1   H4A14776   3.368   0.774  16.191  0.8506  0.0598 -0.5319
  116CHL1   H4B14777   3.474   0.641  16.215  0.9954  0.3366 -1.8997
  116CHL1    C514778   3.422   0.652  15.999  1.3303 -0.1437 -0.5359
  116CHL1    C614779   3.546   0.613  15.963 -0.1609  0.2503  0.8399
  116CHL1    H614780   3.625   0.589  16.036  0.0505 -0.5788  0.3502
  116CHL1    C714781   3.583   0.595  15.819 -0.2429 -0.6331 -0.6469
  116CHL1   H7A14782   3.677   0.649  15.795  0.0306 -1.4738 -1.5401
  116CHL1   H7B14783   3.609   0.489  15.796 -0.2176 -0.9273  0.6600
  116CHL1    C814784   3.477   0.660  15.715 -0.4080  0.2690 -0.4888
  116CHL1    H814785   3.502   0.767  15.700 -0.3475  0.2109 -0.8030
  116CHL1   C1414786   3.495   0.591  15.583 -0.8965  0.5173 -0.5179
  116CHL1   H1414787   3.482   0.482  15.601 -0.1519  0.8108  2.0670
  116CHL1   C1514788   3.637   0.604  15.519 -0.8842  0.2200 -0.3063
  116CHL1  H15A14789   3.665   0.710  15.535 -0.0592 -0.1340  0.7389
  116CHL1  H15B14790   3.701   0.525  15.566 -1.1318 -0.2589 -0.7618
  116CHL1   C1614791   3.601   0.569  15.381 -0.0147  0.2203  0.2260
  116CHL1  H16A14792   3.652   0.650  15.324  2.3350 -1.6431 -0.4955
  116CHL1  H16B14793   3.655   0.476  15.355 -0.1012  0.4985 -1.0147
  116CHL1   C1714794   3.447   0.562  15.350 -0.1781 -0.4011  0.0111
  116CHL1   H1714795   3.404   0.460  15.358 -0.4996 -0.1823  1.1887
  116CHL1   C1314796   3.394   0.635  15.476  0.7679 -0.2177 -0.0903
  116CHL1   C1814797   3.417   0.781  15.455 -0.7297 -0.1782 -0.2157
  116CHL1  H18A14798   3.343   0.814  15.379 -0.7250  0.7049  0.1519
  116CHL1  H18B14799   3.412   0.852  15.540 -1.9424 -0.2401 -0.2213
  116CHL1  H18C14800   3.515   0.813  15.412  0.3891 -3.2358 -0.1819
  116CHL1   C1214801   3.253   0.601  15.523  0.5085  0.2083 -0.1277
  116CHL1  H12A14802   3.184   0.650  15.452  0.0106 -0.1937  0.0713
  116CHL1  H12B14803   3.230   0.493  15.527 -1.2320  0.5831  1.4917
  116CHL1   C1114804   3.224   0.652  15.668  0.6845 -0.2761  0.0965
  116CHL1  H11A14805   3.218   0.762  15.665 -2.2018 -0.3622 -0.5817
  116CHL1  H11B14806   3.124   0.616  15.701  0.5328  0.1616  0.1089
  116CHL1    C914807   3.336   0.617  15.761  0.0452 -0.2859  0.4007
  116CHL1    H914808   3.337   0.507  15.771 -0.7371 -0.2441  1.0372
  116CHL1   C1014809   3.302   0.663  15.905  0.7198 -0.6256  0.0256
  116CHL1   C1914810   3.283   0.819  15.899 -0.2012 -0.4806  0.2609
  116CHL1  H19A14811   3.185   0.842  15.852  0.9138  0.6583 -1.6411
  116CHL1  H19B14812   3.291   0.875  15.995 -0.4660 -0.2240  0.1360
  116CHL1  H19C14813   3.367   0.869  15.846  0.1330  0.7529  1.8548
  116CHL1    C114814   3.184   0.587  15.956 -0.2866 -0.9046  0.4418
  116CHL1   H1A14815   3.093   0.621  15.903  0.8083 -1.2672 -1.7582
  116CHL1   H1B14816   3.195   0.479  15.933  0.1453 -1.0138  1.1203
  116CHL1    C214817   3.150   0.593  16.112  0.4254 -0.1173  0.6988
  116CHL1   H2A14818   3.082   0.508  16.132 -1.1648  1.5295  2.7426
  116CHL1   H2B14819   3.093   0.685  16.137  0.2343  0.1970 -0.8067
  116CHL1   C2014820   3.412   0.618  15.212 -0.2407  0.2806  0.5394
  116CHL1   H2014821   3.454   0.720  15.208 -0.5603  0.4293  0.9337
  116CHL1   C2114822   3.258   0.629  15.190  0.0449  0.1311 -0.0989
  116CHL1  H21A14823   3.213   0.528  15.202  0.4206 -0.1337 -0.8839
  116CHL1  H21B14824   3.225   0.678  15.097 -3.7878  0.0213  1.0275
  116CHL1  H21C14825   3.225   0.699  15.270  1.5444 -0.2628  0.9247
  116CHL1   C2214826   3.479   0.534  15.097  0.2104 -0.2106  0.2974
  116CHL1  H22A14827   3.586   0.549  15.122 -0.2664  0.3787  2.1581
  116CHL1  H22B14828   3.453   0.428  15.115 -0.3996 -0.3724 -1.3647
  116CHL1   C2314829   3.451   0.582  14.949  0.3261  0.0459 -0.2702
  116CHL1  H23A14830   3.342   0.570  14.930  0.0218 -0.5482  1.6473
  116CHL1  H23B14831   3.475   0.690  14.954 -2.8397  0.8112  0.4821
  116CHL1   C2414832   3.530   0.504  14.840 -0.3353 -0.0107  0.7550
  116CHL1  H24A14833   3.641   0.506  14.846 -0.1174  2.6270 -1.7475
  116CHL1  H24B14834   3.496   0.399  14.842 -0.4617 -0.0099 -0.5315
  116CHL1   C2514835   3.496   0.553  14.700  0.5984  0.6573  0.6043
  116CHL1   H2514836   3.387   0.547  14.682  0.6475 -0.5212  0.5715
  116CHL1   C2614837   3.542   0.689  14.677 -0.0469  0.4210 -0.1580
  116CHL1  H26A14838   3.652   0.689  14.687  0.0214  0.8451 -0.8112
  116CHL1  H26B14839   3.516   0.729  14.576 -4.3566  1.1135  0.9978
  116CHL1  H26C14840   3.504   0.760  14.753  1.9213  1.0184  0.3187
  116CHL1   C2714841   3.561   0.449  14.596  0.5685 -0.6642 -0.4692
  116CHL1  H27A14842   3.664   0.423  14.626 -0.0292 -0.9664  1.4609
  116CHL1  H27B14843   3.499   0.356  14.594  1.2076 -1.1096  0.0807
  116CHL1  H27C14844   3.558   0.483  14.490 -3.1990 -1.1103 -0.6601
  117CHL1    C314845   4.907   5.329  15.841  0.2449  0.4875  0.4189
  117CHL1    H314846   4.802   5.365  15.836 -0.3188 -1.0651  0.4053
  117CHL1    O314847   4.948   5.339  15.980 -0.0055  0.3165  0.2386
  117CHL1   H3'14848   5.041   5.319  15.970  0.1698  1.0277  0.3549
  117CHL1    C414849   4.920   5.181  15.786 -0.5278  0.0120  0.1284
  117CHL1   H4A14850   5.026   5.150  15.803 -0.1688  0.6929 -0.7471
  117CHL1   H4B14851   4.862   5.114  15.851  0.8562 -0.6682  0.7075
  117CHL1    C514852   4.906   5.167  15.632  0.2036 -0.0769  0.5033
  117CHL1    C614853   4.817   5.084  15.578  0.0892 -0.4394 -0.0510
  117CHL1    H614854   4.759   5.012  15.638  1.2711 -2.3383 -1.0941
  117CHL1    C714855   4.790   5.065  15.430  0.0596  0.5584  0.1835
  117CHL1   H7A14856   4.803   4.957  15.407  0.7919  0.9695 -1.5110
  117CHL1   H7B14857   4.689   5.106  15.407 -0.0797  0.3580  0.4337
  117CHL1    C814858   4.900   5.129  15.343 -0.1475 -0.4762  0.0757
  117CHL1    H814859   4.983   5.055  15.352 -0.9761 -1.8773 -2.7516
  117CHL1   C1414860   4.846   5.150  15.200 -0.1058  0.4313  0.2508
  117CHL1   H1414861   4.761   5.220  15.193 -1.1716 -0.9553 -1.8383
  117CHL1   C1514862   4.789   5.025  15.129 -0.0903  0.2921  0.3791
  117CHL1  H15A14863   4.848   4.937  15.160  0.3649 -0.1318 -1.5878
  117CHL1  H15B14864   4.679   5.023  15.141 -0.1142  2.6688  1.0366
  117CHL1   C1614865   4.819   5.047  14.979  0.4867  0.2806  0.1189
  117CHL1  H16A14866   4.880   4.970  14.927  0.1575  1.7690 -2.6635
  117CHL1  H16B14867   4.723   5.060  14.925  0.4938  0.4227  0.1402
  117CHL1   C1714868   4.889   5.188  14.964  0.3338  0.0670 -0.4589
  117CHL1   H1714869   4.809   5.266  14.963  1.8319  1.8066  2.4137
  117CHL1   C1314870   4.959   5.202  15.101  0.2996  0.6293 -0.4419
  117CHL1   C1814871   5.080   5.105  15.098  0.2228 -0.7790  0.5498
  117CHL1  H18A14872   5.058   5.009  15.045 -0.2340 -1.6264  2.2033
  117CHL1  H18B14873   5.166   5.151  15.045  1.4495 -0.6750  2.5425
  117CHL1  H18C14874   5.128   5.078  15.194  1.3261  0.1273  0.2713
  117CHL1   C1214875   4.993   5.340  15.150  0.0939 -0.3013 -0.7731
  117CHL1  H12A14876   5.074   5.391  15.094  0.0225  0.8027  0.0995
  117CHL1  H12B14877   4.907   5.410  15.144  0.1214 -0.3193 -1.4915
  117CHL1   C1114878   5.039   5.334  15.300 -0.9594  0.2572  0.0198
  117CHL1  H11A14879   5.133   5.274  15.299 -1.3285 -0.3390 -1.4838
  117CHL1  H11B14880   5.069   5.439  15.320  1.1919  0.0813 -1.9175
  117CHL1    C914881   4.937   5.268  15.395  0.4676  0.3859  0.2205
  117CHL1    H914882   4.844   5.329  15.392  1.4386  1.9075  0.6217
  117CHL1   C1014883   4.989   5.253  15.543 -0.2839 -0.6079 -0.6319
  117CHL1   C1914884   5.134   5.207  15.548 -0.7507 -0.6117 -0.5683
  117CHL1  H19A14885   5.171   5.194  15.653  1.8745 -1.2473 -1.4921
  117CHL1  H19B14886   5.141   5.108  15.498  1.5886 -0.2984 -0.9916
  117CHL1  H19C14887   5.203   5.279  15.499 -2.4218  0.6080 -1.2143
  117CHL1    C114888   4.968   5.398  15.607 -0.2312 -0.0637  0.0158
  117CHL1   H1A14889   5.042   5.457  15.550 -1.5463 -0.8281 -2.6656
  117CHL1   H1B14890   4.862   5.427  15.590 -0.5821 -1.2735  0.0514
  117CHL1    C214891   4.998   5.425  15.761 -0.2166  0.2000  0.2529
  117CHL1   H2A14892   4.975   5.531  15.784 -3.7328 -0.3146 -0.1969
  117CHL1   H2B14893   5.107   5.409  15.773 -0.2799 -0.3332  0.1811
  117CHL1   C2014894   4.971   5.197  14.832 -0.1178  0.1745 -0.0422
  117CHL1   H2014895   5.051   5.120  14.832  1.0293  1.3024  1.6389
  117CHL1   C2114896   5.049   5.333  14.828  0.5172 -0.9563  0.7419
  117CHL1  H21A14897   4.970   5.411  14.838  0.6538 -0.9965  2.3453
  117CHL1  H21B14898   5.100   5.340  14.729  0.5522  1.3446  0.8526
  117CHL1  H21C14899   5.129   5.343  14.904  0.3212  2.1187  0.6920
  117CHL1   C2214900   4.878   5.174  14.716 -0.7815  0.2283  0.3998
  117CHL1  H22A14901   4.846   5.067  14.716 -0.8474  0.2460 -0.0473
  117CHL1  H22B14902   4.793   5.245  14.713  0.3911  1.6674 -0.0397
  117CHL1   C2314903   4.932   5.198  14.573  0.1793 -0.3712 -0.1900
  117CHL1  H23A14904   4.971   5.302  14.569  2.0079 -0.8821  2.2941
  117CHL1  H23B14905   5.025   5.146  14.544  1.1641  3.0799 -4.2876
  117CHL1   C2414906   4.830   5.170  14.458  0.0037  0.0223  0.5213
  117CHL1  H24A14907   4.832   5.059  14.455  2.0182  0.0284 -2.5634
  117CHL1  H24B14908   4.728   5.197  14.492 -0.1341 -1.5194  1.4201
  117CHL1   C2514909   4.872   5.223  14.319 -0.5596  0.6154 -0.3763
  117CHL1   H2514910   4.980   5.206  14.300 -0.9760 -0.2233 -2.1552
  117CHL1   C2614911   4.796   5.145  14.208  0.2149  0.5347 -0.3263
  117CHL1  H26A14912   4.831   5.177  14.107 -0.6735  0.0816 -0.7908
  117CHL1  H26B14913   4.809   5.035  14.208 -2.2044  0.1922 -1.2851
  117CHL1  H26C14914   4.687   5.167  14.212 -0.3191 -1.2768 -2.6144
  117CHL1   C2714915   4.852   5.379  14.302 -0.2236 -0.1125 -0.8846
  117CHL1  H27A14916   4.900   5.416  14.209 -0.3245  3.1039  0.2279
  117CHL1  H27B14917   4.749   5.422  14.306 -0.3329 -0.3753 -0.7712
  117CHL1  H27C14918   4.913   5.430  14.379 -0.7072 -0.6660 -0.1194
  118CHL1    C314919   6.552   1.664  15.390  0.0037 -0.0855 -0.1446
  118CHL1    H314920   6.558   1.565  15.340  2.7740  0.9295 -2.0389
  118CHL1    O314921   6.566   1.644  15.532 -0.0859  0.1898 -0.1336
  118CHL1   H3'14922   6.613   1.721  15.564 -0.8154  0.5282  0.1270
  118CHL1    C414923   6.672   1.743  15.343  0.3219 -0.0826  0.5577
  118CHL1   H4A14924   6.678   1.841  15.394  2.8592  1.1115 -1.7711
  118CHL1   H4B14925   6.764   1.688  15.371  0.8713  1.3687  1.7041
  118CHL1    C514926   6.664   1.762  15.190  0.1020 -0.2741  0.0071
  118CHL1    C614927   6.763   1.710  15.108  1.0054 -0.2366  0.4214
  118CHL1    H614928   6.858   1.679  15.154  0.7094 -0.2627  1.0195
  118CHL1    C714929   6.758   1.725  14.956 -0.6958 -0.3269 -0.8557
  118CHL1   H7A14930   6.856   1.761  14.919  0.0081 -1.8068 -0.4926
  118CHL1   H7B14931   6.746   1.630  14.899  1.3704 -1.4975  0.5096
  118CHL1    C814932   6.649   1.822  14.910  0.9172  0.1334 -0.4889
  118CHL1    H814933   6.690   1.924  14.922 -1.3028  1.0714 -0.5106
  118CHL1   C1414934   6.632   1.807  14.759  0.1627 -0.0324  0.3473
  118CHL1   H1414935   6.597   1.703  14.743 -1.0873  0.6060 -1.3045
  118CHL1   C1514936   6.754   1.818  14.661  0.2953  0.4232  0.2185
  118CHL1  H15A14937   6.823   1.902  14.682  2.1587 -0.8935 -0.3635
  118CHL1  H15B14938   6.807   1.720  14.664 -1.0927 -0.3509  0.1014
  118CHL1   C1614939   6.694   1.859  14.523  0.3568 -0.1178  0.0107
  118CHL1  H16A14940   6.735   1.955  14.485 -0.3484 -0.8736 -2.9063
  118CHL1  H16B14941   6.727   1.782  14.450  0.6302  0.0643 -0.0602
  118CHL1   C1714942   6.541   1.873  14.542 -0.1635  0.0684  0.1626
  118CHL1   H1714943   6.501   1.772  14.517  0.1785  0.4040 -1.9446
  118CHL1   C1314944   6.522   1.899  14.698  0.0953  0.1233 -0.5706
  118CHL1   C1814945   6.563   2.047  14.733 -0.7289  0.4223 -0.1542
  118CHL1  H18A14946   6.664   2.071  14.694 -0.5340 -1.0580 -0.6115
  118CHL1  H18B14947   6.501   2.132  14.698  1.3133  1.8710 -0.4899
  118CHL1  H18C14948   6.570   2.064  14.843  1.9146  2.4333 -0.5088
  118CHL1   C1214949   6.387   1.851  14.761  0.0031 -0.2995  0.9804
  118CHL1  H12A14950   6.304   1.908  14.714  1.1170 -0.5150 -1.3569
  118CHL1  H12B14951   6.382   1.745  14.729 -2.0300 -0.2448  0.9447
  118CHL1   C1114952   6.393   1.867  14.918  0.1147  0.8373  0.0568
  118CHL1  H11A14953   6.381   1.976  14.939  1.8429  1.0987 -0.2120
  118CHL1  H11B14954   6.304   1.829  14.973 -0.7868  2.0007 -0.5458
  118CHL1    C914955   6.518   1.801  14.982  0.1942  0.8741 -0.0305
  118CHL1    H914956   6.502   1.692  14.968 -1.8554  1.2161 -0.6835
  118CHL1   C1014957   6.528   1.823  15.137 -0.1293 -0.6865  0.6396
  118CHL1   C1914958   6.514   1.974  15.157 -0.1059 -0.2881 -0.2910
  118CHL1  H19A14959   6.545   1.999  15.260  0.6712  1.7541 -0.9760
  118CHL1  H19B14960   6.587   2.012  15.081 -0.1209 -2.0416 -1.2439
  118CHL1  H19C14961   6.413   2.017  15.144  1.2416  3.0550 -0.6112
  118CHL1    C114962   6.413   1.764  15.213  0.8257  0.0630 -0.0183
  118CHL1   H1A14963   6.314   1.811  15.195  0.8733  1.0291  1.9165
  118CHL1   H1B14964   6.401   1.662  15.173  2.6760 -0.3703  0.4562
  118CHL1    C214965   6.425   1.745  15.364  0.5332  0.3080  0.0872
  118CHL1   H2A14966   6.337   1.691  15.406  1.5883  0.0874  2.1391
  118CHL1   H2B14967   6.429   1.845  15.412 -0.3059  0.4311 -0.0811
  118CHL1   C2014968   6.478   1.975  14.443  0.0587  0.7015  0.1050
  118CHL1   H2014969   6.520   2.075  14.468 -1.0503  1.0758  0.5217
  118CHL1   C2114970   6.326   1.983  14.453  0.5866  0.3131 -0.1510
  118CHL1  H21A14971   6.285   2.048  14.373  0.9083  0.4925 -0.1724
  118CHL1  H21B14972   6.303   2.043  14.543  0.7570 -0.5548  0.4901
  118CHL1  H21C14973   6.285   1.879  14.449  1.9141 -0.2341 -0.1123
  118CHL1   C2214974   6.515   1.936  14.300 -0.2955 -0.2972  0.9058
  118CHL1  H22A14975   6.622   1.913  14.281 -0.3262 -0.3995  0.8580
  118CHL1  H22B14976   6.466   1.840  14.275 -1.8519  0.8544 -0.7185
  118CHL1   C2314977   6.489   2.046  14.200  0.0941  0.6295 -0.0391
  118CHL1  H23A14978   6.381   2.067  14.187 -0.0541  1.7582  2.4759
  118CHL1  H23B14979   6.545   2.138  14.226  0.5728  0.3937 -0.2131
  118CHL1   C2414980   6.541   1.995  14.063  0.0346  0.2433  0.4764
  118CHL1  H24A14981   6.643   1.952  14.062  0.4861  1.2639 -0.8211
  118CHL1  H24B14982   6.476   1.917  14.017  0.4854  0.1872 -0.0754
  118CHL1   C2514983   6.550   2.109  13.964  0.2714  0.0447 -0.2278
  118CHL1   H2514984   6.610   2.187  14.016  1.1189 -0.7544  0.0058
  118CHL1   C2614985   6.616   2.072  13.835  0.1272 -0.8757  0.1369
  118CHL1  H26A14986   6.556   1.993  13.784 -1.1274  0.5326 -0.6425
  118CHL1  H26B14987   6.614   2.154  13.760 -1.6534 -0.6870  0.3466
  118CHL1  H26C14988   6.722   2.042  13.845  0.4739  0.4961  0.7968
  118CHL1   C2714989   6.410   2.167  13.927 -0.3265  0.7233  0.1727
  118CHL1  H27A14990   6.352   2.192  14.018 -1.4813 -1.3128  0.0526
  118CHL1  H27B14991   6.435   2.251  13.859 -0.3786 -0.1444 -0.9609
  118CHL1  H27C14992   6.354   2.090  13.871 -0.3164 -0.4158  1.6661
  119CHL1    C314993   6.770   0.657  15.479 -0.8266  0.5624  0.0654
  119CHL1    H314994   6.873   0.699  15.481 -1.1038  1.2641 -0.1277
  119CHL1    O314995   6.748   0.610  15.609  0.0734  0.6754 -0.0816
  119CHL1   H3'14996   6.669   0.557  15.607  0.5639 -0.0648 -0.9565
  119CHL1    C414997   6.663   0.753  15.426 -0.5117  0.6886 -0.3657
  119CHL1   H4A14998   6.562   0.709  15.441  0.5445 -2.3018 -1.1781
  119CHL1   H4B14999   6.670   0.835  15.500  0.3492  0.3496 -0.0538
  119CHL1    C515000   6.685   0.791  15.282 -1.0070 -0.3292  0.1167
  119CHL1    C615001   6.695   0.923  15.248  0.3426 -0.2522 -0.4205
  119CHL1    H615002   6.668   1.003  15.319 -1.9530 -0.4807 -0.9438
  119CHL1    C715003   6.712   0.974  15.111  0.1989  0.8271  0.1320
  119CHL1   H7A15004   6.641   1.053  15.077 -2.7213 -1.9420 -0.6754
  119CHL1   H7B15005   6.815   1.015  15.108 -0.1996  1.8415 -0.1184
  119CHL1    C815006   6.707   0.866  14.997  0.1126 -0.5485 -0.8183
  119CHL1    H815007   6.600   0.842  14.978  0.0347 -2.1683  1.2616
  119CHL1   C1415008   6.771   0.921  14.871  0.1573 -0.0582 -0.4126
  119CHL1   H1415009   6.879   0.931  14.898 -0.2384 -2.6226  2.6978
  119CHL1   C1515010   6.710   1.050  14.817 -0.1747 -0.1033  0.6944
  119CHL1  H15A15011   6.600   1.036  14.806 -0.4782  2.6726 -0.7233
  119CHL1  H15B15012   6.720   1.141  14.880 -0.7035  1.8191 -1.8102
  119CHL1   C1615013   6.778   1.061  14.673 -0.3013  0.0699 -0.0556
  119CHL1  H16A15014   6.706   1.082  14.592 -1.3316 -0.2096  0.7707
  119CHL1  H16B15015   6.854   1.143  14.673 -1.2994  1.0242 -0.4311
  119CHL1   C1715016   6.837   0.916  14.641 -0.5833 -0.3486 -1.2299
  119CHL1   H1715017   6.940   0.918  14.683 -1.8923  1.7129  2.3911
  119CHL1   C1315018   6.775   0.828  14.751  0.4783  0.4113  0.1961
  119CHL1   C1815019   6.625   0.788  14.714 -0.7605  0.0169  0.1332
  119CHL1  H18A15020   6.573   0.874  14.667  3.2533  1.9553 -1.2233
  119CHL1  H18B15021   6.637   0.705  14.641 -0.4533 -1.0345  1.3492
  119CHL1  H18C15022   6.559   0.755  14.797 -0.7345  2.0495  1.0191
  119CHL1   C1215023   6.843   0.696  14.794 -0.4204 -0.7350 -0.1494
  119CHL1  H12A15024   6.825   0.629  14.707 -0.2999  2.1400 -2.5582
  119CHL1  H12B15025   6.952   0.715  14.801 -0.4049  0.4609 -2.5496
  119CHL1   C1115026   6.788   0.632  14.929  0.1517 -0.0422 -0.1188
  119CHL1  H11A15027   6.688   0.593  14.901 -1.1012  1.5765  1.7633
  119CHL1  H11B15028   6.855   0.552  14.965  0.6279  1.2413  2.0469
  119CHL1    C915029   6.776   0.734  15.044 -0.8007 -0.0479  0.6808
  119CHL1    H915030   6.881   0.759  15.070  0.1342  0.1493 -2.8054
  119CHL1   C1015031   6.720   0.680  15.181  0.4264 -0.0953 -0.3889
  119CHL1   C1915032   6.592   0.609  15.146  0.0238  0.3316  0.0500
  119CHL1  H19A15033   6.524   0.600  15.234  2.0678 -1.9405  1.5072
  119CHL1  H19B15034   6.533   0.659  15.066  0.7116  0.8051 -0.1689
  119CHL1  H19C15035   6.610   0.506  15.110  0.9991  0.7406 -0.6529
  119CHL1    C115036   6.815   0.572  15.243 -0.7222 -0.1876  0.2787
  119CHL1   H1A15037   6.818   0.483  15.176  0.5500  0.2109 -0.2160
  119CHL1   H1B15038   6.912   0.625  15.246  0.0879 -1.6302  0.3440
  119CHL1    C215039   6.787   0.533  15.391 -0.0548  0.6304  0.4206
  119CHL1   H2A15040   6.864   0.461  15.427 -2.0448 -1.9925 -0.2539
  119CHL1   H2B15041   6.698   0.467  15.400  1.3952 -1.3315  1.1316
  119CHL1   C2015042   6.832   0.873  14.498 -0.2252 -0.3719  0.3603
  119CHL1   H2015043   6.725   0.861  14.472 -0.2394  0.9290 -0.2515
  119CHL1   C2115044   6.900   0.736  14.479 -0.7058  0.1361 -0.2661
  119CHL1  H21A15045   6.995   0.729  14.536 -1.2064  0.9535  0.6833
  119CHL1  H21B15046   6.915   0.713  14.371 -0.1277  2.1849 -0.6697
  119CHL1  H21C15047   6.833   0.657  14.518  2.4880 -2.2034  0.9165
  119CHL1   C2215048   6.899   0.980  14.400 -0.1727 -0.5581  0.0455
  119CHL1  H22A15049   6.856   1.078  14.430  0.4580  0.1213 -1.2345
  119CHL1  H22B15050   7.009   0.969  14.412  0.4139  0.3849 -3.4120
  119CHL1   C2315051   6.849   0.948  14.253  0.5422 -0.7544  0.1388
  119CHL1  H23A15052   6.869   0.843  14.223 -1.3097 -0.5374 -2.1924
  119CHL1  H23B15053   6.739   0.962  14.255  0.5259 -0.7747 -0.3797
  119CHL1   C2415054   6.913   1.051  14.157 -0.0987  0.7859 -0.1827
  119CHL1  H24A15055   6.863   1.148  14.174  0.3875  1.0640 -0.3023
  119CHL1  H24B15056   7.021   1.053  14.184 -0.1211  2.4996 -0.1311
  119CHL1   C2515057   6.892   1.013  14.012 -0.1496  0.5296 -0.0434
  119CHL1   H2515058   6.783   0.993  14.003  0.2694 -2.2406  0.2727
  119CHL1   C2615059   6.928   1.121  13.910 -0.0070 -0.0667 -0.4601
  119CHL1  H26A15060   6.899   1.098  13.805 -1.1094 -0.3753 -0.0985
  119CHL1  H26B15061   6.897   1.222  13.945 -0.4979 -0.4576  0.2495
  119CHL1  H26C15062   7.039   1.120  13.912  0.0089 -0.0728 -1.0708
  119CHL1   C2715063   6.960   0.879  13.977 -0.7103  0.0652  0.1935
  119CHL1  H27A15064   7.069   0.876  14.000 -0.7246 -1.1448  0.1168
  119CHL1  H27B15065   6.917   0.794  14.033 -0.9033  1.1468  1.7798
  119CHL1  H27C15066   6.957   0.856  13.869 -0.0452 -0.9576  0.3763
  120CHL1    C315067   6.282   6.456  15.630  0.1993 -0.0677  0.4933
  120CHL1    H315068   6.308   6.356  15.589 -0.0430 -0.4156  1.1743
  120CHL1    O315069   6.315   6.483  15.763  0.1120 -0.0485  0.2240
  120CHL1   H3'15070   6.318   6.578  15.757 -2.2596 -0.0232 -2.7709
  120CHL1    C415071   6.374   6.543  15.539  0.2354 -0.4091 -0.2750
  120CHL1   H4A15072   6.360   6.651  15.563 -1.7399 -0.8296  0.6693
  120CHL1   H4B15073   6.482   6.531  15.557  0.9761  1.2651 -2.9624
  120CHL1    C515074   6.343   6.536  15.393  0.0442  0.3432 -0.3170
  120CHL1    C615075   6.432   6.502  15.304 -0.0921 -1.2550 -0.3578
  120CHL1    H615076   6.533   6.468  15.331  1.1664  0.8098 -2.1496
  120CHL1    C715077   6.406   6.507  15.156  0.6895 -0.3513  0.2946
  120CHL1   H7A15078   6.489   6.563  15.107 -0.3398 -0.3483 -1.4930
  120CHL1   H7B15079   6.404   6.401  15.125 -0.8976 -0.2140 -0.1408
  120CHL1    C815080   6.277   6.592  15.119 -0.0150  0.2333 -0.2100
  120CHL1    H815081   6.298   6.700  15.131  2.0380  0.0697 -1.8160
  120CHL1   C1415082   6.232   6.560  14.975 -0.2789 -0.0472  0.1953
  120CHL1   H1415083   6.202   6.454  14.987 -1.1455  0.1461 -0.1844
  120CHL1   C1515084   6.336   6.553  14.874 -0.3133  0.4253  0.5566
  120CHL1  H15A15085   6.416   6.631  14.879  1.4854 -1.3236  0.4682
  120CHL1  H15B15086   6.383   6.453  14.889 -1.3004  0.0220  1.0032
  120CHL1   C1615087   6.259   6.569  14.744  0.2660 -0.0555 -0.2231
  120CHL1  H16A15088   6.303   6.654  14.687  1.6758  0.5969  1.7352
  120CHL1  H16B15089   6.264   6.481  14.676  2.2164  0.7070 -1.1489
  120CHL1   C1715090   6.107   6.588  14.781  0.2836  0.1378  0.6968
  120CHL1   H1715091   6.078   6.481  14.773 -0.7979  0.5223 -1.0122
  120CHL1   C1315092   6.112   6.643  14.925  0.1074 -0.5054 -0.0938
  120CHL1   C1815093   6.148   6.797  14.927  0.3805 -0.4052 -0.3271
  120CHL1  H18A15094   6.064   6.847  14.873 -0.0233  1.3985  1.8003
  120CHL1  H18B15095   6.168   6.837  15.028 -2.3110 -1.9023  0.9030
  120CHL1  H18C15096   6.234   6.830  14.865 -0.9912  1.6744 -1.2727
  120CHL1   C1215097   5.991   6.615  15.018 -0.6134  0.5102 -0.1277
  120CHL1  H12A15098   5.913   6.687  14.987 -1.1709 -0.8875 -2.1279
  120CHL1  H12B15099   5.940   6.516  15.016 -2.5200  1.4550 -1.4744
  120CHL1   C1115100   6.024   6.631  15.168 -0.5810 -0.3528  0.0618
  120CHL1  H11A15101   6.020   6.740  15.186 -1.1742 -0.0923 -1.5060
  120CHL1  H11B15102   5.945   6.590  15.235 -1.1092 -0.2576 -0.4970
  120CHL1    C915103   6.157   6.557  15.210  0.6022 -0.2241 -0.6043
  120CHL1    H915104   6.134   6.450  15.195  0.0182 -0.3091  0.7616
  120CHL1   C1015105   6.192   6.574  15.357 -0.9048  0.9045  0.4646
  120CHL1   C1915106   6.168   6.725  15.389  0.4844  0.9781  0.0733
  120CHL1  H19A15107   6.058   6.743  15.389  0.5658  1.7473  2.1661
  120CHL1  H19B15108   6.201   6.755  15.491 -1.4598 -1.2278  1.4587
  120CHL1  H19C15109   6.220   6.796  15.323  1.9500  0.1370  0.2877
  120CHL1    C115110   6.108   6.478  15.447 -0.2564  0.3284 -0.3041
  120CHL1   H1A15111   5.999   6.483  15.428 -0.3243 -0.6194 -0.2005
  120CHL1   H1B15112   6.131   6.372  15.420  0.3698  0.4175 -0.1324
  120CHL1    C215113   6.132   6.490  15.601 -0.0625 -0.0936  0.1899
  120CHL1   H2A15114   6.062   6.424  15.655  0.2416 -1.2662 -0.8110
  120CHL1   H2B15115   6.120   6.595  15.637 -1.3999 -1.0570  2.8133
  120CHL1   C2015116   6.043   6.669  14.674  0.3528  0.3724 -0.3243
  120CHL1   H2015117   6.090   6.769  14.671 -1.8123  1.4496 -0.6085
  120CHL1   C2115118   5.895   6.681  14.694  0.5415 -0.4731  0.2202
  120CHL1  H21A15119   5.842   6.707  14.599  0.1910  2.6142  1.1604
  120CHL1  H21B15120   5.868   6.751  14.776 -1.3945 -0.3646 -0.4570
  120CHL1  H21C15121   5.851   6.582  14.722 -1.9293 -0.2969 -2.5026
  120CHL1   C2215122   6.067   6.602  14.532  0.0178 -0.6448 -0.4887
  120CHL1  H22A15123   6.010   6.659  14.456 -0.4653  0.3081  0.5589
  120CHL1  H22B15124   6.175   6.608  14.507  0.4682  0.4286  1.4915
  120CHL1   C2315125   6.008   6.456  14.521  0.5047  0.0970 -0.0552
  120CHL1  H23A15126   6.030   6.392  14.608  0.4268  1.1999  0.7984
  120CHL1  H23B15127   5.899   6.478  14.524  0.5781  0.3807  0.5613
  120CHL1   C2415128   6.064   6.380  14.394 -0.8779 -0.0842  0.6446
  120CHL1  H24A15129   6.046   6.443  14.304  1.1899 -0.1135  0.1757
  120CHL1  H24B15130   6.174   6.367  14.401 -0.8535 -3.7330 -2.8354
  120CHL1   C2515131   6.009   6.238  14.359  0.1071  0.9002 -0.4390
  120CHL1   H2515132   5.902   6.228  14.387  0.3437  1.5017  0.7570
  120CHL1   C2615133   6.050   6.196  14.213 -0.2848  0.1507  0.3064
  120CHL1  H26A15134   6.160   6.185  14.215 -0.3181 -0.2994  2.1429
  120CHL1  H26B15135   5.992   6.112  14.169  0.1357  0.3380 -0.6165
  120CHL1  H26C15136   6.030   6.275  14.138  4.0344  1.0561 -0.1581
  120CHL1   C2715137   6.084   6.138  14.448  0.5689 -0.6398  0.5334
  120CHL1  H27A15138   6.042   6.037  14.428  0.9962 -0.8537  0.7118
  120CHL1  H27B15139   6.191   6.133  14.420  0.3011  1.7908 -1.3266
  120CHL1  H27C15140   6.085   6.166  14.555  0.8088 -0.5362  0.5052
  121CHL1    C315141   4.789   4.149  12.538 -0.3385  0.1524 -0.1766
  121CHL1    H315142   4.701   4.210  12.567  0.6944  0.5538  2.4504
  121CHL1    O315143   4.769   4.086  12.410  0.0040 -0.1032  0.2170
  121CHL1   H3'15144   4.687   4.035  12.408  0.5239 -0.9432 -1.9259
  121CHL1    C415145   4.915   4.239  12.534  0.1486  0.2265 -0.1122
  121CHL1   H4A15146   4.998   4.177  12.492 -1.7944 -1.0731 -2.2836
  121CHL1   H4B15147   4.889   4.317  12.460 -0.1520  2.5251  2.2842
  121CHL1    C515148   4.942   4.300  12.669 -0.0516 -0.6637 -0.0025
  121CHL1    C615149   4.948   4.433  12.686  0.8369  0.3963 -0.2348
  121CHL1    H615150   4.924   4.488  12.593  0.6080 -2.6014 -2.0748
  121CHL1    C715151   4.973   4.503  12.820  1.1900  0.2066 -0.5757
  121CHL1   H7A15152   5.035   4.594  12.812  0.8234  0.3633 -1.7163
  121CHL1   H7B15153   4.880   4.534  12.873  0.6968 -1.7093 -0.2434
  121CHL1    C815154   5.042   4.416  12.926 -0.3742  0.0071 -0.5893
  121CHL1    H815155   5.147   4.402  12.891  0.3291 -0.1528  1.4502
  121CHL1   C1415156   5.049   4.477  13.064 -0.7517 -0.5484  0.0700
  121CHL1   H1415157   4.948   4.501  13.104 -0.5106 -2.5766  2.1226
  121CHL1   C1515158   5.115   4.609  13.079  0.4599 -0.3807  0.0036
  121CHL1  H15A15159   5.207   4.598  13.018  0.8255  0.2110  0.4384
  121CHL1  H15B15160   5.064   4.699  13.039 -0.6572 -0.8263  0.4080
  121CHL1   C1615161   5.159   4.623  13.225 -0.2394  0.2301 -0.2798
  121CHL1  H16A15162   5.270   4.624  13.229 -0.0274 -4.3242  1.6159
  121CHL1  H16B15163   5.117   4.708  13.282 -0.4022 -1.0820  1.6521
  121CHL1   C1715164   5.116   4.490  13.290 -0.0063 -0.3026  0.1765
  121CHL1   H1715165   5.012   4.505  13.327  0.2680  1.3362  0.3440
  121CHL1   C1315166   5.112   4.391  13.172  0.6976  0.0953  0.2480
  121CHL1   C1815167   5.256   4.343  13.129  0.1326 -0.8538  0.2023
  121CHL1  H18A15168   5.333   4.423  13.139 -0.3810 -0.4201  0.7746
  121CHL1  H18B15169   5.282   4.250  13.185  2.0992 -0.7353 -0.4212
  121CHL1  H18C15170   5.255   4.307  13.024  0.3765  1.3724 -0.6172
  121CHL1   C1215171   5.020   4.258  13.180  0.0553 -0.2305  1.1767
  121CHL1  H12A15172   5.055   4.186  13.257  0.8664  1.2045  2.2044
  121CHL1  H12B15173   4.920   4.291  13.215 -0.1303  0.8587 -0.2650
  121CHL1   C1115174   5.016   4.184  13.043 -0.6637 -0.1449  0.6790
  121CHL1  H11A15175   5.116   4.140  13.025 -0.0940  0.4619  2.2654
  121CHL1  H11B15176   4.960   4.088  13.046  0.6529 -0.9088  1.6497
  121CHL1    C915177   4.970   4.281  12.924  0.0342  0.0556 -0.5102
  121CHL1    H915178   4.863   4.301  12.948 -0.1652 -2.4266  0.9915
  121CHL1   C1015179   4.959   4.206  12.787  0.0780  0.1704  0.4810
  121CHL1   C1915180   5.094   4.126  12.765  0.4853  0.2524 -0.7284
  121CHL1  H19A15181   5.097   4.071  12.669 -3.1259  0.1783 -0.9368
  121CHL1  H19B15182   5.185   4.186  12.782 -0.7602  1.7535  1.0167
  121CHL1  H19C15183   5.092   4.044  12.840 -1.4925  0.6674 -0.2513
  121CHL1    C115184   4.834   4.108  12.788  0.1430 -0.5890 -0.0837
  121CHL1   H1A15185   4.850   4.022  12.857 -1.0861  0.1744  1.2214
  121CHL1   H1B15186   4.749   4.161  12.836  1.7712  0.3784  1.8890
  121CHL1    C215187   4.806   4.043  12.649 -0.1820  0.2226 -0.2290
  121CHL1   H2A15188   4.712   3.985  12.656 -0.1347 -0.1517 -2.1528
  121CHL1   H2B15189   4.894   3.983  12.618  0.4576 -0.2406  2.2824
  121CHL1   C2015190   5.205   4.461  13.412  0.2714 -0.5385 -1.2956
  121CHL1   H2015191   5.312   4.469  13.385  0.4730  3.3611  0.1251
  121CHL1   C2115192   5.163   4.322  13.463 -0.2395  0.5346 -0.0155
  121CHL1  H21A15193   5.210   4.293  13.560  0.2340  1.4504  0.0453
  121CHL1  H21B15194   5.192   4.251  13.383 -0.2529  0.1527  0.3141
  121CHL1  H21C15195   5.054   4.314  13.484  0.1198 -2.1951  1.2603
  121CHL1   C2215196   5.186   4.577  13.521 -0.3587  0.1776 -0.3582
  121CHL1  H22A15197   5.240   4.665  13.480 -0.5571  0.0315 -0.9399
  121CHL1  H22B15198   5.078   4.594  13.535 -0.3459 -0.2608  0.3241
  121CHL1   C2315199   5.246   4.547  13.666 -0.3795  0.7066  0.0382
  121CHL1  H23A15200   5.216   4.632  13.732 -2.0335  0.6638 -0.6044
  121CHL1  H23B15201   5.209   4.449  13.704  2.2143  0.4225  2.0744
  121CHL1   C2415202   5.397   4.552  13.655  0.6818 -0.1730 -0.6115
  121CHL1  H24A15203   5.421   4.466  13.588  0.5595 -0.0672 -0.7935
  121CHL1  H24B15204   5.436   4.651  13.625 -0.9388  0.9584  0.7964
  121CHL1   C2515205   5.466   4.521  13.790 -0.1084 -0.2008  0.3060
  121CHL1   H2515206   5.572   4.526  13.756 -0.9287  0.2229 -2.4398
  121CHL1   C2615207   5.445   4.632  13.896 -0.3472 -1.1334  0.2439
  121CHL1  H26A15208   5.485   4.729  13.860  0.5916 -1.6996 -0.2633
  121CHL1  H26B15209   5.337   4.645  13.919  0.0825 -2.3932  3.4191
  121CHL1  H26C15210   5.492   4.612  13.995  3.0273  0.9593 -0.7605
  121CHL1   C2715211   5.437   4.385  13.840  0.0412  0.0319 -0.4367
  121CHL1  H27A15212   5.494   4.344  13.926 -1.4466 -0.0369  0.5569
  121CHL1  H27B15213   5.326   4.376  13.851 -0.0244  0.5439 -0.6341
  121CHL1  H27C15214   5.453   4.307  13.763 -3.2935 -2.2388  0.9619
  122CHL1    C315215   3.692   4.141  13.275  0.2913  0.1917  0.2032
  122CHL1    H315216   3.641   4.045  13.297  1.6029 -0.7453 -0.7042
  122CHL1    O315217   3.707   4.155  13.140  0.2106 -0.8736  0.3236
  122CHL1   H3'15218   3.689   4.249  13.128  2.6616 -0.3500  0.1450
  122CHL1    C415219   3.600   4.254  13.320  0.0941  1.1115  0.2802
  122CHL1   H4A15220   3.623   4.358  13.289  1.4681  0.2135 -2.0441
  122CHL1   H4B15221   3.500   4.238  13.274  1.3187 -0.1936 -2.1359
  122CHL1    C515222   3.591   4.250  13.474 -0.2726 -0.0732  0.8856
  122CHL1    C615223   3.479   4.239  13.540  0.0273  0.6157  0.5369
  122CHL1    H615224   3.383   4.230  13.487  0.6423  2.2497 -0.9596
  122CHL1    C715225   3.457   4.238  13.690  0.0877 -1.2519  0.0226
  122CHL1   H7A15226   3.369   4.299  13.720  0.6328 -0.0172 -0.8066
  122CHL1   H7B15227   3.442   4.134  13.725 -0.8703 -0.6428  1.5728
  122CHL1    C815228   3.580   4.303  13.763 -0.3076 -0.5816  0.9239
  122CHL1    H815229   3.574   4.413  13.752  0.9198 -0.7537 -3.2191
  122CHL1   C1415230   3.573   4.262  13.908 -0.2097 -0.4534  0.0817
  122CHL1   H1415231   3.578   4.153  13.927  0.9491 -0.3928  0.2458
  122CHL1   C1515232   3.438   4.298  13.987  0.2940  0.3661 -0.0962
  122CHL1  H15A15233   3.398   4.398  13.960 -0.4998  0.0330 -0.1807
  122CHL1  H15B15234   3.371   4.213  13.960 -1.0756  1.2866  0.2738
  122CHL1   C1615235   3.471   4.289  14.138 -0.1398  0.4695 -0.0095
  122CHL1  H16A15236   3.440   4.392  14.165 -0.7935  0.8204 -1.9454
  122CHL1  H16B15237   3.418   4.201  14.181 -3.2095  2.0506 -0.2632
  122CHL1   C1715238   3.623   4.270  14.138 -1.0922  0.6411 -0.4906
  122CHL1   H1715239   3.635   4.160  14.148  1.3158  0.8914  0.0861
  122CHL1   C1315240   3.678   4.322  14.003  0.1123 -0.0990 -0.0616
  122CHL1   C1815241   3.678   4.471  13.995 -0.5061  0.2564  0.0941
  122CHL1  H18A15242   3.682   4.502  13.889 -2.8237  0.2772 -0.0358
  122CHL1  H18B15243   3.593   4.521  14.047  0.1616  1.6242 -0.0888
  122CHL1  H18C15244   3.769   4.505  14.050  0.5881 -0.5625 -1.1610
  122CHL1   C1215245   3.816   4.274  13.949 -0.2620 -0.0015 -0.1964
  122CHL1  H12A15246   3.906   4.314  14.002 -0.0146 -0.7170 -0.0664
  122CHL1  H12B15247   3.818   4.163  13.955  1.3225 -0.0107 -0.5203
  122CHL1   C1115248   3.829   4.295  13.794 -0.3169 -0.0618  0.0131
  122CHL1  H11A15249   3.844   4.403  13.773 -0.8209 -0.2781 -1.6356
  122CHL1  H11B15250   3.916   4.240  13.753 -0.3324  0.0536 -0.1800
  122CHL1    C915251   3.707   4.252  13.709  0.6644  0.5736 -0.4035
  122CHL1    H915252   3.698   4.142  13.716 -2.6767  0.7198 -0.5748
  122CHL1   C1015253   3.721   4.270  13.552 -0.1643 -0.5327  0.0377
  122CHL1   C1915254   3.770   4.414  13.527  0.0050 -0.0926 -1.0235
  122CHL1  H19A15255   3.695   4.479  13.576 -0.5945 -1.5541  0.0811
  122CHL1  H19B15256   3.866   4.437  13.578 -0.3246 -0.3172 -0.2926
  122CHL1  H19C15257   3.782   4.436  13.419  1.2057  1.4570 -0.6225
  122CHL1    C115258   3.829   4.168  13.491 -0.3974 -0.0355  0.1365
  122CHL1   H1A15259   3.928   4.195  13.535 -0.2250  0.2429 -0.4192
  122CHL1   H1B15260   3.811   4.067  13.535  0.7734 -1.0371 -1.5744
  122CHL1    C215261   3.830   4.153  13.343  0.1679 -0.6106  0.7633
  122CHL1   H2A15262   3.884   4.059  13.321  0.7256 -0.0357 -0.4165
  122CHL1   H2B15263   3.884   4.238  13.298  1.0966 -2.3371 -1.5361
  122CHL1   C2015264   3.690   4.313  14.269 -0.2332  0.6007  0.0574
  122CHL1   H2015265   3.706   4.423  14.270 -0.2678  0.6103  1.7208
  122CHL1   C2115266   3.835   4.269  14.281  0.4626  0.0156 -0.0409
  122CHL1  H21A15267   3.855   4.161  14.266  1.1555  0.2271 -0.6669
  122CHL1  H21B15268   3.884   4.300  14.376 -0.2427 -0.6280  0.5452
  122CHL1  H21C15269   3.881   4.334  14.203  1.3167 -1.8393 -1.1346
  122CHL1   C2215270   3.623   4.278  14.399 -0.1271  0.7379 -0.1178
  122CHL1  H22A15271   3.527   4.230  14.370 -0.3493  0.1871  1.4667
  122CHL1  H22B15272   3.681   4.197  14.448 -0.4259  0.3135 -0.4588
  122CHL1   C2315273   3.611   4.395  14.491 -0.3957 -0.4277  1.0831
  122CHL1  H23A15274   3.600   4.368  14.598 -2.4342  0.9796  1.2751
  122CHL1  H23B15275   3.702   4.458  14.494 -0.1377 -0.6468 -0.8269
  122CHL1   C2415276   3.490   4.487  14.452  0.3744 -0.7390 -0.2626
  122CHL1  H24A15277   3.518   4.519  14.349  0.8964  0.5720  0.2690
  122CHL1  H24B15278   3.393   4.434  14.445 -1.7438  2.4167  2.6033
  122CHL1   C2515279   3.468   4.616  14.535  0.3281 -0.3405  0.4777
  122CHL1   H2515280   3.492   4.592  14.640  0.7513 -0.3621  0.3767
  122CHL1   C2615281   3.571   4.719  14.487  0.3024 -0.2284 -0.9492
  122CHL1  H26A15282   3.557   4.807  14.553  0.8181 -0.7499 -0.1379
  122CHL1  H26B15283   3.673   4.676  14.495 -0.4063 -1.5678  2.5735
  122CHL1  H26C15284   3.552   4.747  14.381  0.5731 -0.7070 -1.1282
  122CHL1   C2715285   3.328   4.666  14.522  0.5183 -0.1768 -0.3875
  122CHL1  H27A15286   3.303   4.689  14.416  3.1117  0.5855 -0.9225
  122CHL1  H27B15287   3.250   4.604  14.570  1.7124  0.0253  1.9634
  122CHL1  H27C15288   3.312   4.755  14.587  0.0329 -0.2368 -0.4222
  123CHL1    C315289   4.914   2.882  12.351  0.8406  0.8924  0.0786
  123CHL1    H315290   4.921   2.773  12.373 -0.0484  1.2766  2.6286
  123CHL1    O315291   4.884   2.918  12.218  0.8823  0.4480  0.2640
  123CHL1   H3'15292   4.964   2.960  12.185  1.1226  2.1567  2.7533
  123CHL1    C415293   4.804   2.934  12.446  0.0249  0.6156 -0.4227
  123CHL1   H4A15294   4.804   3.045  12.441  1.6791  0.8155  2.2775
  123CHL1   H4B15295   4.707   2.885  12.424  0.0377  0.2964  0.2049
  123CHL1    C515296   4.838   2.901  12.591  0.4103  0.2061  0.2695
  123CHL1    C615297   4.756   2.823  12.659 -0.8635  0.5511  0.2041
  123CHL1    H615298   4.671   2.777  12.608 -2.3746  3.1311  0.2499
  123CHL1    C715299   4.771   2.798  12.810 -0.1543 -0.2414  0.0962
  123CHL1   H7A15300   4.677   2.789  12.868 -1.4930 -1.7519 -2.1941
  123CHL1   H7B15301   4.816   2.699  12.832 -0.8199 -1.0204 -1.8684
  123CHL1    C815302   4.870   2.901  12.867  0.2860  0.1485  0.5526
  123CHL1    H815303   4.824   3.002  12.876 -3.3728 -0.8827 -3.4546
  123CHL1   C1415304   4.910   2.857  13.005 -0.3972  0.0092 -0.2265
  123CHL1   H1415305   4.961   2.759  12.995  0.6416  0.6544 -1.4776
  123CHL1   C1515306   4.791   2.838  13.101 -0.3958  0.1629  0.0370
  123CHL1  H15A15307   4.715   2.919  13.090 -1.8835 -1.1393  0.2866
  123CHL1  H15B15308   4.746   2.737  13.097  1.8200 -0.9059  0.6659
  123CHL1   C1615309   4.843   2.854  13.244 -0.1770 -0.7628  0.3714
  123CHL1  H16A15310   4.803   2.949  13.287  0.8351  1.2097 -2.7044
  123CHL1  H16B15311   4.823   2.771  13.315 -0.6459 -1.7628 -0.9119
  123CHL1   C1715312   4.996   2.892  13.218 -0.0164  0.3525 -0.1914
  123CHL1   H1715313   5.044   2.792  13.211 -2.3204 -0.8175 -0.0185
  123CHL1   C1315314   5.015   2.949  13.076 -0.6686 -0.1883  0.3247
  123CHL1   C1815315   4.979   3.095  13.073  0.4181 -0.2438  0.4139
  123CHL1  H18A15316   5.062   3.158  13.113 -0.5162  1.6310 -0.4776
  123CHL1  H18B15317   4.961   3.128  12.969  2.3253  0.6603  0.3282
  123CHL1  H18C15318   4.887   3.116  13.132  1.1241  0.5788  1.2540
  123CHL1   C1215319   5.145   2.924  12.996  0.6731 -0.3888  0.1807
  123CHL1  H12A15320   5.226   2.990  13.032  0.1693  0.4449 -0.1900
  123CHL1  H12B15321   5.172   2.816  12.994  1.1414 -0.2966 -2.3789
  123CHL1   C1115322   5.130   2.973  12.847  0.2535  0.5268  0.0896
  123CHL1  H11A15323   5.125   3.084  12.845 -1.5834  0.4832 -2.1401
  123CHL1  H11B15324   5.216   2.949  12.781 -1.7068 -1.1167 -2.0601
  123CHL1    C915325   5.003   2.918  12.780  0.1543 -0.2123 -0.4970
  123CHL1    H915326   5.027   2.811  12.763 -1.6696 -0.4382 -1.9222
  123CHL1   C1015327   4.972   2.971  12.639  0.2877  0.5039  0.2676
  123CHL1   C1915328   4.947   3.127  12.646 -0.4291  0.5123  0.0947
  123CHL1  H19A15329   5.037   3.175  12.691 -1.2876 -0.9798  3.7668
  123CHL1  H19B15330   4.939   3.168  12.543 -0.5863 -0.4427 -0.2861
  123CHL1  H19C15331   4.864   3.160  12.712  1.9764  2.0265  2.5879
  123CHL1    C115332   5.089   2.935  12.540 -0.6051 -0.3462  0.6555
  123CHL1   H1A15333   5.183   2.990  12.560  0.7099 -2.4793  0.6993
  123CHL1   H1B15334   5.118   2.829  12.556  0.1170 -0.3448 -0.5256
  123CHL1    C215335   5.052   2.948  12.388 -0.2102  0.1238 -0.5222
  123CHL1   H2A15336   5.130   2.905  12.321  0.6252 -0.8139  0.9927
  123CHL1   H2B15337   5.046   3.058  12.370 -1.6543  0.0086 -0.8587
  123CHL1   C2015338   5.063   2.955  13.340  0.5292 -0.2952 -0.4045
  123CHL1   H2015339   5.031   3.062  13.340 -0.7123 -0.6488  0.1599
  123CHL1   C2115340   5.212   2.947  13.327 -0.4109  0.4687  0.4322
  123CHL1  H21A15341   5.248   3.001  13.238 -0.1686  0.4861  0.5411
  123CHL1  H21B15342   5.221   2.842  13.291 -0.8022  0.4284  0.4419
  123CHL1  H21C15343   5.270   2.964  13.420  0.4949  0.4039 -0.1054
  123CHL1   C2215344   5.004   2.904  13.476 -0.4788  1.0093 -0.3861
  123CHL1  H22A15345   4.894   2.913  13.478 -0.3869  2.2063  1.4319
  123CHL1  H22B15346   5.038   2.798  13.481 -0.2541  0.8540 -3.4558
  123CHL1   C2315347   5.056   2.976  13.603  0.5679  0.1036  0.4483
  123CHL1  H23A15348   5.165   2.970  13.623  0.2750 -1.3440  1.8253
  123CHL1  H23B15349   5.029   3.082  13.585 -1.3182 -0.5057 -0.5761
  123CHL1   C2415350   4.976   2.928  13.727 -0.2286  0.5341  0.6364
  123CHL1  H24A15351   4.982   2.818  13.708  0.4155  0.6704 -0.0227
  123CHL1  H24B15352   5.022   2.936  13.828  0.6906  0.6503  0.2265
  123CHL1   C2515353   4.834   2.973  13.741  0.1195 -0.3920  0.0140
  123CHL1   H2515354   4.772   2.967  13.649  0.6321 -1.9436 -0.2636
  123CHL1   C2615355   4.756   2.885  13.838 -0.2337  0.1184 -0.5006
  123CHL1  H26A15356   4.762   2.777  13.815  0.9799 -0.1119  0.7793
  123CHL1  H26B15357   4.804   2.909  13.935 -0.5010  0.5102 -0.4624
  123CHL1  H26C15358   4.648   2.906  13.853  0.0175  0.0316  1.8240
  123CHL1   C2715359   4.830   3.122  13.785  0.1755  0.2835 -0.0919
  123CHL1  H27A15360   4.725   3.146  13.811 -0.3209 -0.6208 -1.1473
  123CHL1  H27B15361   4.898   3.129  13.872  0.2880  0.5711 -0.2008
  123CHL1  H27C15362   4.867   3.193  13.707  2.9403 -0.1541  0.7102
  124CHL1    C315363   4.447   5.378  12.931  0.0432  0.5324  0.1152
  124CHL1    H315364   4.339   5.349  12.927  0.2554 -0.7142  2.0439
  124CHL1    O315365   4.512   5.396  12.803  0.0294  0.1153  0.2106
  124CHL1   H3'15366   4.540   5.312  12.766 -0.0038  1.1903 -2.4274
  124CHL1    C415367   4.457   5.510  13.009 -0.1918 -0.5643 -0.1093
  124CHL1   H4A15368   4.565   5.536  12.996 -0.1913 -0.7821 -0.5676
  124CHL1   H4B15369   4.397   5.590  12.960 -2.2784 -0.4663  2.4289
  124CHL1    C515370   4.421   5.496  13.156 -0.2090  0.1768 -1.5432
  124CHL1    C615371   4.323   5.571  13.202  0.5230 -0.1905  0.1893
  124CHL1    H615372   4.276   5.641  13.132  0.9113 -0.5909 -0.4802
  124CHL1    C715373   4.271   5.567  13.343  0.3274  0.8453 -0.2250
  124CHL1   H7A15374   4.250   5.671  13.378  0.8932  0.7462  0.4322
  124CHL1   H7B15375   4.178   5.506  13.345 -0.2971  1.7837  0.1596
  124CHL1    C815376   4.377   5.498  13.436  0.3422 -0.0197  0.1275
  124CHL1    H815377   4.458   5.573  13.448 -0.2011  0.3542  1.6607
  124CHL1   C1415378   4.328   5.475  13.577  0.2340  0.0509 -0.5503
  124CHL1   H1415379   4.254   5.393  13.571  0.2507  0.0725 -1.0269
  124CHL1   C1515380   4.267   5.594  13.657  0.4599 -0.3374  0.3504
  124CHL1  H15A15381   4.337   5.677  13.635  0.7803 -1.0012 -1.2495
  124CHL1  H15B15382   4.163   5.617  13.626  1.3256  2.0792 -0.9972
  124CHL1   C1615383   4.265   5.545  13.810  0.0525 -0.5334 -0.1531
  124CHL1  H16A15384   4.302   5.630  13.872  0.4545 -0.2294 -0.7962
  124CHL1  H16B15385   4.170   5.505  13.850  0.6654 -2.4835 -0.5781
  124CHL1   C1715386   4.353   5.420  13.808  0.1421 -0.8312 -0.9472
  124CHL1   H1715387   4.288   5.330  13.806 -0.2095 -0.6865  1.3872
  124CHL1   C1315388   4.426   5.412  13.676 -0.3566  0.0661 -0.1311
  124CHL1   C1815389   4.552   5.511  13.690  0.0196  0.3298 -0.5766
  124CHL1  H18A15390   4.633   5.466  13.752  0.2435 -0.4460 -1.4073
  124CHL1  H18B15391   4.601   5.520  13.590  1.7424 -0.8122  0.1154
  124CHL1  H18C15392   4.522   5.607  13.737 -0.9317  0.3567 -1.2184
  124CHL1   C1215393   4.461   5.274  13.619  0.5810  0.2590 -0.1061
  124CHL1  H12A15394   4.530   5.216  13.685 -0.5074 -2.1994 -1.0045
  124CHL1  H12B15395   4.371   5.210  13.609  1.3068 -0.7413 -0.4952
  124CHL1   C1115396   4.523   5.284  13.481 -0.2420 -0.4575  0.0386
  124CHL1  H11A15397   4.628   5.318  13.490 -0.2586  0.4090 -2.2451
  124CHL1  H11B15398   4.525   5.180  13.442  1.2709 -0.4736  0.1270
  124CHL1    C915399   4.434   5.371  13.374 -0.5508  1.0563  1.1496
  124CHL1    H915400   4.340   5.312  13.365 -0.5088  1.3510 -3.7257
  124CHL1   C1015401   4.499   5.388  13.232  0.1492  0.2731  0.1106
  124CHL1   C1915402   4.644   5.447  13.253  0.1366  1.2828  0.5094
  124CHL1  H19A15403   4.691   5.458  13.153  0.8505 -1.5270  0.4522
  124CHL1  H19B15404   4.627   5.539  13.314 -1.5539  0.1485  1.8476
  124CHL1  H19C15405   4.709   5.383  13.316  1.1408  2.1258  0.3645
  124CHL1    C115406   4.486   5.256  13.151  0.2478 -0.3990 -0.0463
  124CHL1   H1A15407   4.544   5.179  13.208 -1.6339 -1.6673  0.2562
  124CHL1   H1B15408   4.381   5.219  13.155  0.1895 -0.1893  0.3876
  124CHL1    C215409   4.522   5.256  12.998 -0.2256 -0.1661  0.2822
  124CHL1   H2A15410   4.502   5.160  12.946  0.0534  1.0255 -2.2058
  124CHL1   H2B15411   4.633   5.265  13.005 -0.0739 -1.4235 -0.2770
  124CHL1   C2015412   4.428   5.405  13.943  0.0733  0.5585 -0.6311
  124CHL1   H2015413   4.490   5.494  13.966  0.3537 -0.4491  3.0114
  124CHL1   C2115414   4.524   5.285  13.939 -0.4403 -0.1102 -0.6830
  124CHL1  H21A15415   4.616   5.304  13.880  0.1871  0.3496  0.4084
  124CHL1  H21B15416   4.488   5.192  13.891  0.1480 -0.6254 -0.1272
  124CHL1  H21C15417   4.557   5.254  14.040  1.5256 -0.4634 -1.4042
  124CHL1   C2215418   4.333   5.385  14.064 -0.0171 -0.1535 -0.8241
  124CHL1  H22A15419   4.250   5.457  14.047  0.0753  0.4087  0.8962
  124CHL1  H22B15420   4.297   5.280  14.059 -0.5969  0.0099 -0.1412
  124CHL1   C2315421   4.393   5.417  14.202  0.2675  0.9947  0.6619
  124CHL1  H23A15422   4.457   5.330  14.227 -2.3304 -1.1032  0.4081
  124CHL1  H23B15423   4.447   5.514  14.190  1.0434  0.3749 -1.4295
  124CHL1   C2415424   4.286   5.433  14.311 -0.7978  0.3989 -0.1586
  124CHL1  H24A15425   4.196   5.475  14.261 -2.9822 -3.1877  0.3851
  124CHL1  H24B15426   4.253   5.329  14.333 -2.2930  0.5970 -1.2648
  124CHL1   C2515427   4.332   5.501  14.439  0.4303 -0.3063  0.1325
  124CHL1   H2515428   4.425   5.453  14.476  0.8122 -0.3473 -0.8444
  124CHL1   C2615429   4.360   5.650  14.426  0.4645  0.3121  0.3561
  124CHL1  H26A15430   4.273   5.709  14.390  1.7406  1.8447 -0.3517
  124CHL1  H26B15431   4.380   5.688  14.528 -2.4603 -1.6888  1.8049
  124CHL1  H26C15432   4.448   5.681  14.365 -0.8858  0.5875 -1.5627
  124CHL1   C2715433   4.232   5.481  14.553 -1.1876 -0.1588 -0.6230
  124CHL1  H27A15434   4.135   5.535  14.543 -2.1370 -1.4030  1.1368
  124CHL1  H27B15435   4.205   5.373  14.551  1.2216 -0.8207 -0.3509
  124CHL1  H27C15436   4.272   5.494  14.656  0.7610 -2.2482 -1.0448
  125CHL1    C315437   4.022   5.158  13.384 -0.2898 -0.1556 -0.5564
  125CHL1    H315438   4.094   5.242  13.391 -0.4291  0.0332 -1.2679
  125CHL1    O315439   3.947   5.181  13.269  0.0940  0.4207 -0.2264
  125CHL1   H3'15440   3.998   5.176  13.188 -1.0947  2.8448 -1.2369
  125CHL1    C415441   4.090   5.022  13.388 -0.3773  0.3647 -0.1465
  125CHL1   H4A15442   4.005   4.953  13.368 -1.3129  1.2830  0.4844
  125CHL1   H4B15443   4.156   5.022  13.299 -1.9831  0.9636 -1.3860
  125CHL1    C515444   4.168   4.996  13.514 -0.3678 -0.2258 -0.4824
  125CHL1    C615445   4.302   4.966  13.511 -0.1012  0.6183  0.4130
  125CHL1    H615446   4.359   4.977  13.417  1.6604 -1.3056  1.1865
  125CHL1    C715447   4.379   4.922  13.635  0.5435 -0.1065 -0.2447
  125CHL1   H7A15448   4.452   4.843  13.608  2.1476  1.2789 -0.1835
  125CHL1   H7B15449   4.446   5.005  13.666 -0.4190  1.1477 -1.4060
  125CHL1    C815450   4.289   4.877  13.756  0.3743 -0.2409  0.1864
  125CHL1    H815451   4.238   4.783  13.726 -0.8854  0.5760 -0.2946
  125CHL1   C1415452   4.373   4.864  13.876 -0.3926  0.1795  0.2732
  125CHL1   H1415453   4.413   4.967  13.884 -0.9593  0.6695 -2.3428
  125CHL1   C1515454   4.503   4.782  13.874 -0.7386  0.6790 -0.4461
  125CHL1  H15A15455   4.494   4.682  13.827  3.2958  0.1465 -0.4774
  125CHL1  H15B15456   4.578   4.841  13.817 -1.1964  2.9174  1.1179
  125CHL1   C1615457   4.532   4.771  14.030 -0.3000  0.4775 -0.1270
  125CHL1  H16A15458   4.537   4.670  14.076  0.6109  0.2298 -0.7233
  125CHL1  H16B15459   4.629   4.821  14.052 -0.0664  0.2934 -0.7278
  125CHL1   C1715460   4.422   4.850  14.109  0.0450 -0.3696  0.0690
  125CHL1   H1715461   4.464   4.953  14.116 -0.8762 -0.0527  1.2538
  125CHL1   C1315462   4.299   4.844  14.011 -0.0055 -0.1895 -0.4549
  125CHL1   C1815463   4.229   4.701  14.007  0.3781  0.2778  0.1879
  125CHL1  H18A15464   4.166   4.695  13.915  0.3200  1.2102  0.1472
  125CHL1  H18B15465   4.302   4.620  13.990 -1.5617 -1.0641 -2.6182
  125CHL1  H18C15466   4.158   4.695  14.092 -2.2792  0.6613 -1.8471
  125CHL1   C1215467   4.200   4.960  14.022  0.2710 -0.0845 -0.2051
  125CHL1  H12A15468   4.137   4.942  14.112  2.3226  2.5937  1.9457
  125CHL1  H12B15469   4.250   5.059  14.027 -1.2412  0.7557 -1.2203
  125CHL1   C1115470   4.101   4.962  13.897  0.8052 -0.5984  0.0568
  125CHL1  H11A15471   4.040   4.868  13.896  1.6343 -1.1660  0.8980
  125CHL1  H11B15472   4.026   5.043  13.909  1.9106  0.2726  1.4182
  125CHL1    C915473   4.177   4.988  13.772 -0.3056  0.0711 -0.5985
  125CHL1    H915474   4.231   5.085  13.785  0.6827 -0.4301 -0.8882
  125CHL1   C1015475   4.085   5.004  13.650 -0.0187 -0.4113  0.6164
  125CHL1   C1915476   3.975   4.893  13.650 -0.2700 -0.7517 -0.3499
  125CHL1  H19A15477   3.902   4.905  13.733  1.8585 -1.0790  1.6948
  125CHL1  H19B15478   3.923   4.895  13.552 -0.9437  1.8896 -0.0141
  125CHL1  H19C15479   4.016   4.790  13.657 -0.1471 -1.0540 -3.6682
  125CHL1    C115480   4.019   5.147  13.650  0.4146  0.2576  0.1473
  125CHL1   H1A15481   3.949   5.161  13.736 -0.6798 -0.7118 -0.5469
  125CHL1   H1B15482   4.099   5.221  13.669  0.3637 -0.0741  1.8046
  125CHL1    C215483   3.945   5.179  13.520  0.0525  0.2942 -0.4414
  125CHL1   H2A15484   3.906   5.283  13.523 -2.4915 -0.5965 -0.3632
  125CHL1   H2B15485   3.853   5.117  13.520 -1.1624  1.9916  0.5354
  125CHL1   C2015486   4.408   4.804  14.258 -0.0148 -0.3948  0.2963
  125CHL1   H2015487   4.372   4.699  14.252  0.9512 -0.7579  0.6720
  125CHL1   C2115488   4.304   4.900  14.318 -0.2207  0.1920 -0.5553
  125CHL1  H21A15489   4.203   4.874  14.281 -0.1369 -0.8248 -0.1162
  125CHL1  H21B15490   4.326   5.007  14.298 -2.5243  0.4567 -2.0230
  125CHL1  H21C15491   4.296   4.883  14.428  0.0293 -1.3495 -0.7562
  125CHL1   C2215492   4.540   4.805  14.332  0.6092  0.7459 -0.1732
  125CHL1  H22A15493   4.625   4.746  14.292  0.7783 -0.6475  2.0638
  125CHL1  H22B15494   4.553   4.913  14.356 -0.9360  0.7353  0.8307
  125CHL1   C2315495   4.526   4.729  14.468  0.0325  0.0197  0.0346
  125CHL1  H23A15496   4.443   4.768  14.531  0.7763  2.1166 -0.1749
  125CHL1  H23B15497   4.498   4.623  14.454  1.4892 -0.3908  0.0723
  125CHL1   C2415498   4.649   4.745  14.550  0.0603  0.7702  0.2378
  125CHL1  H24A15499   4.737   4.708  14.492 -1.1467  1.3349 -2.1046
  125CHL1  H24B15500   4.674   4.851  14.568 -0.4382  0.7185  1.2755
  125CHL1   C2515501   4.653   4.660  14.680  0.0172 -0.2955 -0.1599
  125CHL1   H2515502   4.552   4.663  14.726  0.2205 -0.6459  0.3309
  125CHL1   C2615503   4.683   4.516  14.648  0.2125  0.3570  0.0829
  125CHL1  H26A15504   4.613   4.467  14.578 -0.8796  0.7907  0.8488
  125CHL1  H26B15505   4.781   4.506  14.597  0.8183  1.5547  0.9428
  125CHL1  H26C15506   4.657   4.465  14.743  0.2747 -1.5058 -0.8595
  125CHL1   C2715507   4.752   4.731  14.775 -0.3473  0.2307 -0.2278
  125CHL1  H27A15508   4.853   4.737  14.730 -0.3544  1.1008 -0.1388
  125CHL1  H27B15509   4.714   4.831  14.806  1.9081  0.9546  0.3885
  125CHL1  H27C15510   4.752   4.672  14.869  1.0247  1.4147  0.5409
  126CHL1    C315511   1.753   4.795  12.752 -0.1211 -0.4080 -0.5475
  126CHL1    H315512   1.725   4.690  12.774  0.9450 -0.2305  2.0601
  126CHL1    O315513   1.768   4.812  12.612 -0.0496 -0.5705 -0.5852
  126CHL1   H3'15514   1.785   4.906  12.601  0.5051 -0.7334 -1.2111
  126CHL1    C415515   1.635   4.887  12.802 -0.2841 -0.2270  0.2928
  126CHL1   H4A15516   1.636   4.988  12.756 -0.8736  0.4814  1.7603
  126CHL1   H4B15517   1.542   4.841  12.762  0.0762  0.1919 -1.0728
  126CHL1    C515518   1.623   4.900  12.955  0.0437 -0.2187  0.1668
  126CHL1    C615519   1.504   4.889  13.012  0.4834  0.3169 -0.3660
  126CHL1    H615520   1.411   4.862  12.961 -0.4627 -1.7138  2.2336
  126CHL1    C715521   1.487   4.897  13.164  0.2676 -0.3653 -0.0490
  126CHL1   H7A15522   1.403   4.966  13.185 -0.3462 -0.7552 -1.1256
  126CHL1   H7B15523   1.451   4.795  13.192  0.3581 -0.3984 -0.0538
  126CHL1    C815524   1.614   4.937  13.237 -0.6225 -0.5286  0.0948
  126CHL1    H815525   1.615   5.048  13.229  1.6373 -0.5269 -0.1818
  126CHL1   C1415526   1.596   4.893  13.383 -0.5282 -0.8562 -0.5412
  126CHL1   H1415527   1.588   4.782  13.388 -0.7927 -0.7765  1.5461
  126CHL1   C1515528   1.462   4.945  13.450  0.0932  1.1091  0.5767
  126CHL1  H15A15529   1.437   5.049  13.420 -0.4122  1.0006  0.6064
  126CHL1  H15B15530   1.374   4.883  13.420  1.8957 -0.5935 -1.4914
  126CHL1   C1615531   1.491   4.933  13.602  0.4095 -0.3287 -0.2422
  126CHL1  H16A15532   1.466   5.032  13.646  2.0827  2.0373 -4.0882
  126CHL1  H16B15533   1.427   4.853  13.645  0.2036  0.9144  1.8844
  126CHL1   C1715534   1.642   4.909  13.609  0.5805 -0.2362  0.3422
  126CHL1   H1715535   1.668   4.801  13.603 -0.0971 -0.3656 -0.5060
  126CHL1   C1315536   1.706   4.946  13.475  0.4729  0.0103  0.1085
  126CHL1   C1815537   1.708   5.096  13.466  0.4095  0.6123  0.5155
  126CHL1  H18A15538   1.609   5.143  13.485  0.6452  0.5454  2.0950
  126CHL1  H18B15539   1.780   5.136  13.541  1.5158 -0.2478 -0.0798
  126CHL1  H18C15540   1.740   5.135  13.367  0.4916  0.1217  0.3499
  126CHL1   C1215541   1.835   4.875  13.420 -0.3829  0.3539 -0.2781
  126CHL1  H12A15542   1.921   4.908  13.483 -0.1709  0.4432 -0.6158
  126CHL1  H12B15543   1.830   4.764  13.425  1.5283  0.1007 -2.2823
  126CHL1   C1115544   1.859   4.916  13.275  0.1003 -0.4161  0.5272
  126CHL1  H11A15545   1.884   5.024  13.273  2.4056 -0.8003  2.7982
  126CHL1  H11B15546   1.950   4.865  13.237 -0.0854  0.6374 -1.4373
  126CHL1    C915547   1.738   4.879  13.183 -0.1392 -0.0260  0.2553
  126CHL1    H915548   1.738   4.768  13.180  0.3158 -0.0110 -0.9839
  126CHL1   C1015549   1.752   4.914  13.037  0.1655  0.4992  0.1401
  126CHL1   C1915550   1.783   5.061  13.028 -0.6503  0.0224  0.0541
  126CHL1  H19A15551   1.788   5.094  12.922  0.5864  2.1006  0.7020
  126CHL1  H19B15552   1.716   5.135  13.078  0.6670  0.8299  0.6900
  126CHL1  H19C15553   1.882   5.068  13.079 -0.5246  0.1407 -0.2081
  126CHL1    C115554   1.860   4.833  12.978 -0.0178  0.3567  0.0687
  126CHL1   H1A15555   1.952   4.866  13.029  2.0509 -2.1476 -1.7598
  126CHL1   H1B15556   1.847   4.724  12.999  2.9451 -0.7312 -2.8081
  126CHL1    C215557   1.885   4.834  12.829 -0.4999  0.2386 -0.2929
  126CHL1   H2A15558   1.970   4.770  12.794 -1.2983 -1.5548  0.8803
  126CHL1   H2B15559   1.915   4.937  12.801  1.4818  0.0448  0.9310
  126CHL1   C2015560   1.710   4.957  13.744 -0.6582 -0.1097 -0.7599
  126CHL1   H2015561   1.711   5.068  13.755 -1.0793 -0.1691 -0.0718
  126CHL1   C2115562   1.857   4.905  13.748 -0.0901  0.8434 -0.8059
  126CHL1  H21A15563   1.860   4.802  13.706 -2.3697 -1.4277  3.8842
  126CHL1  H21B15564   1.893   4.916  13.852 -3.3390 -0.2427  0.5577
  126CHL1  H21C15565   1.909   4.980  13.685  0.0924  0.0975 -1.5607
  126CHL1   C2215566   1.638   4.903  13.872  0.2193  0.3724  0.2438
  126CHL1  H22A15567   1.527   4.892  13.865  0.3429 -1.2616  0.4284
  126CHL1  H22B15568   1.665   4.797  13.892  2.0666  0.0713 -3.1353
  126CHL1   C2315569   1.648   5.006  13.982  0.0598  0.4910 -0.3244
  126CHL1  H23A15570   1.617   4.960  14.078  2.3411 -1.1649 -0.2947
  126CHL1  H23B15571   1.754   5.036  13.996 -0.5630  2.7251 -0.0150
  126CHL1   C2415572   1.574   5.140  13.961 -0.4295  0.3248 -0.1260
  126CHL1  H24A15573   1.595   5.182  13.860 -3.8085  0.1670 -1.0079
  126CHL1  H24B15574   1.464   5.122  13.964 -0.7305  2.0631  3.0485
  126CHL1   C2515575   1.613   5.246  14.067  0.4412 -0.1778  0.0358
  126CHL1   H2515576   1.724   5.252  14.068  0.3776  1.6226 -0.3728
  126CHL1   C2615577   1.564   5.381  14.027 -0.0493  0.6238 -0.4916
  126CHL1  H26A15578   1.602   5.459  14.096  0.1330 -0.2604  0.4338
  126CHL1  H26B15579   1.592   5.391  13.920 -1.4105 -0.5422 -0.9933
  126CHL1  H26C15580   1.454   5.394  14.024  0.1913  3.4629 -0.0819
  126CHL1   C2715581   1.534   5.208  14.195  0.0150 -0.3474 -0.2830
  126CHL1  H27A15582   1.427   5.193  14.168  0.5439 -0.9098 -2.2364
  126CHL1  H27B15583   1.558   5.109  14.239  0.7041  0.3946  1.0610
  126CHL1  H27C15584   1.546   5.286  14.273  0.0470 -0.1786 -0.4566
  127CHL1    C315585   2.043   5.403  12.980  0.0463  0.1905  0.4302
  127CHL1    H315586   1.934   5.394  12.962  0.4248  2.0101 -3.9518
  127CHL1    O315587   2.101   5.422  12.848  0.0343 -0.1413 -1.2940
  127CHL1   H3'15588   2.052   5.499  12.818 -0.2684 -0.4427 -1.5806
  127CHL1    C415589   2.075   5.528  13.058 -0.0171 -0.1599  0.2034
  127CHL1   H4A15590   2.184   5.550  13.064  0.0466 -0.3977 -0.0558
  127CHL1   H4B15591   2.040   5.615  12.998 -0.3694 -1.3793 -1.4185
  127CHL1    C515592   2.035   5.514  13.202 -0.7001  0.2439 -0.1787
  127CHL1    C615593   1.959   5.609  13.260 -0.4552  0.2894  0.2249
  127CHL1    H615594   1.925   5.699  13.206 -0.1405 -0.0248 -0.5079
  127CHL1    C715595   1.917   5.618  13.403 -0.2675  0.1386  0.5592
  127CHL1   H7A15596   1.947   5.718  13.440  1.9333 -1.1970  2.7613
  127CHL1   H7B15597   1.809   5.592  13.398  0.2919 -2.2734 -3.2930
  127CHL1    C815598   2.004   5.525  13.487 -0.2250  0.4452 -0.0217
  127CHL1    H815599   2.106   5.568  13.496 -0.0730 -0.2931  2.7919
  127CHL1   C1415600   1.960   5.509  13.636 -0.5322 -0.6029  0.2904
  127CHL1   H1415601   1.860   5.461  13.631 -0.0974 -1.4105 -0.8840
  127CHL1   C1515602   1.939   5.641  13.709  0.5405 -0.3638 -0.0545
  127CHL1  H15A15603   2.023   5.713  13.698  1.4798 -1.6193 -1.4523
  127CHL1  H15B15604   1.844   5.687  13.674  0.5114 -0.8864 -0.6814
  127CHL1   C1615605   1.938   5.591  13.857  0.0769  0.3192 -0.2976
  127CHL1  H16A15606   2.017   5.642  13.918 -0.0282 -0.3383  0.4037
  127CHL1  H16B15607   1.838   5.608  13.903 -0.9360 -4.2055 -0.3421
  127CHL1   C1715608   1.973   5.445  13.858 -0.0734  0.6728  0.6424
  127CHL1   H1715609   1.873   5.398  13.849 -0.1779  0.8247  0.9769
  127CHL1   C1315610   2.044   5.415  13.723  0.3591  0.0167  0.0827
  127CHL1   C1815611   2.190   5.454  13.732 -0.0139 -0.5060  0.2690
  127CHL1  H18A15612   2.247   5.383  13.796 -0.1899  0.3568  1.4096
  127CHL1  H18B15613   2.248   5.460  13.637 -0.1074 -0.9031  0.1843
  127CHL1  H18C15614   2.197   5.553  13.780  2.0934 -1.1118  1.3471
  127CHL1   C1215615   2.024   5.277  13.659 -0.2783 -0.0283 -0.6598
  127CHL1  H12A15616   2.084   5.207  13.721  0.2460  1.9145  1.1695
  127CHL1  H12B15617   1.916   5.255  13.650 -0.4861  1.1924 -1.2600
  127CHL1   C1115618   2.070   5.274  13.516 -0.4171 -0.8047  0.3364
  127CHL1  H11A15619   2.180   5.282  13.518 -0.4699  0.2880 -0.3854
  127CHL1  H11B15620   2.046   5.173  13.477  3.3775 -1.2597 -1.2484
  127CHL1    C915621   2.021   5.383  13.424  0.2220  0.7451  0.1781
  127CHL1    H915622   1.921   5.345  13.397  0.8826 -1.3310  0.4284
  127CHL1   C1015623   2.088   5.391  13.287 -0.1889  0.5848  1.1767
  127CHL1   C1915624   2.238   5.411  13.312 -0.6910  0.3435  0.1443
  127CHL1  H19A15625   2.282   5.329  13.374  0.4264  1.3824  0.7570
  127CHL1  H19B15626   2.298   5.421  13.219 -1.4937 -0.6945 -0.5027
  127CHL1  H19C15627   2.247   5.498  13.380  0.2181  0.6630 -0.3724
  127CHL1    C115628   2.055   5.264  13.193 -0.7845 -0.2882 -0.2344
  127CHL1   H1A15629   2.104   5.180  13.247  1.0019  0.2086 -1.0100
  127CHL1   H1B15630   1.945   5.249  13.193 -0.8080 -0.1661 -1.1387
  127CHL1    C215631   2.102   5.279  13.046 -0.3991 -0.4285 -0.6303
  127CHL1   H2A15632   2.079   5.184  12.993 -0.6477 -0.2563 -0.8306
  127CHL1   H2B15633   2.213   5.280  13.035 -0.4443  1.4458 -1.1715
  127CHL1   C2015634   2.039   5.396  13.986  0.5178  0.1386  0.2136
  127CHL1   H2015635   2.136   5.449  13.995 -0.8069  2.6207  0.7249
  127CHL1   C2115636   2.061   5.247  13.994  0.2152 -0.3119  0.6453
  127CHL1  H21A15637   2.147   5.209  13.935 -0.2780  0.5698 -0.6900
  127CHL1  H21B15638   1.971   5.201  13.947 -1.2924  1.8507  1.2410
  127CHL1  H21C15639   2.061   5.218  14.101  0.1212  0.5522  0.8853
  127CHL1   C2215640   1.956   5.437  14.107  0.6863 -0.1017  0.7037
  127CHL1  H22A15641   1.941   5.546  14.092  0.7738  0.0435  1.5895
  127CHL1  H22B15642   1.851   5.401  14.100  1.1572 -2.1569  2.8638
  127CHL1   C2315643   2.010   5.425  14.252 -0.2378  0.3121 -0.2617
  127CHL1  H23A15644   2.006   5.317  14.276 -0.4682  0.6908  1.5007
  127CHL1  H23B15645   2.119   5.446  14.246 -0.3506  0.5979 -1.9350
  127CHL1   C2415646   1.938   5.520  14.346 -0.4686 -0.7661  0.2340
  127CHL1  H24A15647   1.955   5.628  14.326 -2.5990 -0.9166 -3.0927
  127CHL1  H24B15648   1.829   5.509  14.326 -0.9840 -0.5600  2.6235
  127CHL1   C2515649   1.962   5.500  14.493  0.0347  0.2172  0.5213
  127CHL1   H2515650   1.937   5.395  14.519 -2.8959  1.0342  1.3600
  127CHL1   C2615651   2.105   5.522  14.539  0.1631  0.2532  0.0710
  127CHL1  H26A15652   2.176   5.468  14.472  0.6740  1.3271 -0.2766
  127CHL1  H26B15653   2.136   5.629  14.538  1.5618 -0.1178 -0.9014
  127CHL1  H26C15654   2.115   5.480  14.641  1.0013  0.3198  0.0246
  127CHL1   C2715655   1.859   5.593  14.565  0.2582 -0.0511  0.0216
  127CHL1  H27A15656   1.862   5.568  14.673  2.1077 -0.6237 -0.1204
  127CHL1  H27B15657   1.879   5.700  14.544  1.6388 -0.3558 -0.3616
  127CHL1  H27C15658   1.759   5.568  14.524  0.8077 -2.8831  0.1740
  128CHL1    C315659   2.845   1.451  12.185  0.0263  0.4250 -0.2485
  128CHL1    H315660   2.736   1.438  12.203  0.0639 -0.5274 -0.6459
  128CHL1    O315661   2.869   1.444  12.048  0.3584  0.7416  0.1666
  128CHL1   H3'15662   2.963   1.447  12.032 -0.1265 -0.6763 -5.1191
  128CHL1    C415663   2.893   1.587  12.236  0.4710  0.3404 -0.0378
  128CHL1   H4A15664   3.003   1.583  12.218  0.3676 -1.4726 -0.4826
  128CHL1   H4B15665   2.850   1.670  12.176  1.4171  1.0557  0.2450
  128CHL1    C515666   2.870   1.599  12.383 -0.7604  0.0842 -0.0558
  128CHL1    C615667   2.801   1.707  12.429 -0.3745 -0.1786 -0.0489
  128CHL1    H615668   2.766   1.790  12.365 -0.7442  0.5795  1.1002
  128CHL1    C715669   2.778   1.728  12.576 -0.4962  0.5296  0.3514
  128CHL1   H7A15670   2.826   1.827  12.593  1.0117 -0.2456  0.8305
  128CHL1   H7B15671   2.669   1.734  12.597 -0.3426  4.1153  0.7096
  128CHL1    C815672   2.852   1.629  12.667  0.4532  0.5323 -0.3597
  128CHL1    H815673   2.955   1.667  12.677  1.3922 -2.1744  1.3941
  128CHL1   C1415674   2.792   1.626  12.804  0.4198 -0.4567  0.0927
  128CHL1   H1415675   2.688   1.587  12.797  0.3118 -0.0940 -0.4337
  128CHL1   C1515676   2.781   1.757  12.875 -0.1148 -0.5720  0.4089
  128CHL1  H15A15677   2.877   1.812  12.866  0.2898 -1.4349 -0.6906
  128CHL1  H15B15678   2.706   1.828  12.833 -0.3685 -0.3439  1.2159
  128CHL1   C1615679   2.761   1.731  13.023 -0.5340  0.4039 -0.4556
  128CHL1  H16A15680   2.835   1.787  13.084 -1.6805  0.4383  0.9478
  128CHL1  H16B15681   2.662   1.757  13.066  0.1881  1.3620  0.6862
  128CHL1   C1715682   2.790   1.575  13.035 -0.2839  0.2093 -0.1418
  128CHL1   H1715683   2.694   1.522  13.014  0.9394 -1.0203 -3.3269
  128CHL1   C1315684   2.873   1.539  12.905  0.9412 -0.0441  0.1420
  128CHL1   C1815685   3.019   1.591  12.920  0.4970  0.7223  0.7577
  128CHL1  H18A15686   3.027   1.702  12.925  1.7274  0.8164 -1.7048
  128CHL1  H18B15687   3.070   1.557  13.013  1.3680  0.5762  0.2328
  128CHL1  H18C15688   3.088   1.560  12.838 -2.5238 -0.1457 -1.6419
  128CHL1   C1215689   2.854   1.397  12.859 -0.4694 -0.5059 -0.5900
  128CHL1  H12A15690   2.897   1.321  12.927  0.5707  0.0572 -0.5853
  128CHL1  H12B15691   2.745   1.381  12.852 -0.5824  0.8809 -2.9404
  128CHL1   C1115692   2.911   1.386  12.718  0.3264 -0.2612  0.4261
  128CHL1  H11A15693   3.021   1.396  12.727  0.0598  3.7962  0.9212
  128CHL1  H11B15694   2.875   1.285  12.688  0.2109 -0.3850  0.9507
  128CHL1    C915695   2.853   1.489  12.611  0.0876 -0.4454 -0.5878
  128CHL1    H915696   2.747   1.458  12.594 -0.0802  0.3900 -1.1487
  128CHL1   C1015697   2.920   1.485  12.471 -0.1043  0.4175  0.0478
  128CHL1   C1915698   3.077   1.502  12.488  0.1348  0.0313  0.0231
  128CHL1  H19A15699   3.105   1.587  12.554 -1.0774 -0.4052  1.1523
  128CHL1  H19B15700   3.121   1.409  12.528  1.9716 -0.1535 -2.2183
  128CHL1  H19C15701   3.136   1.519  12.396  0.2778  0.5471  0.2045
  128CHL1    C115702   2.888   1.346  12.406 -0.0563  0.4355 -0.2291
  128CHL1   H1A15703   2.934   1.261  12.462  1.9802  0.5494 -1.6590
  128CHL1   H1B15704   2.778   1.337  12.421  0.1274 -0.1315  0.9660
  128CHL1    C215705   2.919   1.344  12.259 -0.2536 -0.5111  0.4977
  128CHL1   H2A15706   2.880   1.254  12.207 -2.4689  0.8001 -0.2391
  128CHL1   H2B15707   3.029   1.350  12.244 -0.2736 -1.0605  0.0693
  128CHL1   C2015708   2.842   1.542  13.182 -0.4660 -0.3632  0.6780
  128CHL1   H2015709   2.920   1.617  13.207 -0.9074  0.1908  0.4063
  128CHL1   C2115710   2.902   1.401  13.182 -0.1484 -0.0840  0.3004
  128CHL1  H21A15711   2.988   1.404  13.111 -0.5040 -2.1775 -0.2778
  128CHL1  H21B15712   2.844   1.314  13.147  1.8057 -0.5873 -1.9410
  128CHL1  H21C15713   2.956   1.379  13.277  1.8191  0.6867 -0.5792
  128CHL1   C2215714   2.741   1.559  13.290  0.7964 -0.1791  0.0347
  128CHL1  H22A15715   2.705   1.664  13.291  0.8838 -0.1330 -0.8767
  128CHL1  H22B15716   2.652   1.494  13.273 -0.5784  0.9615  2.3927
  128CHL1   C2315717   2.788   1.543  13.436  0.3821 -0.3449  0.1368
  128CHL1  H23A15718   2.814   1.437  13.456  0.0940 -0.2862  0.8761
  128CHL1  H23B15719   2.879   1.599  13.466  0.1217 -0.3299  0.9447
  128CHL1   C2415720   2.670   1.597  13.530 -0.3731  0.4785  0.2535
  128CHL1  H24A15721   2.642   1.704  13.523 -1.3166  0.1927 -0.5670
  128CHL1  H24B15722   2.585   1.527  13.514  0.4864 -0.0645 -2.2885
  128CHL1   C2515723   2.699   1.581  13.682 -0.1374  0.4984 -0.2049
  128CHL1   H2515724   2.769   1.494  13.690  0.2007  0.9531  2.5823
  128CHL1   C2615725   2.786   1.685  13.744  0.5173 -0.1078  0.4444
  128CHL1  H26A15726   2.856   1.725  13.668  2.5048 -1.8715  1.2408
  128CHL1  H26B15727   2.729   1.775  13.775  0.1692  0.6609 -2.1749
  128CHL1  H26C15728   2.848   1.656  13.831  0.2189 -1.9201  0.0976
  128CHL1   C2715729   2.570   1.557  13.759  0.6457 -0.1971  0.2341
  128CHL1  H27A15730   2.527   1.461  13.724  0.9453  0.1334 -1.0684
  128CHL1  H27B15731   2.604   1.555  13.865 -0.8955  2.0848  0.8634
  128CHL1  H27C15732   2.498   1.642  13.754  2.5745  1.5144  0.2827
  129CHL1    C315733   6.640   6.249  12.435  0.1923 -0.5596 -0.1499
  129CHL1    H315734   6.663   6.190  12.526  3.0349 -2.5510 -1.9906
  129CHL1    O315735   6.641   6.165  12.318 -0.1306 -0.2374 -0.0514
  129CHL1   H3'15736   6.579   6.093  12.335  0.8910 -0.7771  1.6068
  129CHL1    C415737   6.495   6.302  12.455 -0.2235 -0.2895 -0.4823
  129CHL1   H4A15738   6.468   6.353  12.360 -0.9477 -1.4166 -0.9004
  129CHL1   H4B15739   6.434   6.212  12.476 -1.8856  0.9398  0.1399
  129CHL1    C515740   6.479   6.399  12.573 -0.5297 -0.0399 -0.0432
  129CHL1    C615741   6.375   6.377  12.658 -0.5013  0.5187  0.2288
  129CHL1    H615742   6.303   6.302  12.624 -0.8635  0.9157  0.1162
  129CHL1    C715743   6.353   6.470  12.780  0.6749 -0.7868  0.7409
  129CHL1   H7A15744   6.249   6.507  12.768  0.1334 -2.2777  0.6482
  129CHL1   H7B15745   6.347   6.408  12.873 -0.0406  2.0636  2.7289
  129CHL1    C815746   6.438   6.595  12.788  0.2516 -0.1732 -0.3475
  129CHL1    H815747   6.393   6.676  12.727 -0.6533 -0.2223  0.2344
  129CHL1   C1415748   6.464   6.639  12.936  0.1338 -0.3416  0.0063
  129CHL1   H1415749   6.532   6.560  12.973  2.1134  0.8133 -0.9890
  129CHL1   C1515750   6.345   6.638  13.037 -0.7776  0.2717 -0.2571
  129CHL1  H15A15751   6.246   6.682  13.009 -1.1696  0.5130  1.4266
  129CHL1  H15B15752   6.328   6.536  13.077  1.7408  0.3303  1.1705
  129CHL1   C1615753   6.397   6.722  13.162 -0.3922  0.1010  0.1037
  129CHL1  H16A15754   6.324   6.804  13.181 -0.6397  0.2505 -1.3638
  129CHL1  H16B15755   6.414   6.661  13.253  0.1494  1.7188  1.1296
  129CHL1   C1715756   6.542   6.784  13.111  1.1497  0.1441  0.0713
  129CHL1   H1715757   6.623   6.712  13.136 -0.9873 -2.7392 -0.8399
  129CHL1   C1315758   6.530   6.776  12.956  0.6703  0.5499  0.6732
  129CHL1   C1815759   6.443   6.886  12.899 -0.3407 -1.1098  0.0302
  129CHL1  H18A15760   6.350   6.903  12.957 -0.3230 -2.1154  0.3777
  129CHL1  H18B15761   6.494   6.983  12.920 -1.7852 -0.7990  2.4698
  129CHL1  H18C15762   6.411   6.869  12.794  0.4259 -0.1111 -0.3760
  129CHL1   C1215763   6.666   6.776  12.875 -0.1858  0.0212  0.3076
  129CHL1  H12A15764   6.714   6.876  12.872  2.7852 -1.2511  1.8145
  129CHL1  H12B15765   6.739   6.705  12.921  0.5999 -0.0344 -0.9803
  129CHL1   C1115766   6.651   6.719  12.738  0.1979  0.7149  0.1837
  129CHL1  H11A15767   6.605   6.795  12.672 -0.6122  1.4725  1.5702
  129CHL1  H11B15768   6.745   6.696  12.684 -0.1470  0.4906 -0.3308
  129CHL1    C915769   6.577   6.574  12.728 -0.2441 -0.1310 -0.2375
  129CHL1    H915770   6.632   6.508  12.798  1.7765  2.3629  0.6865
  129CHL1   C1015771   6.581   6.514  12.588 -0.3976  0.2529 -0.5898
  129CHL1   C1915772   6.527   6.620  12.486 -0.1913  0.2611 -0.1810
  129CHL1  H19A15773   6.489   6.579  12.390 -1.2716 -0.3388  0.4863
  129CHL1  H19B15774   6.444   6.681  12.526  1.1005  1.1609  1.2317
  129CHL1  H19C15775   6.609   6.693  12.468  0.4499  0.2369  2.3260
  129CHL1    C115776   6.722   6.463  12.551  0.2016 -0.6617  0.7597
  129CHL1   H1A15777   6.788   6.550  12.532 -0.4413 -0.1445  0.8462
  129CHL1   H1B15778   6.757   6.405  12.639 -0.5046 -1.3946  0.5734
  129CHL1    C215779   6.723   6.374  12.425 -0.2556 -0.7273 -0.0404
  129CHL1   H2A15780   6.827   6.338  12.408  0.7227 -0.0389  3.7721
  129CHL1   H2B15781   6.699   6.433  12.334 -0.8003  0.8372  1.0770
  129CHL1   C2015782   6.582   6.917  13.183  0.1878  0.5934 -0.1761
  129CHL1   H2015783   6.495   6.985  13.165 -0.5096 -0.3053 -0.2851
  129CHL1   C2115784   6.711   6.970  13.138  0.5165 -0.3590  0.6146
  129CHL1  H21A15785   6.782   6.885  13.130  1.4434  0.3998  0.6232
  129CHL1  H21B15786   6.762   7.045  13.202  0.8373 -0.1825  0.1562
  129CHL1  H21C15787   6.695   7.014  13.038 -0.4751 -1.3465  0.3123
  129CHL1   C2215788   6.589   6.884  13.335  0.8591 -0.4265 -0.5375
  129CHL1  H22A15789   6.506   6.819  13.369  1.5674 -0.1210  1.9573
  129CHL1  H22B15790   6.685   6.830  13.349  1.2173  0.6119  1.3015
  129CHL1   C2315791   6.570   7.012  13.421  0.7399 -0.0294 -0.3305
  129CHL1  H23A15792   6.631   7.100  13.389 -0.2706  0.5970 -0.5799
  129CHL1  H23B15793   6.469   7.058  13.414  1.0525  0.5404 -1.3826
  129CHL1   C2415794   6.601   6.984  13.566 -0.3353  0.0312  0.2790
  129CHL1  H24A15795   6.533   6.899  13.586 -0.6008  0.3135  0.5592
  129CHL1  H24B15796   6.705   6.945  13.563 -0.3235 -0.0205  1.1161
  129CHL1   C2515797   6.580   7.080  13.670  0.0667 -0.5240 -0.2374
  129CHL1   H2515798   6.627   7.175  13.637 -0.6558 -0.1892 -0.3122
  129CHL1   C2615799   6.429   7.100  13.692  0.6099 -0.5097 -0.6127
  129CHL1  H26A15800   6.388   6.997  13.693  0.7088 -0.5450 -0.2478
  129CHL1  H26B15801   6.419   7.165  13.781  1.8270  2.8828 -2.7441
  129CHL1  H26C15802   6.382   7.150  13.605  0.1270 -1.8570 -1.1430
  129CHL1   C2715803   6.658   7.045  13.801  0.7335  0.0936  0.1655
  129CHL1  H27A15804   6.628   7.122  13.875  0.9824  0.6933 -0.3453
  129CHL1  H27B15805   6.633   6.946  13.847  3.5019 -0.1308  1.3805
  129CHL1  H27C15806   6.769   7.046  13.796  0.7425  0.3775  0.4337
  130CHL1    C315807   2.174   6.344  12.691 -0.4882  0.4054  0.6896
  130CHL1    H315808   2.100   6.263  12.673 -0.5786  0.7092 -0.3026
  130CHL1    O315809   2.263   6.352  12.584  0.0725  0.1745 -0.4398
  130CHL1   H3'15810   2.307   6.268  12.570  2.5295  1.3739 -0.3654
  130CHL1    C415811   2.099   6.476  12.710 -0.1053  0.1813  0.0308
  130CHL1   H4A15812   2.167   6.563  12.720 -2.1463  1.7326  1.0843
  130CHL1   H4B15813   2.037   6.480  12.618  1.1054 -1.5595 -0.9291
  130CHL1    C515814   2.017   6.483  12.837  0.1240  0.0814  0.6336
  130CHL1    C615815   1.892   6.517  12.829  0.2438 -0.1342  0.1851
  130CHL1    H615816   1.847   6.534  12.730  0.3676  0.4521  0.2260
  130CHL1    C715817   1.792   6.533  12.939 -0.2888  0.1386 -0.1953
  130CHL1   H7A15818   1.740   6.631  12.931 -1.3675 -0.3748  0.3750
  130CHL1   H7B15819   1.725   6.445  12.940 -0.9898  0.6647 -0.3692
  130CHL1    C815820   1.869   6.531  13.079 -0.0186  0.3051  0.0003
  130CHL1    H815821   1.914   6.631  13.097 -0.8414  0.7439 -0.3258
  130CHL1   C1415822   1.767   6.503  13.194  0.0681  0.0194  0.6230
  130CHL1   H1415823   1.743   6.395  13.185  0.2174 -0.0513  1.0216
  130CHL1   C1515824   1.640   6.591  13.198  0.3410  0.2222 -0.2594
  130CHL1  H15A15825   1.655   6.697  13.169  0.2384  0.3658  0.2082
  130CHL1  H15B15826   1.561   6.544  13.136 -0.4645 -0.3034  1.1201
  130CHL1   C1615827   1.597   6.589  13.351 -0.6464  0.2889  0.3402
  130CHL1  H16A15828   1.613   6.692  13.390 -0.1147  0.4816 -0.3626
  130CHL1  H16B15829   1.489   6.570  13.365 -0.7541  0.9304  0.4199
  130CHL1   C1715830   1.696   6.489  13.415  0.0869 -0.0160  0.7210
  130CHL1   H1715831   1.660   6.389  13.384  2.7293 -0.3270 -1.7416
  130CHL1   C1315832   1.825   6.506  13.331  0.3123 -0.1308 -0.1275
  130CHL1   C1815833   1.903   6.634  13.357 -0.1270 -0.8205  0.4770
  130CHL1  H18A15834   1.988   6.639  13.286 -0.6380 -1.5447 -0.1926
  130CHL1  H18B15835   1.831   6.716  13.336  0.4338 -0.4692 -0.1160
  130CHL1  H18C15836   1.944   6.631  13.460  1.3020  0.6779 -0.0053
  130CHL1   C1215837   1.919   6.387  13.330 -1.1727 -0.1878 -0.6084
  130CHL1  H12A15838   1.976   6.392  13.425  0.8290  2.1518 -1.8340
  130CHL1  H12B15839   1.867   6.289  13.324  1.5091 -1.7406 -0.3403
  130CHL1   C1115840   2.027   6.388  13.223  0.5095  0.1226 -0.5408
  130CHL1  H11A15841   2.112   6.455  13.248  0.1562  0.9534 -1.5033
  130CHL1  H11B15842   2.080   6.292  13.202  3.6639  1.3942  0.8890
  130CHL1    C915843   1.971   6.415  13.077 -0.1869 -1.3012  0.1254
  130CHL1    H915844   1.914   6.324  13.047 -2.7444  0.0667  0.5674
  130CHL1   C1015845   2.080   6.441  12.969 -0.0029 -0.2963 -0.7084
  130CHL1   C1915846   2.178   6.548  13.021 -0.2592  0.3481 -0.1040
  130CHL1  H19A15847   2.122   6.631  13.069  2.0785  1.7988  0.2567
  130CHL1  H19B15848   2.250   6.497  13.088  1.5452  0.4921 -1.8496
  130CHL1  H19C15849   2.241   6.587  12.938  0.8830 -1.0982  0.0530
  130CHL1    C115850   2.159   6.304  12.950  0.6531  0.7007  0.4873
  130CHL1   H1A15851   2.210   6.277  13.045 -0.6982 -3.7352  0.1642
  130CHL1   H1B15852   2.086   6.220  12.941 -1.9738  2.5539  2.6343
  130CHL1    C215853   2.249   6.303  12.828  0.6936 -0.5680 -0.0659
  130CHL1   H2A15854   2.298   6.203  12.826  0.6643 -0.5761 -1.1626
  130CHL1   H2B15855   2.331   6.376  12.843  0.0774  0.0485  0.3835
  130CHL1   C2015856   1.711   6.498  13.564 -0.0779  0.2138 -0.3717
  130CHL1   H2015857   1.805   6.548  13.596 -0.9201  0.5624  1.7518
  130CHL1   C2115858   1.726   6.351  13.610 -0.0219  0.8496  0.4162
  130CHL1  H21A15859   1.765   6.351  13.715  0.9988  2.4255  0.0735
  130CHL1  H21B15860   1.806   6.306  13.548  0.6751  1.9413  0.5021
  130CHL1  H21C15861   1.632   6.293  13.601 -0.3752  1.2340  1.4565
  130CHL1   C2215862   1.592   6.565  13.637 -0.3159  0.4908 -0.6465
  130CHL1  H22A15863   1.596   6.672  13.610 -1.9974  0.6160 -0.5357
  130CHL1  H22B15864   1.494   6.527  13.602  0.3249 -1.7244 -0.1718
  130CHL1   C2315865   1.605   6.557  13.794  0.3241 -0.0825  0.6443
  130CHL1  H23A15866   1.562   6.461  13.829  0.3733 -0.2052  0.3704
  130CHL1  H23B15867   1.713   6.543  13.811  0.0780 -0.2338  2.2534
  130CHL1   C2415868   1.542   6.680  13.864  0.3087 -0.1870  0.0717
  130CHL1  H24A15869   1.604   6.761  13.820 -1.4486  0.4855 -1.3286
  130CHL1  H24B15870   1.444   6.700  13.815  0.9535 -1.6739 -1.9582
  130CHL1   C2515871   1.537   6.688  14.019 -0.0610  0.6140  0.3486
  130CHL1   H2515872   1.537   6.793  14.057  3.7838  0.8024  0.2376
  130CHL1   C2615873   1.401   6.633  14.069 -0.2156 -0.7556  0.2328
  130CHL1  H26A15874   1.383   6.532  14.028  0.1285 -0.1821 -1.4064
  130CHL1  H26B15875   1.405   6.659  14.177  0.0254 -0.1546  0.0860
  130CHL1  H26C15876   1.319   6.693  14.024 -0.4303  0.0889  1.6748
  130CHL1   C2715877   1.662   6.621  14.083  0.6291 -0.2081 -0.4188
  130CHL1  H27A15878   1.657   6.511  14.076 -1.6289 -0.2164  0.3988
  130CHL1  H27B15879   1.749   6.667  14.031 -0.4118  2.3954 -0.0546
  130CHL1  H27C15880   1.661   6.655  14.189  1.0738  1.2291 -0.8418
  131CHL1    C315881   3.138   4.378  13.049 -0.2918 -0.3940 -0.3701
  131CHL1    H315882   3.080   4.471  13.063  0.6272  0.1459 -0.0483
  131CHL1    O315883   3.213   4.385  12.923  0.6420  0.4422 -0.5299
  131CHL1   H3'15884   3.304   4.366  12.949  0.2981 -1.4876 -0.6182
  131CHL1    C415885   3.243   4.369  13.163  0.3731  0.0948  0.0016
  131CHL1   H4A15886   3.315   4.287  13.146  0.2502 -0.4785  1.9148
  131CHL1   H4B15887   3.302   4.462  13.175 -0.7250  0.9416 -0.9698
  131CHL1    C515888   3.175   4.346  13.300 -0.1665  0.0082  0.6221
  131CHL1    C615889   3.201   4.432  13.408 -0.0597  0.5439 -0.9739
  131CHL1    H615890   3.280   4.508  13.409 -0.6556  1.2371  1.7864
  131CHL1    C715891   3.141   4.410  13.550 -0.1702 -0.8600 -0.2622
  131CHL1   H7A15892   3.215   4.430  13.630 -0.7879 -1.3928  0.4450
  131CHL1   H7B15893   3.054   4.479  13.563 -0.5436 -1.2463 -0.6722
  131CHL1    C815894   3.073   4.271  13.563  0.0536  0.2386 -0.2604
  131CHL1    H815895   3.151   4.191  13.568 -1.6288 -1.5392 -1.0347
  131CHL1   C1415896   2.983   4.260  13.687 -0.6495  0.1448  0.0682
  131CHL1   H1415897   2.898   4.331  13.672 -0.1121  0.5837 -1.0613
  131CHL1   C1515898   3.064   4.293  13.820  0.5103  0.9883 -0.3859
  131CHL1  H15A15899   3.158   4.235  13.825 -0.3364 -0.5345 -1.2736
  131CHL1  H15B15900   3.093   4.399  13.835 -0.0796  1.2739 -1.1706
  131CHL1   C1615901   2.970   4.246  13.931  0.4208 -0.2808  0.1866
  131CHL1  H16A15902   3.035   4.192  14.003  0.6674  0.1560  0.2995
  131CHL1  H16B15903   2.919   4.332  13.979 -0.2688 -0.8779  0.5345
  131CHL1   C1715904   2.860   4.156  13.860  0.0835  0.3568  0.0067
  131CHL1   H1715905   2.782   4.228  13.828 -1.6595 -1.5297 -0.1265
  131CHL1   C1315906   2.913   4.124  13.717  0.4604 -0.0126  0.0286
  131CHL1   C1815907   3.019   4.002  13.727  0.3220 -0.4821 -0.7588
  131CHL1  H18A15908   3.077   4.006  13.633  1.1243 -0.1864 -0.2616
  131CHL1  H18B15909   3.079   4.016  13.819 -1.6204 -1.2105  0.7006
  131CHL1  H18C15910   2.967   3.904  13.730  1.0732 -0.8675 -0.0185
  131CHL1   C1215911   2.813   4.112  13.597  0.3840  0.2954  0.1974
  131CHL1  H12A15912   2.743   4.026  13.594  1.6787 -0.8482  1.3967
  131CHL1  H12B15913   2.746   4.200  13.606 -0.7473 -0.5164 -0.0516
  131CHL1   C1115914   2.887   4.120  13.456 -0.1340 -0.1009  0.6409
  131CHL1  H11A15915   2.937   4.023  13.438 -1.5939 -0.4961 -1.7488
  131CHL1  H11B15916   2.809   4.130  13.378 -0.1047  0.4851  0.6770
  131CHL1    C915917   2.985   4.238  13.441 -0.8980  0.3717  0.3479
  131CHL1    H915918   2.924   4.331  13.430  0.5482  1.1173 -2.0485
  131CHL1   C1015919   3.071   4.234  13.311 -0.4359 -0.0619  0.0911
  131CHL1   C1915920   3.164   4.114  13.318  0.4075 -0.1588  0.0593
  131CHL1  H19A15921   3.227   4.106  13.410  3.5555 -0.1422 -1.9489
  131CHL1  H19B15922   3.098   4.025  13.319  1.0951 -0.6851  0.1346
  131CHL1  H19C15923   3.223   4.101  13.225 -0.5370  2.1190 -0.9113
  131CHL1    C115924   2.977   4.240  13.186  0.3664 -0.1056 -0.1172
  131CHL1   H1A15925   2.907   4.155  13.195 -1.1448  1.3375  3.8484
  131CHL1   H1B15926   2.921   4.334  13.205  2.9601  1.0529  2.5438
  131CHL1    C215927   3.046   4.254  13.050 -0.5417 -0.2373 -0.4531
  131CHL1   H2A15928   2.965   4.268  12.976 -0.5192 -0.3819 -0.5060
  131CHL1   H2B15929   3.105   4.166  13.016 -0.4388 -0.5242  0.4419
  131CHL1   C2015930   2.793   4.040  13.946 -0.4492  0.2520 -0.5615
  131CHL1   H2015931   2.860   3.952  13.956 -3.6684 -2.2436  1.0556
  131CHL1   C2115932   2.666   3.986  13.871  0.1531  0.0291  0.0556
  131CHL1  H21A15933   2.686   3.926  13.780  1.6660  1.8401 -0.8898
  131CHL1  H21B15934   2.597   4.069  13.847  0.2739  0.6070  1.6098
  131CHL1  H21C15935   2.605   3.921  13.936 -0.4005 -1.7938 -2.1307
  131CHL1   C2215936   2.758   4.077  14.091  1.3101 -0.1788  0.7063
  131CHL1  H22A15937   2.833   4.145  14.136 -0.7337  2.0709  0.8943
  131CHL1  H22B15938   2.659   4.127  14.093 -0.8524 -4.0707  2.3816
  131CHL1   C2315939   2.737   3.955  14.184  0.7196  0.6816  0.4529
  131CHL1  H23A15940   2.641   3.903  14.167  1.4674 -0.5598 -0.0677
  131CHL1  H23B15941   2.807   3.872  14.163  0.0939  0.2881 -0.0974
  131CHL1   C2415942   2.737   3.993  14.337 -0.1315 -0.1122 -0.1252
  131CHL1  H24A15943   2.823   4.061  14.359 -0.8597  1.2694 -1.3996
  131CHL1  H24B15944   2.645   4.054  14.345 -0.7846 -1.2479  1.5223
  131CHL1   C2515945   2.734   3.857  14.417 -0.1372 -1.2663 -0.5161
  131CHL1   H2515946   2.830   3.808  14.391  0.1968 -1.9221  1.6771
  131CHL1   C2615947   2.747   3.902  14.565  0.0416  1.1703 -0.0954
  131CHL1  H26A15948   2.662   3.972  14.575 -1.2068 -0.2321 -0.6466
  131CHL1  H26B15949   2.743   3.809  14.625 -0.7077  0.3876 -1.3198
  131CHL1  H26C15950   2.846   3.951  14.582  1.0705 -0.7903 -0.1221
  131CHL1   C2715951   2.617   3.767  14.389 -0.1674 -0.1915 -0.3939
  131CHL1  H27A15952   2.612   3.759  14.279 -0.9215  4.0259 -0.8498
  131CHL1  H27B15953   2.647   3.670  14.435  0.9132  1.0855  1.7827
  131CHL1  H27C15954   2.526   3.813  14.433 -1.0553 -0.7021 -1.6562
  132CHL1    C315955   2.394   0.461  12.713 -0.4314  0.6384  0.5683
  132CHL1    H315956   2.293   0.422  12.739 -1.0398  0.3643 -1.9102
  132CHL1    O315957   2.402   0.458  12.576 -0.5758 -0.6336  0.7951
  132CHL1   H3'15958   2.474   0.521  12.566 -0.4492 -0.8053  0.6235
  132CHL1    C415959   2.403   0.602  12.770 -0.1801 -0.1794 -0.0774
  132CHL1   H4A15960   2.496   0.639  12.722  0.2334 -0.9327  0.1205
  132CHL1   H4B15961   2.326   0.664  12.720 -0.1771 -1.4451 -1.7613
  132CHL1    C515962   2.402   0.611  12.926 -0.6029  0.4047  0.5314
  132CHL1    C615963   2.302   0.677  12.992 -0.3629 -0.3666  0.2155
  132CHL1    H615964   2.215   0.726  12.947 -1.4351 -0.7319  1.7744
  132CHL1    C715965   2.291   0.677  13.145  1.1422  0.6726  0.0301
  132CHL1   H7A15966   2.268   0.781  13.178  0.5928  1.0884 -1.5775
  132CHL1   H7B15967   2.221   0.603  13.189  1.2385  0.9515  0.6718
  132CHL1    C815968   2.426   0.627  13.209  0.1452  0.2808 -0.0293
  132CHL1    H815969   2.502   0.703  13.180 -0.0431  0.6139  0.3281
  132CHL1   C1415970   2.407   0.615  13.360 -0.1220 -0.1563  0.2705
  132CHL1   H1415971   2.331   0.536  13.372 -1.8163  1.0575 -1.7988
  132CHL1   C1515972   2.363   0.740  13.431 -0.1301 -0.5074  0.6885
  132CHL1  H15A15973   2.408   0.824  13.374 -1.6670 -0.6421 -0.8168
  132CHL1  H15B15974   2.255   0.761  13.418 -0.3814 -1.3256  1.3901
  132CHL1   C1615975   2.413   0.725  13.571 -0.4531 -0.1102 -0.3917
  132CHL1  H16A15976   2.465   0.818  13.601 -3.3384  1.2585  0.8041
  132CHL1  H16B15977   2.329   0.712  13.643  0.8211  0.2054  1.2170
  132CHL1   C1715978   2.501   0.595  13.579  0.1128  0.1317  0.1587
  132CHL1   H1715979   2.444   0.507  13.616  1.1488 -0.1411  1.1807
  132CHL1   C1315980   2.538   0.564  13.432  0.7705 -0.0000 -0.3015
  132CHL1   C1815981   2.656   0.662  13.397  0.2747  0.1928 -0.2176
  132CHL1  H18A15982   2.643   0.769  13.422  0.2943  0.4450 -1.2275
  132CHL1  H18B15983   2.749   0.626  13.446  1.0959  1.3515 -0.8754
  132CHL1  H18C15984   2.671   0.659  13.287 -1.4186  3.4327 -0.6538
  132CHL1   C1215985   2.558   0.421  13.384 -0.9042 -0.0491  0.2584
  132CHL1  H12A15986   2.626   0.358  13.444 -0.4371  1.4491  1.3476
  132CHL1  H12B15987   2.460   0.370  13.397 -1.8325  1.5127 -0.3228
  132CHL1   C1115988   2.576   0.418  13.230 -0.0338  0.7198 -0.7440
  132CHL1  H11A15989   2.677   0.458  13.207  0.8356  0.0825  1.6532
  132CHL1  H11B15990   2.586   0.313  13.195  1.1783  0.8184 -0.7511
  132CHL1    C915991   2.471   0.498  13.143  0.1028  1.3102  0.0418
  132CHL1    H915992   2.387   0.425  13.143  2.4993 -1.6756  0.0595
  132CHL1   C1015993   2.498   0.511  12.996  0.0112  0.8924  0.6706
  132CHL1   C1915994   2.638   0.573  12.976  0.3194 -0.2367 -0.0904
  132CHL1  H19A15995   2.716   0.510  13.023  0.1536  1.0497  2.0640
  132CHL1  H19B15996   2.668   0.584  12.870  1.6365 -1.7065  0.1026
  132CHL1  H19C15997   2.646   0.670  13.029 -2.9517 -0.4796  1.0775
  132CHL1    C115998   2.499   0.371  12.930  0.1504 -0.1209  0.6246
  132CHL1   H1A15999   2.594   0.321  12.959  2.0496  1.0843 -2.9519
  132CHL1   H1B16000   2.409   0.319  12.970 -0.6268  0.4176 -0.3747
  132CHL1    C216001   2.506   0.373  12.770  0.1933  0.2027 -0.4695
  132CHL1   H2A16002   2.488   0.267  12.742  2.4963 -1.1320  2.5869
  132CHL1   H2B16003   2.611   0.399  12.747  0.5294  1.0102  1.7315
  132CHL1   C2016004   2.607   0.600  13.691 -0.7212  0.4013  0.5071
  132CHL1   H2016005   2.691   0.663  13.655 -1.1214 -0.1817 -1.5460
  132CHL1   C2116006   2.675   0.457  13.703 -0.2918 -0.2119  0.6463
  132CHL1  H21A16007   2.735   0.437  13.611  1.4821 -1.3396  1.9788
  132CHL1  H21B16008   2.592   0.385  13.714  0.2283 -0.7329  1.1940
  132CHL1  H21C16009   2.739   0.460  13.794 -2.4486 -1.2273  2.2833
  132CHL1   C2216010   2.572   0.643  13.832  0.2465 -0.1440 -0.2587
  132CHL1  H22A16011   2.667   0.644  13.890  1.1555  0.2759 -1.6943
  132CHL1  H22B16012   2.541   0.749  13.827  0.9396  0.0330 -0.8898
  132CHL1   C2316013   2.445   0.567  13.886 -0.3655  0.1408 -0.0816
  132CHL1  H23A16014   2.355   0.597  13.828 -0.8200 -0.4241  0.3208
  132CHL1  H23B16015   2.456   0.457  13.881  0.9551  0.2628 -0.1405
  132CHL1   C2416016   2.426   0.616  14.027 -0.1550  0.9074 -0.0145
  132CHL1  H24A16017   2.517   0.665  14.069  1.8724 -1.8094 -0.9763
  132CHL1  H24B16018   2.339   0.685  14.020  0.2232  1.2693 -1.4123
  132CHL1   C2516019   2.391   0.499  14.126 -0.6728  0.1941 -0.3551
  132CHL1   H2516020   2.310   0.443  14.075  0.0662 -1.3179  0.0857
  132CHL1   C2616021   2.514   0.417  14.163 -0.6439  0.0738  0.3292
  132CHL1  H26A16022   2.591   0.485  14.203 -1.7020 -0.9473  4.6278
  132CHL1  H26B16023   2.508   0.341  14.244 -0.0391 -1.4376 -0.9813
  132CHL1  H26C16024   2.562   0.367  14.076 -1.4625 -0.4647  0.1771
  132CHL1   C2716025   2.323   0.548  14.254 -0.1830 -0.1623 -0.0349
  132CHL1  H27A16026   2.369   0.642  14.294 -1.0416  0.0211  0.5370
  132CHL1  H27B16027   2.215   0.566  14.238  0.0250  1.5175  0.2217
  132CHL1  H27C16028   2.332   0.477  14.338  1.7085 -0.8039 -0.7033
  133CHL1    C316029   2.036   3.261  13.465 -0.7717 -0.0835  0.8323
  133CHL1    H316030   2.003   3.358  13.508  2.0218  1.0752  0.5734
  133CHL1    O316031   2.049   3.267  13.324 -0.0046 -0.4199  0.0652
  133CHL1   H3'16032   2.140   3.291  13.306 -0.0343 -0.3012  0.0738
  133CHL1    C416033   2.177   3.234  13.524  0.0477  0.0182 -0.1857
  133CHL1   H4A16034   2.216   3.163  13.449 -0.5321  1.7250 -2.1977
  133CHL1   H4B16035   2.227   3.333  13.515 -2.1494  1.1895 -0.1337
  133CHL1    C516036   2.182   3.180  13.664  0.4736 -0.4497 -0.0095
  133CHL1    C616037   2.270   3.237  13.746 -0.1491  0.0129 -0.7341
  133CHL1    H616038   2.335   3.315  13.704  0.5261 -0.1738 -0.0506
  133CHL1    C716039   2.291   3.200  13.886  0.2662 -0.3521 -0.9899
  133CHL1   H7A16040   2.396   3.178  13.914  0.1461  0.0694 -0.1923
  133CHL1   H7B16041   2.246   3.282  13.946  0.8742 -0.8314  0.1541
  133CHL1    C816042   2.223   3.066  13.917 -0.3347  0.3771  0.2149
  133CHL1    H816043   2.280   2.978  13.879 -2.1389 -0.3834 -0.8699
  133CHL1   C1416044   2.204   3.047  14.070  0.0716  0.0059  0.1529
  133CHL1   H1416045   2.128   3.119  14.108  0.5935  0.7163 -0.1324
  133CHL1   C1516046   2.329   3.078  14.156 -0.7944 -0.4585  0.1054
  133CHL1  H15A16047   2.418   3.027  14.114 -0.5951  0.8625 -1.1624
  133CHL1  H15B16048   2.354   3.186  14.159  0.5447 -0.7461 -0.1861
  133CHL1   C1616049   2.300   3.011  14.286  0.2907  0.0673 -0.0991
  133CHL1  H16A16050   2.379   2.938  14.313  1.0252  0.5874 -0.7803
  133CHL1  H16B16051   2.286   3.081  14.371 -1.9059  0.0392 -0.3597
  133CHL1   C1716052   2.164   2.934  14.266 -0.7528 -0.6781  0.2819
  133CHL1   H1716053   2.088   3.013  14.282  1.1103  1.6687 -1.6839
  133CHL1   C1316054   2.151   2.911  14.115 -1.0742 -0.2900 -0.2273
  133CHL1   C1816055   2.257   2.806  14.078  0.6894  0.9305  0.0824
  133CHL1  H18A16056   2.208   2.710  14.107  0.1139  1.6553  1.5810
  133CHL1  H18B16057   2.274   2.798  13.968 -0.7021 -0.1731 -0.0967
  133CHL1  H18C16058   2.352   2.809  14.135  1.1850  0.3711 -0.6940
  133CHL1   C1216059   2.008   2.895  14.050  0.4294 -0.2116  0.2872
  133CHL1  H12A16060   1.963   2.800  14.085  0.4127  0.0456  0.9799
  133CHL1  H12B16061   1.944   2.977  14.089 -0.1120 -0.6068  0.2321
  133CHL1   C1116062   2.008   2.913  13.901  0.2816  0.3996  0.0538
  133CHL1  H11A16063   2.056   2.823  13.856 -0.1068 -0.3962  1.1932
  133CHL1  H11B16064   1.906   2.914  13.858 -0.7664  3.0080  2.3449
  133CHL1    C916065   2.079   3.050  13.857  0.6920  0.2071  1.1191
  133CHL1    H916066   2.018   3.130  13.907 -0.3453  0.9445 -1.1809
  133CHL1   C1016067   2.081   3.072  13.702  0.1862 -0.1063  0.2463
  133CHL1   C1916068   2.127   2.944  13.637 -0.3281 -0.2939 -0.0246
  133CHL1  H19A16069   2.225   2.905  13.672  0.1221 -1.5483 -2.4536
  133CHL1  H19B16070   2.050   2.865  13.653  0.0910 -0.4029  1.6447
  133CHL1  H19C16071   2.136   2.951  13.526 -0.1018 -2.3124 -0.1714
  133CHL1    C116072   1.936   3.101  13.652  0.2283  0.0317  0.1089
  133CHL1   H1A16073   1.883   3.004  13.662 -1.2240  0.7711 -0.0292
  133CHL1   H1B16074   1.885   3.177  13.715  0.6325  0.9299 -0.6270
  133CHL1    C216075   1.931   3.150  13.506 -0.5551  0.4197 -0.1921
  133CHL1   H2A16076   1.828   3.186  13.486 -0.7178 -0.1982 -0.4745
  133CHL1   H2B16077   1.937   3.069  13.431 -0.9588  1.9127 -1.9020
  133CHL1   C2016078   2.138   2.815  14.359 -0.8563 -0.7785  0.3445
  133CHL1   H2016079   2.100   2.737  14.290  2.6280 -0.0187 -2.7745
  133CHL1   C2116080   2.022   2.862  14.454  0.1156 -0.6206  0.4349
  133CHL1  H21A16081   2.012   2.785  14.533  0.2567 -0.9228  0.1588
  133CHL1  H21B16082   1.926   2.878  14.401  0.4957  2.4226  0.4834
  133CHL1  H21C16083   2.068   2.953  14.500  1.5053 -0.7372 -0.6418
  133CHL1   C2216084   2.264   2.741  14.419 -0.2314  0.2328 -0.0798
  133CHL1  H22A16085   2.320   2.713  14.327 -0.5538  1.0293 -0.5355
  133CHL1  H22B16086   2.326   2.810  14.480 -0.3369 -0.0860  0.3967
  133CHL1   C2316087   2.232   2.610  14.492 -0.0287  0.1565  0.5298
  133CHL1  H23A16088   2.161   2.632  14.575 -1.6510 -1.6571 -0.3015
  133CHL1  H23B16089   2.177   2.531  14.437  0.0834 -0.7033  1.6168
  133CHL1   C2416090   2.359   2.536  14.552 -0.0282 -0.0158  0.2351
  133CHL1  H24A16091   2.407   2.612  14.617 -2.3305  1.9894 -0.2542
  133CHL1  H24B16092   2.327   2.457  14.623  0.9546 -1.1578 -0.5471
  133CHL1   C2516093   2.450   2.483  14.446 -0.4048 -0.3464 -0.6917
  133CHL1   H2516094   2.460   2.564  14.371 -2.7037 -1.0709 -1.8681
  133CHL1   C2616095   2.584   2.461  14.510 -0.0536  0.0052 -0.3303
  133CHL1  H26A16096   2.612   2.536  14.587 -0.4181 -2.1616  2.0574
  133CHL1  H26B16097   2.578   2.366  14.567 -0.3082 -0.9046 -1.8101
  133CHL1  H26C16098   2.664   2.446  14.434 -0.8440 -2.0040 -0.8409
  133CHL1   C2716099   2.390   2.366  14.377  0.5428 -0.3816  0.7233
  133CHL1  H27A16100   2.336   2.305  14.453  0.3824 -1.2485 -0.0596
  133CHL1  H27B16101   2.312   2.405  14.308 -1.3112 -0.1599  2.8116
  133CHL1  H27C16102   2.466   2.304  14.325 -1.1273 -3.5009  1.7348
  134CHL1    C316103   0.603   2.834  12.525 -0.2524 -0.5078  0.5566
  134CHL1    H316104   0.631   2.933  12.567 -0.1447 -0.0648 -0.5450
  134CHL1    O316105   0.636   2.831  12.386  0.2239  0.0304  0.5891
  134CHL1   H3'16106   0.708   2.893  12.370 -0.3639  0.7669  0.6995
  134CHL1    C416107   0.677   2.716  12.585  0.0325  0.2335  0.1766
  134CHL1   H4A16108   0.661   2.622  12.527  3.3772 -0.3266 -0.0461
  134CHL1   H4B16109   0.781   2.719  12.545  0.0257  0.2318  0.1577
  134CHL1    C516110   0.652   2.699  12.734  0.0181 -0.0712 -0.5150
  134CHL1    C616111   0.757   2.697  12.816 -0.0541  0.1709 -0.7948
  134CHL1    H616112   0.854   2.716  12.768 -0.2479  1.4093 -0.7357
  134CHL1    C716113   0.750   2.671  12.964  0.1527 -0.3187 -0.7134
  134CHL1   H7A16114   0.833   2.606  13.000  0.1880  0.3985  0.5499
  134CHL1   H7B16115   0.770   2.768  13.014 -0.1776  0.3861 -1.9188
  134CHL1    C816116   0.606   2.631  13.011 -0.1290 -0.0724 -0.2758
  134CHL1    H816117   0.594   2.521  12.997 -0.7301 -0.0700  0.1890
  134CHL1   C1416118   0.601   2.654  13.161  0.4724 -0.2117  0.3967
  134CHL1   H1416119   0.608   2.765  13.165 -3.2960  0.2160 -0.6919
  134CHL1   C1516120   0.713   2.603  13.252 -0.5936  0.8650 -0.7579
  134CHL1  H15A16121   0.723   2.493  13.239 -1.6922  0.6706 -0.0957
  134CHL1  H15B16122   0.809   2.657  13.241 -0.8163  1.2895 -0.6241
  134CHL1   C1616123   0.644   2.624  13.388  0.0287  0.3385 -0.4636
  134CHL1  H16A16124   0.663   2.531  13.446  0.2411 -0.4991 -1.8471
  134CHL1  H16B16125   0.689   2.704  13.451  0.5987 -1.0028  0.9031
  134CHL1   C1716126   0.495   2.662  13.368 -0.1730  0.2521 -0.8147
  134CHL1   H1716127   0.491   2.773  13.365  1.2124  0.5869  3.5175
  134CHL1   C1316128   0.464   2.621  13.223 -0.0172  0.6290 -0.3700
  134CHL1   C1816129   0.440   2.470  13.213  0.1647  0.6457 -0.4764
  134CHL1  H18A16130   0.438   2.437  13.107  2.1739  2.0956 -1.0268
  134CHL1  H18B16131   0.522   2.413  13.261 -1.1213 -1.5673 -0.7896
  134CHL1  H18C16132   0.352   2.440  13.275  2.2042 -1.7242  1.5088
  134CHL1   C1216133   0.356   2.707  13.147  0.5451 -0.1944  0.0828
  134CHL1  H12A16134   0.258   2.666  13.180 -0.4192  2.2276  0.3927
  134CHL1  H12B16135   0.362   2.813  13.178 -0.4327 -0.4803  1.3578
  134CHL1   C1116136   0.354   2.698  12.994 -0.0124 -0.1029  0.2035
  134CHL1  H11A16137   0.322   2.596  12.963  1.4112  0.0565 -1.9710
  134CHL1  H11B16138   0.296   2.779  12.944  0.3583 -1.0926 -1.9483
  134CHL1    C916139   0.497   2.707  12.935  0.2079  0.5477 -0.2726
  134CHL1    H916140   0.523   2.813  12.960  0.9805  0.5052 -0.8447
  134CHL1   C1016141   0.508   2.693  12.784 -0.4292 -0.6299 -0.3481
  134CHL1   C1916142   0.473   2.552  12.736  0.1667 -0.7978 -0.5258
  134CHL1  H19A16143   0.497   2.531  12.629  4.1949 -0.9083  0.2620
  134CHL1  H19B16144   0.518   2.471  12.797  1.6884 -1.0897 -1.9535
  134CHL1  H19C16145   0.362   2.543  12.742  0.0184 -0.7822 -2.4892
  134CHL1    C116146   0.428   2.801  12.703  0.0645 -0.0352 -0.3055
  134CHL1   H1A16147   0.327   2.758  12.723 -0.1250  1.1765  1.6507
  134CHL1   H1B16148   0.438   2.899  12.754  0.1919  0.0625 -0.5190
  134CHL1    C216149   0.457   2.812  12.552 -0.0881  0.1780 -0.1663
  134CHL1   H2A16150   0.393   2.890  12.505 -0.0623 -0.0613 -0.6024
  134CHL1   H2B16151   0.426   2.717  12.504 -0.0776 -0.7276  1.5661
  134CHL1   C2016152   0.401   2.621  13.488  0.9204  0.0361  0.2154
  134CHL1   H2016153   0.419   2.514  13.509  0.5631 -0.9652 -3.8538
  134CHL1   C2116154   0.251   2.637  13.443 -0.0619  0.8532 -0.1239
  134CHL1  H21A16155   0.189   2.608  13.531 -0.4953  1.9630 -0.0592
  134CHL1  H21B16156   0.222   2.565  13.363 -1.6061 -0.9198  1.9021
  134CHL1  H21C16157   0.230   2.744  13.424 -4.0006 -0.1466 -2.5521
  134CHL1   C2216158   0.433   2.697  13.621 -0.2381 -0.1059 -0.1345
  134CHL1  H22A16159   0.544   2.706  13.622 -0.2903  1.0036 -1.1050
  134CHL1  H22B16160   0.404   2.804  13.612 -0.3968 -0.0915  0.5294
  134CHL1   C2316161   0.364   2.622  13.737  0.4540 -0.5013 -0.0406
  134CHL1  H23A16162   0.255   2.634  13.723  0.4189  1.7127  1.6630
  134CHL1  H23B16163   0.382   2.514  13.717  0.7878 -0.0364 -2.7167
  134CHL1   C2416164   0.393   2.665  13.881  1.1240  0.6598 -0.1756
  134CHL1  H24A16165   0.504   2.670  13.885  1.1060  1.5344 -0.5052
  134CHL1  H24B16166   0.352   2.768  13.881 -1.3325 -0.2252 -2.0069
  134CHL1   C2516167   0.344   2.574  13.992 -0.0458 -0.2537 -0.5531
  134CHL1   H2516168   0.383   2.604  14.091 -0.6786 -3.9291  0.9427
  134CHL1   C2616169   0.192   2.571  13.997  0.6906  0.1850  0.4150
  134CHL1  H26A16170   0.155   2.560  14.102 -0.0900 -0.7606  0.0634
  134CHL1  H26B16171   0.156   2.669  13.960  0.4289 -1.0476 -2.9011
  134CHL1  H26C16172   0.140   2.498  13.931 -0.3529  1.1232  0.1802
  134CHL1   C2716173   0.394   2.432  13.982  0.0257  0.3841  0.7246
  134CHL1  H27A16174   0.502   2.411  13.997 -0.2515 -0.2273  1.9729
  134CHL1  H27B16175   0.349   2.379  14.069 -0.1765 -0.1431  0.2987
  134CHL1  H27C16176   0.349   2.400  13.886 -0.1858  1.6744  0.3688
  135CHL1    C316177   6.591   2.806  11.993  0.2934  0.2932 -0.2536
  135CHL1    H316178   6.654   2.897  11.996 -0.0440  0.5370 -0.4442
  135CHL1    O316179   6.547   2.788  11.856 -0.0196 -0.0614  0.6317
  135CHL1   H3'16180   6.484   2.716  11.860 -1.5335  0.8905 -2.5541
  135CHL1    C416181   6.661   2.672  12.032 -0.0552  0.5378  0.1675
  135CHL1   H4A16182   6.604   2.583  11.999  0.8399 -1.2456  3.0629
  135CHL1   H4B16183   6.760   2.663  11.983 -0.9715  2.7452 -2.3238
  135CHL1    C516184   6.678   2.651  12.181 -0.3375  0.1647  0.5591
  135CHL1    C616185   6.800   2.626  12.230 -0.1332 -0.2811 -0.1003
  135CHL1    H616186   6.887   2.624  12.163 -1.4340 -0.5530 -1.8475
  135CHL1    C716187   6.841   2.596  12.365  0.0280 -0.7453 -0.1037
  135CHL1   H7A16188   6.901   2.503  12.373  1.2738  0.1304  1.1502
  135CHL1   H7B16189   6.898   2.684  12.401  0.1633  0.7098 -3.5686
  135CHL1    C816190   6.715   2.579  12.452 -0.1613  0.4607 -1.3202
  135CHL1    H816191   6.677   2.477  12.430 -0.3277 -0.5202  2.7287
  135CHL1   C1416192   6.752   2.577  12.607  0.3118  0.1616  0.1955
  135CHL1   H1416193   6.778   2.684  12.626  1.8362 -0.2120  0.3066
  135CHL1   C1516194   6.866   2.478  12.644  0.0193  0.0133 -0.0637
  135CHL1  H15A16195   6.847   2.379  12.597 -2.1146  1.6576 -2.9706
  135CHL1  H15B16196   6.966   2.512  12.610  1.7995 -1.1932  3.4285
  135CHL1   C1616197   6.844   2.471  12.794 -0.4909  0.2146 -0.0360
  135CHL1  H16A16198   6.836   2.365  12.823  1.9565  0.3703  1.5786
  135CHL1  H16B16199   6.935   2.517  12.839  0.0083  1.4858 -2.2078
  135CHL1   C1716200   6.714   2.548  12.833  0.0219  0.0658  0.1009
  135CHL1   H1716201   6.741   2.655  12.850 -2.4293  0.6846  0.5124
  135CHL1   C1316202   6.635   2.548  12.702  0.7288  0.4336 -0.2007
  135CHL1   C1816203   6.579   2.409  12.676 -0.1222  0.7669 -0.1497
  135CHL1  H18A16204   6.485   2.394  12.733  0.4423  0.7260  0.7958
  135CHL1  H18B16205   6.542   2.412  12.571 -1.0634 -3.5165 -0.1248
  135CHL1  H18C16206   6.646   2.321  12.678 -1.4646 -0.2803  0.9113
  135CHL1   C1216207   6.522   2.653  12.676 -0.5469 -0.3282 -0.1108
  135CHL1  H12A16208   6.432   2.631  12.739  1.1581  1.3181  3.1374
  135CHL1  H12B16209   6.560   2.745  12.725  0.7137 -0.2048 -1.2714
  135CHL1   C1116210   6.489   2.674  12.529  0.3139 -0.3374 -0.3646
  135CHL1  H11A16211   6.422   2.590  12.502 -0.7006  0.8971 -1.8870
  135CHL1  H11B16212   6.423   2.763  12.516  1.7117  0.6674 -0.8770
  135CHL1    C916213   6.601   2.685  12.426 -0.3754 -0.3201 -0.7368
  135CHL1    H916214   6.655   2.781  12.439 -0.3870 -0.4284  0.1656
  135CHL1   C1016215   6.559   2.674  12.279  0.0651 -0.8241 -0.0033
  135CHL1   C1916216   6.455   2.567  12.254 -0.5501 -0.1920 -0.2646
  135CHL1  H19A16217   6.463   2.534  12.148  1.4246  0.3671 -0.3180
  135CHL1  H19B16218   6.475   2.484  12.325  1.0988  1.1020  0.8667
  135CHL1  H19C16219   6.353   2.604  12.280 -0.2327 -0.0472  0.8002
  135CHL1    C116220   6.498   2.810  12.229  0.4527 -0.3413  0.2227
  135CHL1   H1A16221   6.414   2.829  12.300  1.2712 -1.8290  1.6667
  135CHL1   H1B16222   6.568   2.892  12.256  0.7210 -0.9185  1.3821
  135CHL1    C216223   6.461   2.815  12.085  0.0057 -0.3252 -0.7349
  135CHL1   H2A16224   6.402   2.906  12.059 -1.1648 -0.3774  1.4622
  135CHL1   H2B16225   6.387   2.735  12.063 -0.4471 -0.2487  0.4602
  135CHL1   C2016226   6.657   2.484  12.958 -0.7162 -0.6417  0.3879
  135CHL1   H2016227   6.606   2.390  12.929 -1.7456  0.3145 -1.0908
  135CHL1   C2116228   6.547   2.581  13.021 -0.6686 -0.6848 -0.0582
  135CHL1  H21A16229   6.457   2.523  13.050 -0.6861  0.1879  1.7678
  135CHL1  H21B16230   6.515   2.649  12.939 -0.5495 -0.0340  0.4195
  135CHL1  H21C16231   6.597   2.641  13.101 -1.5233  0.8188 -0.6115
  135CHL1   C2216232   6.761   2.469  13.077  0.5137 -0.3185  0.1071
  135CHL1  H22A16233   6.842   2.408  13.033 -1.2627 -1.1199 -2.2234
  135CHL1  H22B16234   6.791   2.572  13.108 -1.1548 -0.4004  2.1894
  135CHL1   C2316235   6.702   2.382  13.191  0.5271  0.5345  0.2364
  135CHL1  H23A16236   6.610   2.436  13.224  0.5783  1.8231 -1.5700
  135CHL1  H23B16237   6.672   2.280  13.160 -0.0389  0.8596 -0.3121
  135CHL1   C2416238   6.798   2.387  13.316  0.5252  0.5339  0.1917
  135CHL1  H24A16239   6.899   2.340  13.319  0.2189 -0.1885 -0.3012
  135CHL1  H24B16240   6.810   2.497  13.326 -1.6960  0.7707  0.8638
  135CHL1   C2516241   6.721   2.329  13.443  0.4465  0.1947  0.1447
  135CHL1   H2516242   6.618   2.369  13.453  0.4587  0.2128  0.1980
  135CHL1   C2616243   6.702   2.179  13.416 -0.7050 -0.0694 -0.4218
  135CHL1  H26A16244   6.798   2.123  13.421 -0.5949  0.0872 -0.7951
  135CHL1  H26B16245   6.638   2.149  13.502  0.6631  2.4113  1.6200
  135CHL1  H26C16246   6.640   2.156  13.327 -3.2456  3.8560  0.0794
  135CHL1   C2716247   6.801   2.354  13.566  0.1148 -0.6779 -0.8892
  135CHL1  H27A16248   6.823   2.463  13.572  2.2922 -1.0346 -1.4303
  135CHL1  H27B16249   6.736   2.328  13.653 -1.2586  0.0822 -1.6649
  135CHL1  H27C16250   6.902   2.306  13.563  0.8923  0.8489 -0.2882
  136CHL1    C316251   4.785   0.132  12.329  1.1040  0.0370 -0.0674
  136CHL1    H316252   4.836   0.034  12.336 -0.1645 -0.7386 -1.2107
  136CHL1    O316253   4.774   0.179  12.195  0.7146  0.3280 -0.2654
  136CHL1   H3'16254   4.689   0.164  12.152 -0.3254  2.3453  0.9214
  136CHL1    C416255   4.642   0.123  12.382 -0.2707 -0.1155  0.0148
  136CHL1   H4A16256   4.593   0.220  12.360  0.0667 -0.2587 -1.4088
  136CHL1   H4B16257   4.592   0.046  12.320 -0.0928  0.3736 -0.7359
  136CHL1    C516258   4.639   0.099  12.533 -0.0623  0.4512 -0.6751
  136CHL1    C616259   4.587  -0.016  12.581  0.8523  0.0691 -0.2935
  136CHL1    H616260   4.536  -0.089  12.516 -0.3685  1.1026 -0.5426
  136CHL1    C716261   4.569  -0.047  12.729  0.1637 -0.3734  0.4955
  136CHL1   H7A16262   4.467  -0.084  12.752 -0.5681  1.8538  1.0429
  136CHL1   H7B16263   4.640  -0.129  12.756 -0.1605 -1.8097 -2.5759
  136CHL1    C816264   4.603   0.071  12.817 -0.6508 -0.3229  0.5785
  136CHL1    H816265   4.515   0.138  12.824  0.3728  1.0345  0.9368
  136CHL1   C1416266   4.638   0.023  12.961  0.1068 -0.2651  0.0855
  136CHL1   H1416267   4.730  -0.038  12.957  1.0603  0.9939  1.4351
  136CHL1   C1516268   4.540  -0.071  13.032  0.3320 -0.3142  0.0457
  136CHL1  H15A16269   4.436  -0.045  13.004  0.6859  0.7234 -0.3512
  136CHL1  H15B16270   4.555  -0.175  12.996  1.4950  0.1723 -0.9424
  136CHL1   C1616271   4.566  -0.043  13.178 -0.5765  0.5066  0.2286
  136CHL1  H16A16272   4.487   0.014  13.230 -0.2624  0.0800  1.1903
  136CHL1  H16B16273   4.585  -0.142  13.225  0.5170 -0.5807 -2.2682
  136CHL1   C1716274   4.695   0.054  13.189 -0.0829 -0.1183 -0.5029
  136CHL1   H1716275   4.774  -0.024  13.180 -1.4300 -1.6264  0.2562
  136CHL1   C1316276   4.675   0.137  13.059 -0.1313 -0.0101  0.0732
  136CHL1   C1816277   4.566   0.233  13.078  0.1614 -0.2047 -0.3452
  136CHL1  H18A16278   4.475   0.199  13.132  0.6367  2.1074  2.1134
  136CHL1  H18B16279   4.596   0.318  13.142  0.5636 -0.6144  0.0118
  136CHL1  H18C16280   4.532   0.271  12.979 -0.8731  0.1387  0.1238
  136CHL1   C1216281   4.799   0.207  13.000  0.8866  0.0419 -0.2817
  136CHL1  H12A16282   4.825   0.294  13.064 -1.7800  0.9396 -0.3167
  136CHL1  H12B16283   4.885   0.136  13.008 -1.5913 -3.1902 -0.3760
  136CHL1   C1116284   4.782   0.253  12.859  0.3764 -0.1115  0.1622
  136CHL1  H11A16285   4.723   0.347  12.851  1.4874  0.4727 -4.2084
  136CHL1  H11B16286   4.878   0.284  12.812 -0.3865  1.6290 -0.3272
  136CHL1    C916287   4.726   0.147  12.761 -0.0406 -0.0981  0.0618
  136CHL1    H916288   4.808   0.072  12.763 -0.1038 -0.1578  0.4619
  136CHL1   C1016289   4.715   0.199  12.618  0.3415 -0.9170  0.1158
  136CHL1   C1916290   4.640   0.338  12.615  0.2140  0.3056  0.7752
  136CHL1  H19A16291   4.716   0.401  12.666  0.6712  0.9383 -0.6557
  136CHL1  H19B16292   4.621   0.375  12.512  0.2130  1.2313  1.0992
  136CHL1  H19C16293   4.544   0.331  12.672 -1.1327  0.2131 -1.3997
  136CHL1    C116294   4.861   0.204  12.561 -0.0597  0.0988 -0.4234
  136CHL1   H1A16295   4.930   0.275  12.611  2.5268 -0.8274 -2.4576
  136CHL1   H1B16296   4.906   0.103  12.562  3.2862  1.4357  0.9929
  136CHL1    C216297   4.863   0.234  12.411  0.1081 -0.0814 -0.1162
  136CHL1   H2A16298   4.964   0.235  12.366 -0.1630 -0.1988 -0.7406
  136CHL1   H2B16299   4.812   0.333  12.398  0.0826 -0.3384 -2.4303
  136CHL1   C2016300   4.708   0.128  13.323 -0.0753 -0.3267  1.1618
  136CHL1   H2016301   4.621   0.196  13.338  0.4573  1.0784 -1.5710
  136CHL1   C2116302   4.827   0.223  13.329  0.5554 -0.0973 -0.2627
  136CHL1  H21A16303   4.817   0.296  13.246  2.5327  2.9045  1.9315
  136CHL1  H21B16304   4.918   0.167  13.295  0.9996  1.7475 -2.3963
  136CHL1  H21C16305   4.839   0.274  13.427 -1.1675 -0.8128  0.3548
  136CHL1   C2216306   4.716   0.022  13.434 -0.3875  0.0506  0.1676
  136CHL1  H22A16307   4.663  -0.074  13.417  0.9377 -0.4000 -1.8155
  136CHL1  H22B16308   4.822  -0.011  13.436 -0.0196  1.1883  2.4712
  136CHL1   C2316309   4.687   0.070  13.574 -0.0317 -0.1309  0.7429
  136CHL1  H23A16310   4.755   0.154  13.598 -0.6037  0.6785 -0.3972
  136CHL1  H23B16311   4.584   0.112  13.574  0.8224  2.1292 -0.8546
  136CHL1   C2416312   4.700  -0.039  13.679 -0.1028 -0.2196  0.1807
  136CHL1  H24A16313   4.614  -0.107  13.660 -2.0069  2.2980 -0.8036
  136CHL1  H24B16314   4.805  -0.075  13.668  0.2676  1.0888 -0.7738
  136CHL1   C2516315   4.690  -0.001  13.824  0.3146  0.6155 -0.4156
  136CHL1   H2516316   4.759   0.082  13.852  2.3409 -1.1896  0.2017
  136CHL1   C2616317   4.555   0.060  13.864  0.4282  0.6671 -0.1723
  136CHL1  H26A16318   4.474  -0.015  13.852 -0.6288  2.0393 -2.1317
  136CHL1  H26B16319   4.561   0.093  13.970 -0.3284 -2.8281  1.1201
  136CHL1  H26C16320   4.518   0.139  13.796  1.2415 -0.3085 -1.8089
  136CHL1   C2716321   4.722  -0.119  13.919  0.4850  0.5162  0.7421
  136CHL1  H27A16322   4.704  -0.096  14.026 -1.8174  1.8061  0.1475
  136CHL1  H27B16323   4.656  -0.205  13.898 -0.5934  1.4157  0.3652
  136CHL1  H27C16324   4.829  -0.149  13.915  0.1431 -0.8346  1.2634
  137CHL1    C316325   2.339   1.406  12.240 -0.7975 -0.0870 -0.4789
  137CHL1    H316326   2.239   1.443  12.209  0.3244  1.3762 -2.6135
  137CHL1    O316327   2.409   1.359  12.124  0.3994  0.3648 -0.1032
  137CHL1   H3'16328   2.440   1.270  12.143 -0.3019  0.1190 -0.0740
  137CHL1    C416329   2.417   1.534  12.299 -0.0471  0.5086  0.6637
  137CHL1   H4A16330   2.523   1.500  12.306  0.0182  0.8370  1.3509
  137CHL1   H4B16331   2.398   1.606  12.216 -0.2300 -0.5498 -0.2464
  137CHL1    C516332   2.359   1.578  12.433 -0.5206  0.4741 -1.1118
  137CHL1    C616333   2.330   1.699  12.451 -0.2010 -0.1787 -0.2883
  137CHL1    H616334   2.356   1.773  12.374  0.5012  0.2276  0.3315
  137CHL1    C716335   2.287   1.756  12.583 -0.5110  0.4326  0.4421
  137CHL1   H7A16336   2.344   1.850  12.602 -0.2835  0.3851 -0.0156
  137CHL1   H7B16337   2.181   1.788  12.596 -0.3128  0.7772  1.3275
  137CHL1    C816338   2.317   1.658  12.696  0.0381 -0.7119 -0.9294
  137CHL1    H816339   2.428   1.649  12.707  0.0983 -0.2099 -1.0837
  137CHL1   C1416340   2.248   1.700  12.821 -0.8173 -0.6493 -0.2813
  137CHL1   H1416341   2.144   1.669  12.796 -1.2698 -1.3065  2.1170
  137CHL1   C1516342   2.243   1.844  12.870 -0.2092  0.0661 -0.2061
  137CHL1  H15A16343   2.344   1.890  12.865 -1.2797  3.3610  3.4513
  137CHL1  H15B16344   2.171   1.907  12.813  0.0795 -0.6759 -1.4028
  137CHL1   C1616345   2.216   1.834  13.023  0.1387 -0.2757 -0.8248
  137CHL1  H16A16346   2.305   1.882  13.069  1.1340  0.6483 -3.4847
  137CHL1  H16B16347   2.118   1.879  13.049  0.5434  1.7558 -2.5351
  137CHL1   C1716348   2.210   1.682  13.071  0.0189 -0.7241  0.0895
  137CHL1   H1716349   2.107   1.641  13.073 -0.0482 -0.5864  2.4442
  137CHL1   C1316350   2.284   1.612  12.949 -0.5543 -0.5501  0.2080
  137CHL1   C1816351   2.436   1.619  12.976 -0.0534 -0.3998 -0.8228
  137CHL1  H18A16352   2.476   1.554  13.057 -0.0714  0.7573  0.1347
  137CHL1  H18B16353   2.503   1.598  12.889  0.3763  0.6638 -0.7612
  137CHL1  H18C16354   2.457   1.723  13.009 -3.9878 -0.0537  1.1540
  137CHL1   C1216355   2.229   1.473  12.913  0.0638 -0.3745 -0.0845
  137CHL1  H12A16356   2.258   1.396  12.987  0.7919 -0.2635 -0.2467
  137CHL1  H12B16357   2.119   1.473  12.898  0.2231 -1.3394 -1.3561
  137CHL1   C1116358   2.290   1.422  12.784 -0.1352  0.5678  0.4860
  137CHL1  H11A16359   2.394   1.390  12.806 -0.7487 -0.5731  1.8228
  137CHL1  H11B16360   2.234   1.333  12.749 -1.1809  1.7922 -1.1127
  137CHL1    C916361   2.274   1.519  12.664 -0.3650  0.3646  0.6210
  137CHL1    H916362   2.165   1.515  12.640 -0.3515  3.2481 -0.4379
  137CHL1   C1016363   2.345   1.469  12.533  0.0342 -0.4571 -0.3534
  137CHL1   C1916364   2.490   1.422  12.574  0.0708 -0.3738 -0.4610
  137CHL1  H19A16365   2.549   1.514  12.598  1.4245 -1.2135 -0.4521
  137CHL1  H19B16366   2.492   1.351  12.659 -0.1469  0.8650  0.6192
  137CHL1  H19C16367   2.563   1.386  12.498 -0.1328  0.5493 -1.1169
  137CHL1    C116368   2.260   1.358  12.471 -0.0151  0.2900  0.2338
  137CHL1   H1A16369   2.270   1.275  12.544  1.2663 -0.9376 -1.2707
  137CHL1   H1B16370   2.151   1.367  12.456  0.3039  0.6377 -2.2528
  137CHL1    C216371   2.327   1.300  12.345  0.7450  0.6161 -0.3732
  137CHL1   H2A16372   2.266   1.218  12.302  0.3161  1.5461 -1.5977
  137CHL1   H2B16373   2.430   1.265  12.369  0.4597  0.7856  1.1529
  137CHL1   C2016374   2.269   1.655  13.214  0.0118 -0.3315  0.3998
  137CHL1   H2016375   2.379   1.661  13.228  0.8365 -1.2079 -4.1000
  137CHL1   C2116376   2.220   1.517  13.260  0.5038  0.2747  0.2446
  137CHL1  H21A16377   2.109   1.522  13.267  0.2894 -0.5111 -1.7521
  137CHL1  H21B16378   2.280   1.495  13.350  0.1718 -1.1931  0.1344
  137CHL1  H21C16379   2.246   1.438  13.186  1.6653 -0.9613  1.9215
  137CHL1   C2216380   2.202   1.753  13.318  0.3842  0.1330  0.0813
  137CHL1  H22A16381   2.209   1.861  13.290  1.1028  0.0387 -0.1213
  137CHL1  H22B16382   2.093   1.730  13.318  0.4063  0.0271 -0.2597
  137CHL1   C2316383   2.254   1.741  13.461 -0.2451  0.0053  0.0943
  137CHL1  H23A16384   2.250   1.634  13.489  1.7331 -0.5300 -1.4182
  137CHL1  H23B16385   2.357   1.782  13.465 -0.6561  1.0745  0.2081
  137CHL1   C2416386   2.171   1.825  13.551 -0.0220 -0.8475  0.6127
  137CHL1  H24A16387   2.193   1.926  13.511 -1.0066 -1.2029 -0.9213
  137CHL1  H24B16388   2.064   1.795  13.543  0.1501 -0.8888 -3.2541
  137CHL1   C2516389   2.213   1.833  13.698  0.0015  0.6912 -0.0676
  137CHL1   H2516390   2.324   1.843  13.709 -0.0991 -0.0369  1.9867
  137CHL1   C2616391   2.152   1.952  13.760 -0.0951  0.0530  0.2688
  137CHL1  H26A16392   2.187   2.045  13.709 -1.6776  1.0886  1.0005
  137CHL1  H26B16393   2.042   1.959  13.749 -0.1394  0.9095  1.1468
  137CHL1  H26C16394   2.174   1.949  13.869 -0.1273  0.3591  0.2858
  137CHL1   C2716395   2.167   1.706  13.775 -0.0522 -0.6636 -0.0026
  137CHL1  H27A16396   2.218   1.621  13.723 -0.8435 -1.5986  0.7106
  137CHL1  H27B16397   2.187   1.714  13.884 -3.1766  1.5740  0.5227
  137CHL1  H27C16398   2.062   1.671  13.762 -0.1648  0.0125 -1.0563
  138CHL1    C316399   5.327   0.949  12.208 -0.5624  0.2479  0.4987
  138CHL1    H316400   5.239   0.883  12.205  1.1997 -2.3696  2.1976
  138CHL1    O316401   5.366   0.962  12.072 -0.3719 -0.5201 -0.0169
  138CHL1   H3'16402   5.379   0.871  12.044  1.2224 -0.3672  0.1371
  138CHL1    C416403   5.277   1.087  12.264 -0.1647 -0.3751 -0.0966
  138CHL1   H4A16404   5.369   1.150  12.262 -1.1241  1.0768  0.0943
  138CHL1   H4B16405   5.205   1.135  12.194 -0.3383 -0.9679 -0.3336
  138CHL1    C516406   5.232   1.071  12.404  0.8737 -0.4797 -0.0287
  138CHL1    C616407   5.107   1.114  12.442  0.0530  0.1714 -0.2150
  138CHL1    H616408   5.039   1.160  12.369  0.3044  0.1310 -0.4754
  138CHL1    C716409   5.065   1.113  12.587  0.7424 -0.4608 -0.0368
  138CHL1   H7A16410   5.019   1.214  12.599  1.5797  0.2958 -2.4826
  138CHL1   H7B16411   4.989   1.032  12.593  0.6130 -0.6534 -2.8681
  138CHL1    C816412   5.179   1.095  12.689  0.3145 -0.0312  0.3338
  138CHL1    H816413   5.242   1.186  12.687 -0.6203  0.7059  2.1031
  138CHL1   C1416414   5.132   1.073  12.832  0.3653 -0.1540  0.0206
  138CHL1   H1416415   5.063   0.986  12.829  2.4157 -1.8377 -0.3608
  138CHL1   C1516416   5.040   1.186  12.900  0.4231  0.3561  0.1691
  138CHL1  H15A16417   5.076   1.289  12.883 -3.0888  1.6690 -0.0711
  138CHL1  H15B16418   4.938   1.179  12.856  0.1187 -0.8915  1.0327
  138CHL1   C1616419   5.038   1.141  13.050 -0.2789 -0.4528 -0.0474
  138CHL1  H16A16420   5.051   1.233  13.111  3.5360  0.7117 -2.2820
  138CHL1  H16B16421   4.937   1.102  13.074 -1.3867  1.4824 -1.2252
  138CHL1   C1716422   5.149   1.028  13.069  0.6670  0.1907  0.2120
  138CHL1   H1716423   5.097   0.930  13.071  0.1754  0.4225 -0.7280
  138CHL1   C1316424   5.238   1.027  12.934  0.0316  0.3845  0.0353
  138CHL1   C1816425   5.344   1.142  12.942  0.0451  0.1468 -0.3770
  138CHL1  H18A16426   5.301   1.233  12.989 -1.3721 -0.4811 -0.3849
  138CHL1  H18B16427   5.433   1.107  12.999 -1.4513 -0.0063  2.0498
  138CHL1  H18C16428   5.376   1.170  12.840 -0.9076  1.1861 -0.4130
  138CHL1   C1216429   5.303   0.899  12.891 -0.5727 -0.3557  0.6039
  138CHL1  H12A16430   5.387   0.870  12.957 -1.0051 -0.0396  1.3070
  138CHL1  H12B16431   5.223   0.823  12.882 -2.2904  0.7934  4.4546
  138CHL1   C1116432   5.362   0.912  12.742  0.5339 -0.6305  0.2396
  138CHL1  H11A16433   5.451   0.978  12.744  0.7576 -0.7077  5.1480
  138CHL1  H11B16434   5.393   0.807  12.722  1.1016 -0.5407  0.6405
  138CHL1    C916435   5.258   0.978  12.642 -0.6250 -0.4245 -0.3215
  138CHL1    H916436   5.186   0.895  12.622 -2.6080  0.4036  2.7545
  138CHL1   C1016437   5.331   1.005  12.502  0.3764  0.1015  0.0857
  138CHL1   C1916438   5.443   1.118  12.518 -0.3367 -0.0130  0.1081
  138CHL1  H19A16439   5.397   1.219  12.523 -0.9854 -0.3008  0.0545
  138CHL1  H19B16440   5.511   1.106  12.605  1.4856 -1.1357 -1.3799
  138CHL1  H19C16441   5.510   1.118  12.429  1.0371 -1.2356  1.0940
  138CHL1    C116442   5.383   0.870  12.439 -0.3876 -0.1628 -0.6047
  138CHL1   H1A16443   5.468   0.835  12.501  2.0901 -2.2335 -4.7656
  138CHL1   H1B16444   5.300   0.797  12.442 -0.4137 -0.1231  2.0758
  138CHL1    C216445   5.434   0.883  12.296  0.5739 -0.1096 -0.8713
  138CHL1   H2A16446   5.466   0.781  12.266  1.7043  0.0612 -0.2791
  138CHL1   H2B16447   5.527   0.944  12.295 -1.4485  3.2640  0.4943
  138CHL1   C2016448   5.216   1.058  13.207 -0.2017  0.1781  0.1959
  138CHL1   H2016449   5.283   1.147  13.199  0.6477  0.0442  3.7846
  138CHL1   C2116450   5.300   0.933  13.243 -0.3453 -0.8262  0.0298
  138CHL1  H21A16451   5.374   0.950  13.324 -2.3256  1.3679  1.5223
  138CHL1  H21B16452   5.352   0.895  13.153  1.9967 -0.1894  1.0459
  138CHL1  H21C16453   5.234   0.852  13.282 -0.5711 -1.9387 -2.5036
  138CHL1   C2216454   5.119   1.082  13.323  0.3102 -0.5730  0.3822
  138CHL1  H22A16455   5.058   1.174  13.310 -0.9379 -1.1552  1.7996
  138CHL1  H22B16456   5.045   0.999  13.330  0.1568 -0.5595 -0.7867
  138CHL1   C2316457   5.184   1.080  13.458 -0.3687  0.0712  0.1141
  138CHL1  H23A16458   5.219   0.978  13.483 -1.1241 -0.0553  0.6765
  138CHL1  H23B16459   5.275   1.144  13.461 -0.5918  0.3652  0.7604
  138CHL1   C2416460   5.086   1.120  13.572 -0.1213  0.4183  0.4165
  138CHL1  H24A16461   5.046   1.221  13.546 -0.2021  1.0016  2.6166
  138CHL1  H24B16462   4.999   1.051  13.559 -0.2723  0.6895 -0.0585
  138CHL1   C2516463   5.132   1.098  13.718  0.6825  0.4868  0.4036
  138CHL1   H2516464   5.164   0.992  13.719 -0.8703 -0.0166 -0.4000
  138CHL1   C2616465   5.257   1.186  13.745  0.5529 -0.4389 -0.3166
  138CHL1  H26A16466   5.239   1.290  13.711  0.2670 -0.4939 -0.3368
  138CHL1  H26B16467   5.268   1.179  13.856 -0.6214 -1.8471 -0.2668
  138CHL1  H26C16468   5.357   1.159  13.704  1.6080  0.2685  1.6502
  138CHL1   C2716469   5.017   1.114  13.823 -0.3737 -0.2476  0.2927
  138CHL1  H27A16470   5.057   1.061  13.912  1.0766 -2.4082 -1.5425
  138CHL1  H27B16471   4.992   1.222  13.831 -1.6126 -0.2396 -2.5517
  138CHL1  H27C16472   4.923   1.070  13.782  0.6940 -0.9489 -1.4852
  139CHL1    C316473   0.851   6.417  12.359 -0.2513  0.6528  0.1344
  139CHL1    H316474   0.940   6.479  12.385 -0.9116  1.7428 -0.1140
  139CHL1    O316475   0.837   6.416  12.216 -0.3127 -0.0170 -0.1150
  139CHL1   H3'16476   0.769   6.351  12.198  0.4812 -1.0970  0.6708
  139CHL1    C416477   0.875   6.276  12.413  0.3370 -0.6410 -0.1759
  139CHL1   H4A16478   0.793   6.205  12.384  0.7043 -0.9005 -0.6045
  139CHL1   H4B16479   0.970   6.241  12.368  0.0328  0.4243 -1.7485
  139CHL1    C516480   0.883   6.274  12.565  0.2156 -0.0271 -0.0951
  139CHL1    C616481   0.977   6.217  12.635  0.0472 -0.0414 -1.0685
  139CHL1    H616482   1.054   6.157  12.584  2.2906  0.4111  1.5325
  139CHL1    C716483   0.979   6.199  12.791  0.5016 -0.6492 -0.1570
  139CHL1   H7A16484   1.007   6.102  12.838  1.2534 -0.2604  0.2237
  139CHL1   H7B16485   1.060   6.270  12.821 -1.1163  1.1040  0.2239
  139CHL1    C816486   0.856   6.256  12.867 -0.5898  0.3428 -0.8581
  139CHL1    H816487   0.775   6.181  12.869  0.5440 -0.9183 -0.9352
  139CHL1   C1416488   0.890   6.289  13.006 -0.9219 -0.2553 -0.5026
  139CHL1   H1416489   0.971   6.364  13.025 -0.1471 -1.8966  3.8392
  139CHL1   C1516490   0.953   6.171  13.097  0.1489  0.0837  0.3014
  139CHL1  H15A16491   0.900   6.075  13.077  1.1340 -0.6320  1.0252
  139CHL1  H15B16492   1.061   6.153  13.075  0.3258  0.7360  0.6089
  139CHL1   C1616493   0.919   6.215  13.237  0.1128 -0.4747 -0.4412
  139CHL1  H16A16494   0.849   6.138  13.277  1.1464 -1.2420 -0.0730
  139CHL1  H16B16495   1.014   6.235  13.291  0.0488  3.3149 -1.4503
  139CHL1   C1716496   0.836   6.349  13.225  0.8314 -0.6909  0.1813
  139CHL1   H1716497   0.920   6.422  13.223  0.8960 -0.6253 -4.0713
  139CHL1   C1316498   0.770   6.348  13.083 -0.5984  0.3425  0.2715
  139CHL1   C1816499   0.644   6.260  13.093  0.2923  0.0211 -0.2240
  139CHL1  H18A16500   0.615   6.229  12.991 -2.0192 -0.0720  0.4059
  139CHL1  H18B16501   0.679   6.169  13.147  1.0384  0.0802 -0.5949
  139CHL1  H18C16502   0.557   6.311  13.140 -0.3833  0.3444 -1.7702
  139CHL1   C1216503   0.726   6.472  13.018  0.4248  0.0443  0.0876
  139CHL1  H12A16504   0.644   6.519  13.076 -0.7213 -1.4688 -0.2657
  139CHL1  H12B16505   0.813   6.542  13.019 -0.3578  1.0331  0.6737
  139CHL1   C1116506   0.689   6.455  12.871 -0.4493  0.5669  1.1851
  139CHL1  H11A16507   0.589   6.407  12.862 -0.0650  0.0033 -0.6211
  139CHL1  H11B16508   0.673   6.556  12.827  2.0388  0.2943 -0.6059
  139CHL1    C916509   0.801   6.383  12.794 -0.1435 -0.6394  0.3009
  139CHL1    H916510   0.882   6.459  12.793  0.4847 -1.2934 -1.7722
  139CHL1   C1016511   0.769   6.348  12.642  0.3799 -0.8705  0.0113
  139CHL1   C1916512   0.638   6.260  12.638 -0.3190 -0.1553 -0.1606
  139CHL1  H19A16513   0.627   6.233  12.530  1.8154  1.5188 -0.8747
  139CHL1  H19B16514   0.647   6.165  12.694 -0.0542 -1.7648 -2.7686
  139CHL1  H19C16515   0.550   6.322  12.665  0.0152  1.6434 -2.7375
  139CHL1    C116516   0.741   6.491  12.577 -0.2858 -0.1957 -0.4742
  139CHL1   H1A16517   0.650   6.534  12.624  1.2546  0.5806  2.0008
  139CHL1   H1B16518   0.824   6.561  12.604 -0.7131 -0.0675  0.5616
  139CHL1    C216519   0.727   6.482  12.422 -0.2608 -0.5145 -0.1612
  139CHL1   H2A16520   0.711   6.586  12.388  0.0374 -0.3469  0.1932
  139CHL1   H2B16521   0.634   6.427  12.398  0.0356 -1.9978  1.8036
  139CHL1   C2016522   0.752   6.386  13.349  0.5597  0.0514 -0.1322
  139CHL1   H2016523   0.653   6.337  13.342  0.5804 -0.0630  0.3144
  139CHL1   C2116524   0.732   6.537  13.355 -0.2293 -0.4046 -0.2776
  139CHL1  H21A16525   0.678   6.586  13.271  2.2953  0.8602 -1.2655
  139CHL1  H21B16526   0.829   6.589  13.372 -0.4663 -0.5221  1.5508
  139CHL1  H21C16527   0.677   6.564  13.447  1.7355 -1.3107  1.2375
  139CHL1   C2216528   0.811   6.336  13.486  0.5158 -0.0104 -0.0815
  139CHL1  H22A16529   0.814   6.226  13.469  0.1565 -0.0320 -0.0097
  139CHL1  H22B16530   0.917   6.364  13.506  0.6921 -0.6525 -0.0978
  139CHL1   C2316531   0.715   6.363  13.604 -0.0329  0.1335  0.2851
  139CHL1  H23A16532   0.715   6.473  13.621 -1.5158  0.3392 -0.8407
  139CHL1  H23B16533   0.612   6.325  13.589  0.4753 -0.8792 -0.7900
  139CHL1   C2416534   0.776   6.302  13.730 -0.2085  0.7930 -0.2679
  139CHL1  H24A16535   0.805   6.199  13.702 -2.4991 -0.4380  1.5141
  139CHL1  H24B16536   0.864   6.366  13.757 -1.2209  1.5600  1.4028
  139CHL1   C2516537   0.687   6.299  13.856 -0.2767  0.0374 -0.0307
  139CHL1   H2516538   0.611   6.220  13.837  0.0425 -0.1542 -0.5151
  139CHL1   C2616539   0.762   6.263  13.983 -0.2635 -0.0579 -0.4510
  139CHL1  H26A16540   0.805   6.162  13.971 -0.7636 -0.4988  1.1547
  139CHL1  H26B16541   0.843   6.338  13.999 -1.0738  0.9162 -0.7931
  139CHL1  H26C16542   0.685   6.260  14.064 -2.9693 -1.0206 -2.9134
  139CHL1   C2716543   0.616   6.439  13.880 -0.1367 -0.8448 -0.0822
  139CHL1  H27A16544   0.581   6.487  13.787 -1.4458  1.9197  1.7124
  139CHL1  H27B16545   0.528   6.422  13.946  0.8093  1.3586  1.8909
  139CHL1  H27C16546   0.686   6.512  13.926  0.2429 -1.2418 -0.0129
  140CHL1    C316547   5.621   0.341  12.234  0.5226 -0.9389  0.0681
  140CHL1    H316548   5.535   0.273  12.215 -1.0550  1.0368 -0.1037
  140CHL1    O316549   5.687   0.349  12.109  0.0090 -0.3447  0.1614
  140CHL1   H3'16550   5.612   0.352  12.049  0.5476 -0.5913 -0.5359
  140CHL1    C416551   5.595   0.484  12.282 -0.5406 -0.4928 -0.1831
  140CHL1   H4A16552   5.684   0.549  12.293 -2.2107  1.9154 -0.2375
  140CHL1   H4B16553   5.531   0.534  12.206  0.2554  0.5758 -0.1714
  140CHL1    C516554   5.535   0.470  12.425  0.6040  0.4056 -0.3276
  140CHL1    C616555   5.419   0.519  12.457 -0.0563  0.2586  0.1650
  140CHL1    H616556   5.379   0.586  12.380  0.2373  0.1675 -0.0715
  140CHL1    C716557   5.358   0.508  12.590  0.7955 -0.9568 -0.1689
  140CHL1   H7A16558   5.286   0.587  12.620  1.4249  0.3028 -1.8113
  140CHL1   H7B16559   5.304   0.411  12.580 -1.4819  0.3348 -0.9954
  140CHL1    C816560   5.463   0.482  12.702  0.1236  0.3139 -0.1252
  140CHL1    H816561   5.520   0.577  12.710 -0.5661  0.7948 -0.7779
  140CHL1   C1416562   5.397   0.433  12.832 -0.4162 -0.4282  0.3543
  140CHL1   H1416563   5.365   0.329  12.810 -2.9150  0.4739 -0.6146
  140CHL1   C1516564   5.263   0.502  12.879  0.6185 -0.1019 -0.4268
  140CHL1  H15A16565   5.278   0.612  12.881 -1.1114  0.1718  2.2658
  140CHL1  H15B16566   5.172   0.475  12.822 -0.1141  0.3274  0.5227
  140CHL1   C1616567   5.253   0.454  13.023  0.2669  0.1938  0.2521
  140CHL1  H16A16568   5.247   0.544  13.088  0.5130 -0.7790  1.6893
  140CHL1  H16B16569   5.159   0.398  13.039 -1.9992  3.6209  0.0422
  140CHL1   C1716570   5.376   0.372  13.050 -1.1577  0.3899 -0.0106
  140CHL1   H1716571   5.346   0.272  13.012 -0.0577 -0.0603  0.2624
  140CHL1   C1316572   5.490   0.416  12.951 -0.6267  0.1931  0.1304
  140CHL1   C1816573   5.550   0.560  12.976 -0.3012 -0.2739  0.1202
  140CHL1  H18A16574   5.623   0.564  13.059  0.9471  0.9540 -0.9812
  140CHL1  H18B16575   5.617   0.586  12.892  2.2415 -0.0195  2.0854
  140CHL1  H18C16576   5.474   0.640  12.992  0.7193  0.5723  0.9563
  140CHL1   C1216577   5.591   0.305  12.906  0.1768 -0.9720  1.1719
  140CHL1  H12A16578   5.672   0.293  12.981  0.8198  0.2381  0.7004
  140CHL1  H12B16579   5.527   0.216  12.887 -1.8554  0.9745 -2.0479
  140CHL1   C1116580   5.659   0.325  12.769 -0.2449 -0.1974  0.1036
  140CHL1  H11A16581   5.732   0.405  12.795 -0.0700  0.0345 -1.0454
  140CHL1  H11B16582   5.724   0.238  12.751  1.1137  0.7508  0.2452
  140CHL1    C916583   5.562   0.370  12.660 -0.4296  0.5563  0.2843
  140CHL1    H916584   5.497   0.280  12.649 -0.1496  0.2077  1.4521
  140CHL1   C1016585   5.626   0.391  12.523  0.7616  0.4783  0.0963
  140CHL1   C1916586   5.749   0.466  12.549 -0.2245 -0.3287  0.0285
  140CHL1  H19A16587   5.736   0.551  12.619 -1.3280  0.5682 -1.2047
  140CHL1  H19B16588   5.827   0.396  12.585  0.3715 -0.6490 -1.7732
  140CHL1  H19C16589   5.791   0.511  12.456 -0.4726  0.0483  0.0975
  140CHL1    C116590   5.666   0.250  12.458  0.7437 -0.0688  0.0507
  140CHL1   H1A16591   5.739   0.196  12.522  0.7839  0.2472  0.2711
  140CHL1   H1B16592   5.577   0.184  12.455  1.6251 -1.2517 -1.1220
  140CHL1    C216593   5.725   0.259  12.320 -0.5116 -0.6689 -0.0423
  140CHL1   H2A16594   5.733   0.155  12.282 -1.5095 -1.7166  2.3692
  140CHL1   H2B16595   5.821   0.313  12.321 -0.2752 -1.0206 -1.5343
  140CHL1   C2016596   5.412   0.344  13.197 -0.3923  0.8980 -0.4884
  140CHL1   H2016597   5.320   0.296  13.237 -1.0513 -0.3740 -3.2283
  140CHL1   C2116598   5.432   0.472  13.274  0.3913  0.8184 -0.7152
  140CHL1  H21A16599   5.535   0.508  13.255  0.1800  0.9629 -1.6203
  140CHL1  H21B16600   5.422   0.458  13.384 -0.1003  1.2454 -0.6989
  140CHL1  H21C16601   5.347   0.541  13.257 -0.3930 -0.1039 -0.6574
  140CHL1   C2216602   5.533   0.250  13.213 -0.4048 -0.3567 -0.0607
  140CHL1  H22A16603   5.519   0.167  13.141  0.4968 -0.4996 -0.0847
  140CHL1  H22B16604   5.627   0.297  13.176  0.3425 -0.8056  1.1609
  140CHL1   C2316605   5.562   0.204  13.362  0.0088 -0.0591  0.1116
  140CHL1  H23A16606   5.518   0.272  13.438 -0.4848  0.4493 -0.6121
  140CHL1  H23B16607   5.518   0.104  13.382  0.8922 -0.2283  1.2566
  140CHL1   C2416608   5.713   0.198  13.387  0.4882  1.0241 -0.0464
  140CHL1  H24A16609   5.765   0.108  13.347 -1.1576  0.3490 -0.7268
  140CHL1  H24B16610   5.753   0.290  13.340 -0.7288  1.1527 -0.8770
  140CHL1   C2516611   5.755   0.202  13.533  0.9432 -0.0177  0.3476
  140CHL1   H2516612   5.681   0.267  13.586 -1.1122  1.3309 -3.7600
  140CHL1   C2616613   5.903   0.251  13.545  0.3411  0.3457  0.7038
  140CHL1  H26A16614   5.928   0.269  13.652 -0.5931 -2.4201  1.4931
  140CHL1  H26B16615   5.968   0.180  13.490  0.4331  0.0739  1.1488
  140CHL1  H26C16616   5.908   0.353  13.502 -3.8851  0.4068 -0.0389
  140CHL1   C2716617   5.733   0.074  13.604 -0.1805 -0.4495  0.4567
  140CHL1  H27A16618   5.627   0.042  13.591 -1.4002  3.4403 -0.3142
  140CHL1  H27B16619   5.809   0.003  13.562  1.4190  1.3526  0.1760
  140CHL1  H27C16620   5.754   0.096  13.711  0.1376 -0.3709  0.3789
  141DOPC     N16621   3.477   2.077  16.891  0.1632 -0.0705  0.6173
  141DOPC   C1216622   3.609   2.132  16.944  0.2503  0.4296 -0.0405
  141DOPC  H12A16623   3.606   2.126  17.052 -2.6193  1.5085  0.0133
  141DOPC  H12B16624   3.607   2.239  16.927  2.6450  0.2898 -1.6487
  141DOPC   C1316625   3.359   2.131  16.958  0.3420  0.3040 -0.4395
  141DOPC  H13A16626   3.262   2.106  16.918 -1.5365  1.4991  2.9221
  141DOPC  H13B16627   3.341   2.084  17.054  1.6126  1.2532  0.2922
  141DOPC  H13C16628   3.367   2.239  16.961  0.3030  0.4635 -3.4770
  141DOPC   C1416629   3.463   1.928  16.901  0.1284 -0.3971  0.1205
  141DOPC  H14A16630   3.374   1.885  16.858  1.1063 -1.9703 -0.4569
  141DOPC  H14B16631   3.544   1.880  16.848  0.8612 -0.1648  1.0071
  141DOPC  H14C16632   3.469   1.896  17.004 -1.0855  0.1996  0.3867
  141DOPC   C1516633   3.470   2.113  16.741  0.4804 -0.0830  0.5436
  141DOPC  H15A16634   3.431   2.213  16.738  0.9053  0.0678 -1.5080
  141DOPC  H15B16635   3.416   2.041  16.681  1.3687 -1.4335  1.3134
  141DOPC  H15C16636   3.561   2.090  16.689 -0.3684  1.3201 -1.6945
  141DOPC   C1116637   3.736   2.093  16.883  0.5229  0.6778  0.7031
  141DOPC  H11A16638   3.747   2.121  16.776  0.5867  1.1376  0.8292
  141DOPC  H11B16639   3.821   2.147  16.930  0.4793  0.1245  1.4253
  141DOPC     P16640   3.822   1.860  16.788  0.0814  0.0571 -0.0683
  141DOPC   O1316641   3.775   1.723  16.812 -0.7647  0.0362  0.1892
  141DOPC   O1416642   3.968   1.875  16.786 -0.3755 -0.3922  0.3414
  141DOPC   O1216643   3.763   1.951  16.896  0.0544 -0.1142 -0.2712
  141DOPC   O1116644   3.768   1.915  16.648  0.2553 -0.1377 -0.2014
  141DOPC    C116645   3.863   1.940  16.543  0.0013  0.1999 -0.3466
  141DOPC    HA16646   3.816   1.919  16.445 -0.0076 -2.0816  0.0776
  141DOPC    HB16647   3.950   1.870  16.546 -1.4216 -1.6219  1.2574
  141DOPC    C216648   3.905   2.085  16.539 -0.1463  0.0981 -0.3872
  141DOPC    HS16649   3.957   2.111  16.633 -1.6883 -1.5538  0.9882
  141DOPC   O2116650   3.784   2.163  16.515  0.3210 -0.4777  0.4869
  141DOPC   C2116651   3.791   2.292  16.537  0.6001  0.0170 -0.1276
  141DOPC   O2216652   3.887   2.355  16.589  0.7500 -0.1339 -0.1993
  141DOPC   C2216653   3.674   2.358  16.470 -0.3899 -0.7258  0.1081
  141DOPC   H2R16654   3.609   2.399  16.550  1.3971  0.2435  1.1184
  141DOPC   H2S16655   3.615   2.284  16.411 -0.6496 -0.2971 -0.1748
  141DOPC    C316656   4.007   2.117  16.429 -0.3787 -0.2587  1.1260
  141DOPC    HX16657   4.102   2.072  16.464  1.1420  1.3637 -0.6874
  141DOPC    HY16658   4.041   2.222  16.421 -0.4271 -0.1773  1.9835
  141DOPC   O3116659   3.965   2.066  16.298  0.1599 -0.8305 -0.1663
  141DOPC   C3116660   4.041   1.989  16.227  0.2960 -0.8118  0.3467
  141DOPC   O3216661   4.151   1.947  16.263  0.3749 -1.0619 -0.1368
  141DOPC   C3216662   3.962   1.936  16.109 -0.2820  0.4854  0.4349
  141DOPC   H2X16663   3.986   1.830  16.086 -0.5309  0.4160  0.4909
  141DOPC   H2Y16664   3.854   1.957  16.121 -0.7939 -1.8099  0.1859
  141DOPC   C2316665   3.718   2.474  16.380 -0.1401 -0.2538 -0.1084
  141DOPC   H3R16666   3.778   2.544  16.443 -1.0175 -1.0080  1.5956
  141DOPC   H3S16667   3.625   2.521  16.341 -0.1567 -0.1870  0.0110
  141DOPC   C2416668   3.798   2.429  16.263 -0.1499 -0.1279  0.3815
  141DOPC   H4R16669   3.723   2.380  16.198  0.0513  0.8681 -0.6296
  141DOPC   H4S16670   3.877   2.356  16.290  0.9809  0.1001 -2.0083
  141DOPC   C2516671   3.860   2.547  16.187 -0.3142 -0.1735  0.6493
  141DOPC   H5R16672   3.956   2.558  16.242  0.0820 -2.9142  0.6615
  141DOPC   H5S16673   3.799   2.634  16.219  1.4468  0.1236  3.5743
  141DOPC   C2616674   3.871   2.520  16.034  0.8027 -0.8278 -0.0577
  141DOPC   H6R16675   3.896   2.615  15.982  2.1086 -1.0392  0.1517
  141DOPC   H6S16676   3.780   2.477  15.989  0.1227  0.8607 -0.3652
  141DOPC   C2716677   3.982   2.423  16.000 -0.2647 -0.2666  0.2125
  141DOPC   H7R16678   3.969   2.327  16.055  0.0474 -0.0759  0.6165
  141DOPC   H7S16679   4.077   2.454  16.048 -0.0134  0.3097 -0.6349
  141DOPC   C2816680   3.983   2.410  15.844  0.0413 -0.0986 -0.2249
  141DOPC   H8R16681   3.877   2.411  15.812  0.2275  1.1298 -0.8642
  141DOPC   H8S16682   4.029   2.312  15.822 -0.5229 -0.2724 -0.6471
  141DOPC   C2916683   4.061   2.519  15.779  0.3887  0.3937 -0.3017
  141DOPC   H9R16684   4.081   2.605  15.844 -1.2177  0.0369  0.7321
  141DOPC  C21016685   4.074   2.532  15.644 -0.1453 -0.1135  0.1260
  141DOPC  H10R16686   4.135   2.616  15.608  1.4864 -1.3570 -0.1728
  141DOPC  C21116687   4.022   2.424  15.551  0.2753  0.7528  0.0102
  141DOPC  H11R16688   3.913   2.407  15.564 -0.1854  3.6368  0.7943
  141DOPC  H11S16689   4.087   2.335  15.566  0.9307  1.0151 -1.1264
  141DOPC  C21216690   4.053   2.465  15.407  0.3769 -0.0592  0.5904
  141DOPC  H12R16691   4.031   2.376  15.345  0.2829  2.0460 -2.6399
  141DOPC  H12S16692   4.159   2.497  15.391 -0.2865  1.6102 -0.7682
  141DOPC  C21316693   3.962   2.567  15.337  0.9060 -0.7367 -0.4282
  141DOPC  H13R16694   3.996   2.668  15.369 -2.5249 -0.1468  1.7960
  141DOPC  H13S16695   3.858   2.563  15.377  1.7160 -0.3882  1.8334
  141DOPC  C21416696   3.961   2.551  15.186  0.1534 -0.9488  0.6062
  141DOPC  H14R16697   3.944   2.446  15.156 -0.2343 -0.9768  0.9095
  141DOPC  H14S16698   4.064   2.580  15.155  0.6600 -0.2819  2.7378
  141DOPC  C21516699   3.859   2.647  15.117 -0.3060 -1.0800  0.0121
  141DOPC  H15R16700   3.881   2.753  15.142 -0.8687 -1.3037  1.6021
  141DOPC  H15S16701   3.754   2.622  15.142 -0.8323 -0.3116 -1.3159
  141DOPC  C21616702   3.884   2.629  14.972  0.1615  0.9320  0.0003
  141DOPC  H16R16703   3.894   2.521  14.949  1.1630 -0.0681  4.2230
  141DOPC  H16S16704   3.986   2.667  14.951  1.1854 -1.1321  0.9693
  141DOPC  C21716705   3.778   2.704  14.894  0.5097  0.0056  0.6577
  141DOPC  H17R16706   3.780   2.806  14.938 -0.6508 -0.2040  1.2254
  141DOPC  H17S16707   3.678   2.661  14.916  0.2216  0.7961  0.9632
  141DOPC  C21816708   3.794   2.714  14.737  0.0469 -0.3230 -0.1487
  141DOPC  H18R16709   3.795   2.620  14.677 -1.1556  1.2519 -2.8064
  141DOPC  H18S16710   3.889   2.759  14.700 -0.4677 -1.1801 -2.7687
  141DOPC  H18T16711   3.715   2.781  14.698  0.8773  1.8281  1.6742
  141DOPC   C3316712   4.004   2.009  15.981 -0.2471  0.4493  0.5587
  141DOPC   H3X16713   4.108   1.989  15.945 -1.1572 -0.8298 -1.5572
  141DOPC   H3Y16714   4.002   2.118  15.999  1.3656  1.0404 -2.1654
  141DOPC   C3416715   3.907   1.978  15.856 -0.4669 -0.2484 -0.5890
  141DOPC   H4X16716   3.801   1.973  15.889 -0.3283  0.9232  0.1164
  141DOPC   H4Y16717   3.932   1.872  15.835 -0.8610 -0.3147 -0.7299
  141DOPC   C3516718   3.924   2.067  15.737  0.4020  0.1487 -0.3868
  141DOPC   H5X16719   4.029   2.101  15.723  0.3131  1.0718  0.9808
  141DOPC   H5Y16720   3.862   2.152  15.773  1.1758  0.6231 -0.1519
  141DOPC   C3616721   3.857   2.013  15.605  0.6567 -0.3536  0.2472
  141DOPC   H6X16722   3.911   1.921  15.576  2.0728  0.4681  0.1879
  141DOPC   H6Y16723   3.748   1.993  15.617  0.6482 -0.5143 -0.0831
  141DOPC   C3716724   3.887   2.109  15.487 -0.5248 -0.2093 -0.7015
  141DOPC   H7X16725   3.839   2.204  15.516  0.8579  0.2209  0.2594
  141DOPC   H7Y16726   3.997   2.113  15.475 -0.5715 -0.1108 -1.1127
  141DOPC   C3816727   3.846   2.049  15.353 -0.8447 -0.0252 -0.0191
  141DOPC   H8X16728   3.895   1.951  15.340  0.8070  0.7502  0.0930
  141DOPC   H8Y16729   3.889   2.108  15.269 -1.8469  0.3364 -0.2980
  141DOPC   C3916730   3.696   2.030  15.341 -0.6066 -0.3406 -0.4338
  141DOPC   H9X16731   3.661   1.950  15.407 -1.3724 -0.6741 -1.2225
  141DOPC  C31016732   3.614   2.104  15.270 -0.1165  0.0300  0.6576
  141DOPC  H10X16733   3.505   2.091  15.278 -0.8425  3.5451 -1.5254
  141DOPC  C31116734   3.646   2.232  15.189  0.0349  0.0331  0.1426
  141DOPC  H11X16735   3.752   2.263  15.194  0.7611 -2.0846 -0.6397
  141DOPC  H11Y16736   3.568   2.309  15.207 -1.9712 -2.0153  0.6455
  141DOPC  C31216737   3.627   2.220  15.036 -0.1227  0.5552 -0.1270
  141DOPC  H12X16738   3.528   2.178  15.008  0.3739 -0.4026 -0.4767
  141DOPC  H12Y16739   3.697   2.140  15.006  0.9148  1.2253  0.4735
  141DOPC  C31316740   3.650   2.356  14.964 -0.1502  0.7308  0.0223
  141DOPC  H13X16741   3.587   2.437  15.009 -2.0070 -1.5085  1.7252
  141DOPC  H13Y16742   3.750   2.397  14.989  0.4091  1.1583 -2.5892
  141DOPC  C31416743   3.645   2.355  14.808  0.4830 -1.2463  0.0509
  141DOPC  H14X16744   3.698   2.447  14.776 -1.5794  0.1140  0.3588
  141DOPC  H14Y16745   3.690   2.259  14.774  0.9184 -1.5280  1.3499
  141DOPC  C31516746   3.498   2.370  14.764  0.9647  0.8705  0.2530
  141DOPC  H15X16747   3.470   2.476  14.785 -3.0984  0.0940 -0.4152
  141DOPC  H15Y16748   3.433   2.291  14.808  0.5341 -0.0534 -1.9346
  141DOPC  C31616749   3.486   2.352  14.608  0.4346  0.2979 -0.2120
  141DOPC  H16X16750   3.507   2.248  14.574 -0.2447  0.4706 -1.2166
  141DOPC  H16Y16751   3.379   2.375  14.589  0.2299 -1.3237 -1.1535
  141DOPC  C31716752   3.584   2.445  14.538  0.3675  0.3497  0.3033
  141DOPC  H17X16753   3.571   2.546  14.584  0.4044  1.4028 -1.9018
  141DOPC  H17Y16754   3.690   2.415  14.545 -0.2058 -1.5774  1.6542
  141DOPC  C31816755   3.553   2.468  14.388 -0.4967  0.7324 -0.9611
  141DOPC  H18X16756   3.617   2.545  14.338  0.2425  0.7977  0.0579
  141DOPC  H18Y16757   3.554   2.372  14.333 -0.7808  0.0720  0.1506
  141DOPC  H18Z16758   3.449   2.506  14.395 -0.8438 -0.3971  0.3902
  142DOPC     N16759   3.618   3.162  17.002  0.9507 -0.0284 -0.3488
  142DOPC   C1216760   3.759   3.113  16.967  0.3055 -0.7670  0.9086
  142DOPC  H12A16761   3.780   3.144  16.866  0.0768 -0.8397  0.8385
  142DOPC  H12B16762   3.755   3.005  16.961 -2.1287 -0.7078  0.4062
  142DOPC   C1316763   3.577   3.123  17.141  0.0679 -0.2503 -0.6543
  142DOPC  H13A16764   3.580   3.015  17.149  0.1709 -0.2373 -0.5208
  142DOPC  H13B16765   3.651   3.172  17.202  0.9642 -0.7921 -1.2849
  142DOPC  H13C16766   3.477   3.162  17.152 -0.0377 -0.5366 -0.5932
  142DOPC   C1416767   3.527   3.094  16.896  0.2241 -0.2105 -0.0975
  142DOPC  H14A16768   3.521   3.151  16.804 -2.0585  0.3281  0.3109
  142DOPC  H14B16769   3.566   2.995  16.878 -0.5611 -0.1764 -2.3285
  142DOPC  H14C16770   3.428   3.080  16.935  0.3038 -2.0241 -0.4910
  142DOPC   C1516771   3.610   3.307  16.987  0.2449  0.3835  0.2950
  142DOPC  H15A16772   3.695   3.348  17.040 -0.7961  2.0985  0.6795
  142DOPC  H15B16773   3.518   3.356  17.014 -1.0596  0.2285 -3.3153
  142DOPC  H15C16774   3.625   3.328  16.882 -2.6972 -2.1730 -0.7992
  142DOPC   C1116775   3.881   3.143  17.049  0.9789  0.9460 -0.1648
  142DOPC  H11A16776   3.883   3.090  17.147  0.0824 -0.5795 -0.9330
  142DOPC  H11B16777   3.972   3.101  17.001  0.8964  1.2870 -0.6288
  142DOPC     P16778   4.007   3.364  16.975  0.0497  0.3506 -0.1744
  142DOPC   O1316779   4.133   3.331  17.042 -0.6372  0.3619 -0.2160
  142DOPC   O1416780   3.971   3.507  16.949 -0.2848  0.1843 -0.1111
  142DOPC   O1216781   3.902   3.286  17.063  0.4718 -0.2467  0.0494
  142DOPC   O1116782   4.005   3.283  16.841 -0.1521 -1.0253  0.5277
  142DOPC    C116783   4.051   3.351  16.723 -0.0871  0.4578 -0.3376
  142DOPC    HA16784   4.126   3.290  16.668  1.2319  1.1750  0.6292
  142DOPC    HB16785   4.107   3.445  16.741 -1.0464  1.4940 -2.4706
  142DOPC    C216786   3.934   3.395  16.637  0.1099  0.1035 -0.4601
  142DOPC    HS16787   3.849   3.426  16.700  0.2012 -0.9170  0.1880
  142DOPC   O2116788   3.892   3.288  16.551 -0.0621  0.1920  0.1102
  142DOPC   C2116789   3.789   3.212  16.596  0.2071  0.1414  0.6876
  142DOPC   O2216790   3.733   3.226  16.702  0.0001  0.2511  0.5010
  142DOPC   C2216791   3.762   3.096  16.496  0.0934 -0.3797  0.1336
  142DOPC   H2R16792   3.724   3.007  16.550 -1.2259  0.7730  1.1794
  142DOPC   H2S16793   3.858   3.058  16.453 -0.6140 -0.3160 -1.5827
  142DOPC    C316794   3.972   3.522  16.557 -0.1963 -0.1014  0.3555
  142DOPC    HX16795   4.047   3.496  16.480 -1.3824  0.0090 -0.8789
  142DOPC    HY16796   4.008   3.606  16.620  0.5630 -0.9863  1.1343
  142DOPC   O3116797   3.863   3.557  16.469  0.6230  0.0429 -0.0497
  142DOPC   C3116798   3.757   3.618  16.518  0.1434 -0.5143 -0.1537
  142DOPC   O3216799   3.750   3.659  16.633  0.5708 -0.2778 -0.4737
  142DOPC   C3216800   3.641   3.613  16.417 -0.1495 -0.0892 -0.6485
  142DOPC   H2X16801   3.678   3.569  16.322 -1.9615  0.5150 -1.6844
  142DOPC   H2Y16802   3.567   3.539  16.454  1.7008 -1.7269 -0.0299
  142DOPC   C2316803   3.668   3.130  16.378 -0.3471  0.2585  0.1263
  142DOPC   H3R16804   3.585   3.193  16.417  0.0381  0.4584  0.6463
  142DOPC   H3S16805   3.619   3.039  16.336 -0.3698  1.1313 -1.8376
  142DOPC   C2416806   3.740   3.209  16.272 -0.2315  0.2158  0.0524
  142DOPC   H4R16807   3.819   3.144  16.230 -0.6356  0.3412 -0.9194
  142DOPC   H4S16808   3.784   3.301  16.317  0.8958 -0.5910  0.6304
  142DOPC   C2516809   3.641   3.265  16.167  0.5661  0.0715  0.5809
  142DOPC   H5R16810   3.571   3.340  16.210 -0.0002  0.5130 -1.0319
  142DOPC   H5S16811   3.591   3.180  16.115  2.6433  0.4526 -2.2767
  142DOPC   C2616812   3.702   3.345  16.049  0.2003  0.8145 -0.3064
  142DOPC   H6R16813   3.795   3.300  16.010 -0.0611  2.1452 -2.6437
  142DOPC   H6S16814   3.718   3.448  16.088 -2.3657  0.8264  0.9909
  142DOPC   C2716815   3.604   3.377  15.942  0.3551  0.1421  0.0927
  142DOPC   H7R16816   3.511   3.419  15.985 -0.1421 -0.9932  0.1497
  142DOPC   H7S16817   3.585   3.286  15.881 -0.2302  0.2004  0.1800
  142DOPC   C2816818   3.665   3.475  15.842 -0.4865 -0.6914  0.1819
  142DOPC   H8R16819   3.748   3.433  15.780 -2.6702  0.0018 -3.5494
  142DOPC   H8S16820   3.715   3.563  15.888  0.3372 -1.1032  0.0991
  142DOPC   C2916821   3.566   3.527  15.745  0.2048  0.4773  0.5697
  142DOPC   H9R16822   3.491   3.590  15.795 -3.1308 -1.6516 -1.3805
  142DOPC  C21016823   3.530   3.493  15.620  0.5979  0.4205 -0.2576
  142DOPC  H10R16824   3.445   3.537  15.565 -0.9390  0.2120  1.8007
  142DOPC  C21116825   3.602   3.397  15.534  0.0822  0.7402  0.3075
  142DOPC  H11R16826   3.539   3.307  15.516  0.9460  0.2772 -0.5283
  142DOPC  H11S16827   3.686   3.355  15.593  0.3532 -1.6339 -1.5776
  142DOPC  C21216828   3.662   3.433  15.396  0.0667 -0.1834  0.0016
  142DOPC  H12R16829   3.735   3.355  15.367 -0.0933  0.1172 -1.3041
  142DOPC  H12S16830   3.717   3.529  15.396  0.0454 -0.1710  0.0692
  142DOPC  C21316831   3.552   3.435  15.287  0.1276 -0.5935  0.0471
  142DOPC  H13R16832   3.471   3.504  15.316  2.0342  1.6481  0.3221
  142DOPC  H13S16833   3.519   3.329  15.278 -0.2909 -1.0465  4.4907
  142DOPC  C21416834   3.603   3.499  15.156 -0.2029  0.3957 -0.2513
  142DOPC  H14R16835   3.692   3.441  15.125 -0.6088  0.7516 -2.2084
  142DOPC  H14S16836   3.645   3.600  15.178 -2.2605  1.5964 -1.5154
  142DOPC  C21516837   3.506   3.499  15.036  0.5231 -0.3617  0.0275
  142DOPC  H15R16838   3.550   3.569  14.962 -1.1925 -0.7062 -1.3940
  142DOPC  H15S16839   3.399   3.515  15.061  1.1260 -0.9417  3.5772
  142DOPC  C21616840   3.511   3.361  14.955  0.7436  0.1078 -0.4574
  142DOPC  H16R16841   3.470   3.270  15.004  1.5224 -0.4896 -0.8642
  142DOPC  H16S16842   3.618   3.332  14.944  0.8331 -0.9624  2.4280
  142DOPC  C21716843   3.453   3.345  14.814 -0.2610 -0.4814 -0.6165
  142DOPC  H17R16844   3.346   3.368  14.829 -0.3869 -1.1990 -0.3515
  142DOPC  H17S16845   3.457   3.239  14.780 -2.4716 -0.2488 -1.7462
  142DOPC  C21816846   3.517   3.420  14.701 -0.3981  0.6408  0.4772
  142DOPC  H18R16847   3.627   3.428  14.718 -0.2122 -1.5443  0.6545
  142DOPC  H18S16848   3.463   3.515  14.683 -2.0887 -0.2325  0.7942
  142DOPC  H18T16849   3.515   3.354  14.611  2.6968 -1.2146  1.6105
  142DOPC   C3316850   3.577   3.750  16.403  0.0192  0.1274 -0.3181
  142DOPC   H3X16851   3.652   3.824  16.367 -0.8909  0.1482 -2.3061
  142DOPC   H3Y16852   3.546   3.788  16.503 -0.1956 -2.9502  0.8987
  142DOPC   C3416853   3.466   3.750  16.292  0.1016 -0.4932  0.5866
  142DOPC   H4X16854   3.417   3.849  16.302  1.2507  0.0572  0.9758
  142DOPC   H4Y16855   3.389   3.673  16.313  0.0701  0.1774  3.4197
  142DOPC   C3516856   3.524   3.724  16.154 -0.6913 -0.0364 -0.2147
  142DOPC   H5X16857   3.559   3.620  16.169 -2.0918 -0.2921  1.6615
  142DOPC   H5Y16858   3.614   3.788  16.155 -0.0069 -0.9790 -0.7062
  142DOPC   C3616859   3.438   3.738  16.032  0.0695  0.5592 -0.6771
  142DOPC   H6X16860   3.510   3.730  15.947 -0.4316  4.4479 -1.6412
  142DOPC   H6Y16861   3.364   3.657  16.013  1.1076 -0.5197 -0.2454
  142DOPC   C3716862   3.366   3.880  16.012  0.1107 -0.1860  0.1594
  142DOPC   H7X16863   3.284   3.879  16.087  0.1049 -0.2490  0.1523
  142DOPC   H7Y16864   3.436   3.959  16.047 -0.1965  0.6914 -1.1566
  142DOPC   C3816865   3.310   3.902  15.873  0.5357 -0.3494 -0.1041
  142DOPC   H8X16866   3.245   3.990  15.850  1.4775  0.0326 -1.4576
  142DOPC   H8Y16867   3.246   3.813  15.854  2.7184 -2.0055 -0.0860
  142DOPC   C3916868   3.422   3.905  15.768  0.2270 -0.1079  0.1258
  142DOPC   H9X16869   3.513   3.941  15.818 -1.2340 -0.2673  3.1465
  142DOPC  C31016870   3.424   3.866  15.644 -0.4469 -0.1636  0.3070
  142DOPC  H10X16871   3.518   3.895  15.595 -0.3321 -1.2594 -0.1433
  142DOPC  C31116872   3.331   3.805  15.553  0.7667 -0.3876  0.1029
  142DOPC  H11X16873   3.223   3.803  15.580  0.6270 -0.6858 -0.4649
  142DOPC  H11Y16874   3.348   3.696  15.541  1.2560 -0.1358 -1.8768
  142DOPC  C31216875   3.357   3.877  15.423 -0.5733  0.0902  0.3162
  142DOPC  H12X16876   3.455   3.860  15.375  0.2438  1.3517  1.4467
  142DOPC  H12Y16877   3.346   3.988  15.426  0.0463  0.2202 -1.2731
  142DOPC  C31316878   3.257   3.820  15.320  0.6837  0.3162 -0.2950
  142DOPC  H13X16879   3.261   3.709  15.314  1.7282  0.2367  1.2669
  142DOPC  H13Y16880   3.155   3.845  15.356  0.7546  1.1936 -0.6783
  142DOPC  C31416881   3.273   3.884  15.182 -0.1060 -0.0562  0.3870
  142DOPC  H14X16882   3.242   3.990  15.191 -1.6478 -0.5916  2.0107
  142DOPC  H14Y16883   3.373   3.887  15.134 -0.5279 -0.7782 -0.5829
  142DOPC  C31516884   3.188   3.814  15.070 -0.4243  0.1798 -0.0861
  142DOPC  H15X16885   3.079   3.810  15.093 -0.6623  0.6374 -1.0833
  142DOPC  H15Y16886   3.235   3.713  15.064 -1.0548 -0.0677 -1.0074
  142DOPC  C31616887   3.196   3.885  14.930 -0.2673  0.5984  0.4946
  142DOPC  H16X16888   3.181   3.995  14.938 -0.1777  0.7246 -0.8320
  142DOPC  H16Y16889   3.300   3.873  14.894 -0.2700 -0.2662  0.7530
  142DOPC  C31716890   3.095   3.826  14.833 -0.2429 -0.2195  0.3080
  142DOPC  H17X16891   2.990   3.845  14.866 -0.3784 -0.6896  0.1594
  142DOPC  H17Y16892   3.121   3.866  14.733  0.7613  0.2727  0.7564
  142DOPC  C31816893   3.114   3.667  14.819 -0.5095  0.3574 -0.2947
  142DOPC  H18X16894   3.056   3.617  14.739  0.2383  0.2024 -0.7405
  142DOPC  H18Y16895   3.221   3.639  14.814 -0.9196 -1.1426 -1.7040
  142DOPC  H18Z16896   3.084   3.627  14.919 -0.1642  1.1094  0.1202
  143DOPC     N16897   2.732   2.340  17.404 -0.3020 -0.6166 -0.1199
  143DOPC   C1216898   2.738   2.296  17.258  0.3973 -0.2064  0.1443
  143DOPC  H12A16899   2.723   2.382  17.195  0.0532  1.0602  1.8575
  143DOPC  H12B16900   2.647   2.239  17.245 -0.0402  0.6554 -0.6337
  143DOPC   C1316901   2.849   2.431  17.445  0.1453 -0.1110  1.2750
  143DOPC  H13A16902   2.859   2.464  17.547  0.4819 -1.8454  1.8494
  143DOPC  H13B16903   2.939   2.378  17.416  0.3806  1.1455 -0.4410
  143DOPC  H13C16904   2.857   2.514  17.377  0.1862 -1.8048 -0.9276
  143DOPC   C1416905   2.745   2.224  17.494  0.0133  0.1872  0.3225
  143DOPC  H14A16906   2.681   2.139  17.474 -1.7671  1.5889 -0.1495
  143DOPC  H14B16907   2.846   2.185  17.489 -0.3872 -1.3730  2.6427
  143DOPC  H14C16908   2.727   2.244  17.598 -0.4244 -1.5137  0.6000
  143DOPC   C1516909   2.603   2.412  17.443 -0.2135 -0.2134 -0.3310
  143DOPC  H15A16910   2.600   2.512  17.403 -0.0466  0.2971  0.9090
  143DOPC  H15B16911   2.620   2.435  17.547  1.0260  0.3507 -0.6371
  143DOPC  H15C16912   2.509   2.360  17.428  0.3554 -1.2164 -0.4957
  143DOPC   C1116913   2.855   2.208  17.219  0.4270 -0.2668 -0.3684
  143DOPC  H11A16914   2.859   2.121  17.287 -1.5492 -0.2679 -0.1782
  143DOPC  H11B16915   2.831   2.183  17.113  1.9240 -0.1006 -0.7704
  143DOPC     P16916   3.096   2.269  17.139  0.1797 -0.1087  0.2762
  143DOPC   O1316917   3.142   2.130  17.162  0.6834 -0.4407  0.3497
  143DOPC   O1416918   3.202   2.375  17.154  0.0414 -0.4083  0.2704
  143DOPC   O1216919   2.971   2.289  17.232  0.2959 -0.1219  0.1824
  143DOPC   O1116920   3.040   2.286  16.997 -0.4167 -0.8031  0.4575
  143DOPC    C116921   2.970   2.404  16.963 -0.1242 -0.5581  1.1819
  143DOPC    HA16922   3.014   2.497  17.004 -0.8828  1.3982 -2.0945
  143DOPC    HB16923   2.867   2.398  17.005 -1.1954 -1.8102 -1.4574
  143DOPC    C216924   2.954   2.434  16.817 -0.6720 -0.3155  0.1445
  143DOPC    HS16925   2.898   2.352  16.769 -0.7937  0.1363 -0.4895
  143DOPC   O2116926   3.092   2.450  16.760  0.4843  0.3778  0.3545
  143DOPC   C2116927   3.090   2.411  16.629 -0.0933 -0.5269  0.5149
  143DOPC   O2216928   2.994   2.383  16.568 -0.0134 -0.6451  0.8529
  143DOPC   C2216929   3.240   2.393  16.574  0.6695 -0.3936 -0.5127
  143DOPC   H2R16930   3.292   2.322  16.641 -2.3474 -1.2314  1.1297
  143DOPC   H2S16931   3.286   2.494  16.582 -0.0448 -0.0516 -0.6517
  143DOPC    C316932   2.868   2.569  16.805  1.3034 -0.2535 -0.4183
  143DOPC    HX16933   2.905   2.633  16.888  0.3820  1.2389 -1.1250
  143DOPC    HY16934   2.769   2.522  16.822 -0.3198  2.4646 -1.6967
  143DOPC   O3116935   2.878   2.635  16.679  0.4974  0.4155 -0.1622
  143DOPC   C3116936   2.770   2.696  16.642 -0.4930  0.3118  0.6135
  143DOPC   O3216937   2.670   2.717  16.708  0.0044  0.0828 -0.2321
  143DOPC   C3216938   2.785   2.764  16.506  0.6789  0.1151  0.0242
  143DOPC   H2X16939   2.683   2.768  16.462 -0.4511  0.6330  2.5071
  143DOPC   H2Y16940   2.817   2.868  16.524 -0.8578  0.2011  2.9407
  143DOPC   C2316941   3.266   2.345  16.427  0.2485 -0.3154  0.1998
  143DOPC   H3R16942   3.208   2.254  16.402  1.0088 -0.5646 -0.6737
  143DOPC   H3S16943   3.376   2.331  16.415 -0.1605 -1.7314 -2.6195
  143DOPC   C2416944   3.210   2.449  16.329  0.3878  0.3965  0.2889
  143DOPC   H4R16945   3.254   2.550  16.341 -1.8506  1.5362 -0.4215
  143DOPC   H4S16946   3.101   2.454  16.353  0.1358 -0.1639 -0.6738
  143DOPC   C2516947   3.218   2.413  16.179 -0.9910  0.1232  0.5528
  143DOPC   H5R16948   3.176   2.498  16.121  1.1033  0.1068 -1.0931
  143DOPC   H5S16949   3.162   2.322  16.150  0.8233 -1.4723  1.8019
  143DOPC   C2616950   3.363   2.395  16.125  0.2608 -0.3081  0.3207
  143DOPC   H6R16951   3.355   2.363  16.019  1.0656 -0.5282  0.3211
  143DOPC   H6S16952   3.409   2.306  16.173 -0.5566 -1.6256 -1.2366
  143DOPC   C2716953   3.452   2.515  16.144 -0.0450  0.4304  0.9929
  143DOPC   H7R16954   3.559   2.493  16.126 -0.2233 -0.1334  0.6072
  143DOPC   H7S16955   3.440   2.549  16.249 -0.9212  1.5393  0.5599
  143DOPC   C2816956   3.415   2.636  16.056 -0.0182 -0.7384  0.2850
  143DOPC   H8R16957   3.307   2.664  16.064  0.1814 -0.2802  1.6916
  143DOPC   H8S16958   3.425   2.590  15.955  2.4892 -0.6902  0.4574
  143DOPC   C2916959   3.510   2.753  16.088 -0.6826 -0.1258 -0.5786
  143DOPC   H9R16960   3.512   2.783  16.194  0.8134 -0.0759 -0.5925
  143DOPC  C21016961   3.582   2.818  15.994  0.8517  0.5106  0.0415
  143DOPC  H10R16962   3.652   2.895  16.030  1.8601 -0.3214 -0.1132
  143DOPC  C21116963   3.583   2.793  15.846 -0.4767 -0.1708  0.4999
  143DOPC  H11R16964   3.507   2.857  15.797 -2.4437 -1.6759  1.4439
  143DOPC  H11S16965   3.557   2.689  15.820 -2.9038  0.0415  1.7954
  143DOPC  C21216966   3.727   2.829  15.792  0.7404  0.2918  0.5232
  143DOPC  H12R16967   3.800   2.756  15.832  1.4862 -0.2928 -1.7587
  143DOPC  H12S16968   3.741   2.934  15.826  1.3356  0.2216  0.5034
  143DOPC  C21316969   3.745   2.817  15.639  0.1972  0.4445  0.1451
  143DOPC  H13R16970   3.683   2.737  15.594 -1.7005  0.4243  2.5807
  143DOPC  H13S16971   3.849   2.781  15.624 -0.5803 -1.5576 -0.7061
  143DOPC  C21416972   3.726   2.949  15.567 -0.2398  0.4142  0.2964
  143DOPC  H14R16973   3.796   3.021  15.615 -0.1336  0.1061  0.6117
  143DOPC  H14S16974   3.623   2.989  15.580 -0.4411 -0.1030  0.3288
  143DOPC  C21516975   3.755   2.941  15.412 -0.2048 -0.1668 -0.4251
  143DOPC  H15R16976   3.683   2.864  15.374  0.4569 -0.1158 -1.8596
  143DOPC  H15S16977   3.856   2.896  15.402  0.0727 -0.3604  2.3998
  143DOPC  C21616978   3.766   3.069  15.329 -0.4479  0.1363  0.0069
  143DOPC  H16R16979   3.850   3.123  15.379 -1.2921  2.2639 -0.7690
  143DOPC  H16S16980   3.672   3.128  15.339 -0.6184  0.0932 -1.1601
  143DOPC  C21716981   3.790   3.037  15.183 -0.5171  0.4761 -0.2173
  143DOPC  H17R16982   3.707   2.974  15.145 -0.1646  0.7131 -1.4062
  143DOPC  H17S16983   3.876   2.967  15.176 -2.1688 -1.6896  0.1567
  143DOPC  C21816984   3.814   3.158  15.092  0.1904  0.1284 -0.3279
  143DOPC  H18R16985   3.716   3.200  15.061 -0.0771 -0.1452  0.1458
  143DOPC  H18S16986   3.866   3.129  14.999 -0.5915  0.0641 -0.7512
  143DOPC  H18T16987   3.878   3.236  15.139  0.0022 -0.3294  0.7143
  143DOPC   C3316988   2.873   2.691  16.407 -0.4689  0.0569 -0.5856
  143DOPC   H3X16989   2.854   2.582  16.420 -1.1767  0.1109 -1.0688
  143DOPC   H3Y16990   2.978   2.717  16.430 -0.3370 -0.4230 -0.6250
  143DOPC   C3416991   2.841   2.729  16.261  0.1892  0.1220  0.0804
  143DOPC   H4X16992   2.831   2.839  16.244  0.4263 -0.0166 -1.0774
  143DOPC   H4Y16993   2.742   2.694  16.226 -0.1780  2.3627 -1.4057
  143DOPC   C3516994   2.951   2.694  16.154 -0.2094 -0.6885  0.6433
  143DOPC   H5X16995   2.967   2.584  16.147  0.8948 -0.5421  0.7422
  143DOPC   H5Y16996   3.042   2.743  16.193  0.0680  0.3208 -1.1334
  143DOPC   C3616997   2.932   2.750  16.006 -0.5783 -0.3093  0.4785
  143DOPC   H6X16998   2.835   2.713  15.969 -0.5480 -0.2574  0.3486
  143DOPC   H6Y16999   2.907   2.858  16.003 -1.0010 -0.4305 -1.1155
  143DOPC   C3717000   3.044   2.720  15.914 -0.7100 -0.5861  0.8091
  143DOPC   H7X17001   3.122   2.800  15.912 -1.4864  0.1999 -1.2354
  143DOPC   H7Y17002   3.100   2.630  15.946 -0.5516 -0.0045  2.2351
  143DOPC   C3817003   3.003   2.702  15.769 -0.4706 -0.9176  0.8206
  143DOPC   H8X17004   2.909   2.642  15.774 -1.7698  0.7608 -1.3482
  143DOPC   H8Y17005   3.081   2.648  15.712 -0.9141 -1.6971  0.9431
  143DOPC   C3917006   2.969   2.834  15.703  0.2691 -0.3445 -0.3486
  143DOPC   H9X17007   2.939   2.917  15.768  0.6531  0.7368 -1.5008
  143DOPC  C31017008   3.026   2.877  15.585 -0.8833 -0.6069 -0.1570
  143DOPC  H10X17009   3.033   2.985  15.566 -1.2394 -0.2237  1.6843
  143DOPC  C31117010   3.102   2.790  15.488  0.0145 -0.0344 -0.4223
  143DOPC  H11X17011   3.047   2.785  15.391  0.0229 -1.5887 -0.3735
  143DOPC  H11Y17012   3.106   2.681  15.508 -1.3153 -0.5163 -2.5079
  143DOPC  C31217013   3.235   2.839  15.449 -0.2376 -0.2682 -0.0145
  143DOPC  H12X17014   3.314   2.823  15.526  0.3862  0.1522 -0.5577
  143DOPC  H12Y17015   3.241   2.950  15.447  0.0297 -0.2369 -3.0409
  143DOPC  C31317016   3.306   2.786  15.321  0.5536  0.0965 -0.6306
  143DOPC  H13X17017   3.415   2.787  15.342  0.2642 -2.8805  1.5975
  143DOPC  H13Y17018   3.286   2.677  15.314 -0.8493  0.2255  0.7712
  143DOPC  C31417019   3.268   2.860  15.192  0.9997  0.3622 -0.1861
  143DOPC  H14X17020   3.162   2.848  15.162  1.9780 -0.8570 -3.5266
  143DOPC  H14Y17021   3.295   2.967  15.208 -0.0737  0.6488 -0.2283
  143DOPC  C31517022   3.346   2.790  15.085 -0.4431  0.1334  0.6816
  143DOPC  H15X17023   3.313   2.684  15.076  3.9167 -1.4251  0.4820
  143DOPC  H15Y17024   3.453   2.784  15.118 -0.5779  0.8146  1.2549
  143DOPC  C31617025   3.323   2.850  14.946  0.1172 -0.4838 -0.2659
  143DOPC  H16X17026   3.213   2.862  14.941 -0.0169 -1.1733  0.8016
  143DOPC  H16Y17027   3.363   2.953  14.957 -0.1449 -0.3328 -0.6919
  143DOPC  C31717028   3.391   2.785  14.826 -0.1491  0.4227  0.4575
  143DOPC  H17X17029   3.499   2.808  14.841  0.7299 -1.4743 -2.0826
  143DOPC  H17Y17030   3.362   2.678  14.823 -1.5442  0.7836  0.5116
  143DOPC  C31817031   3.349   2.848  14.690 -0.6237  0.1587  1.1294
  143DOPC  H18X17032   3.381   2.782  14.607 -0.7061  2.5224 -0.9005
  143DOPC  H18Y17033   3.239   2.854  14.678 -0.8218  1.2004  3.0980
  143DOPC  H18Z17034   3.381   2.954  14.680 -1.6087  0.3399 -0.3498
  144DOPC     N17035   2.256   0.417  16.361 -0.2970 -0.2465 -0.5181
  144DOPC   C1217036   2.231   0.545  16.434 -0.0947 -0.6497  0.4115
  144DOPC  H12A17037   2.324   0.581  16.475  0.2158  0.8998 -1.5327
  144DOPC  H12B17038   2.161   0.536  16.516 -0.3290 -0.5323  0.2260
  144DOPC   C1317039   2.129   0.346  16.344 -0.1754 -0.6573  0.2641
  144DOPC  H13A17040   2.075   0.392  16.262  1.6781  0.6648 -0.2773
  144DOPC  H13B17041   2.151   0.241  16.333  0.4205 -0.3719 -1.9876
  144DOPC  H13C17042   2.062   0.347  16.428 -0.7301 -0.3671 -0.1758
  144DOPC   C1417043   2.340   0.325  16.440 -0.0627  0.0191 -0.2181
  144DOPC  H14A17044   2.298   0.291  16.534  2.1011 -1.1359  0.4045
  144DOPC  H14B17045   2.372   0.238  16.385 -0.2142 -1.2000  1.5354
  144DOPC  H14C17046   2.422   0.379  16.484  0.0645 -1.2986  1.2589
  144DOPC   C1517047   2.327   0.436  16.223 -0.0729  0.0265  0.6336
  144DOPC  H15A17048   2.274   0.518  16.177 -1.4950 -0.3174  1.5812
  144DOPC  H15B17049   2.330   0.343  16.169 -1.3920  1.0572 -1.3172
  144DOPC  H15C17050   2.427   0.475  16.227  0.6825 -1.7991  0.5057
  144DOPC   C1117051   2.176   0.656  16.347 -0.1250 -0.0528 -0.1092
  144DOPC  H11A17052   2.252   0.679  16.270  0.3006 -2.7161 -0.5765
  144DOPC  H11B17053   2.082   0.619  16.301  0.3245 -0.8006 -0.4256
  144DOPC     P17054   2.026   0.785  16.510 -0.0835  0.2343 -0.2019
  144DOPC   O1317055   2.011   0.919  16.571 -0.9089  0.1063 -0.4330
  144DOPC   O1417056   2.009   0.664  16.590  0.3982 -0.5415  0.1537
  144DOPC   O1217057   2.159   0.770  16.434  0.2622  0.2024 -0.1854
  144DOPC   O1117058   1.913   0.770  16.404 -0.4618  0.1822  0.1195
  144DOPC    C117059   1.836   0.876  16.352  0.0045 -0.3778  0.6554
  144DOPC    HA17060   1.828   0.966  16.416 -2.6400  1.0523 -1.4639
  144DOPC    HB17061   1.735   0.835  16.333  0.7669 -0.8093 -3.3566
  144DOPC    C217062   1.889   0.916  16.208 -0.0745  0.2807 -0.7438
  144DOPC    HS17063   1.900   0.821  16.151 -0.4213  0.5467 -1.2654
  144DOPC   O2117064   2.017   0.980  16.240  0.7030 -0.2042  0.3396
  144DOPC   C2117065   2.119   0.942  16.168  0.6410  0.0568 -0.1936
  144DOPC   O2217066   2.113   0.861  16.078 -0.4340  0.2207 -0.2421
  144DOPC   C2217067   2.240   1.008  16.236  0.2574 -0.0421  0.1474
  144DOPC   H2R17068   2.273   0.968  16.334  0.8674 -0.0475 -0.0511
  144DOPC   H2S17069   2.206   1.110  16.264 -0.1096 -0.4884  1.3694
  144DOPC    C317070   1.791   1.012  16.143 -0.5104  0.0582 -0.0031
  144DOPC    HX17071   1.781   1.085  16.226 -0.7950  1.3759 -1.1446
  144DOPC    HY17072   1.688   0.971  16.131 -0.4289  0.1691 -1.2073
  144DOPC   O3117073   1.828   1.069  16.012 -0.1124  0.1312 -0.4470
  144DOPC   C3117074   1.812   0.975  15.919  0.1879  0.0190 -0.0848
  144DOPC   O3217075   1.752   0.867  15.933  0.8223  0.2747  0.8443
  144DOPC   C3217076   1.877   1.026  15.794 -0.4272  0.2822 -0.2124
  144DOPC   H2X17077   1.854   0.968  15.702 -2.0028  2.7375 -1.4839
  144DOPC   H2Y17078   1.844   1.131  15.775 -1.2797  0.1485  0.4813
  144DOPC   C2317079   2.371   1.010  16.157 -0.8833 -0.6324 -0.4226
  144DOPC   H3R17080   2.422   0.911  16.155  1.4001  0.4809 -0.2936
  144DOPC   H3S17081   2.424   1.086  16.218  0.3561 -1.4478 -0.4540
  144DOPC   C2417082   2.358   1.060  16.012  0.1068 -0.0754 -0.5680
  144DOPC   H4R17083   2.290   1.146  16.027  0.2854 -0.0561  0.1920
  144DOPC   H4S17084   2.303   0.990  15.945  0.3111  0.5572 -1.4082
  144DOPC   C2517085   2.489   1.093  15.943 -0.5968 -0.4254 -0.0124
  144DOPC   H5R17086   2.535   0.993  15.927  0.2727 -0.1708  0.7779
  144DOPC   H5S17087   2.564   1.154  15.998 -0.9071 -0.7373  0.7657
  144DOPC   C2617088   2.490   1.155  15.802  0.4396 -0.3652 -0.1609
  144DOPC   H6R17089   2.467   1.263  15.807 -1.5413 -0.7478 -0.3763
  144DOPC   H6S17090   2.417   1.098  15.740  0.8459  0.5031 -1.4919
  144DOPC   C2717091   2.627   1.148  15.736 -0.3592 -0.2847 -0.3697
  144DOPC   H7R17092   2.645   1.042  15.712  1.3221 -0.3841  1.0840
  144DOPC   H7S17093   2.708   1.172  15.809  0.2866  1.5719 -1.6105
  144DOPC   C2817094   2.648   1.236  15.617 -0.5596 -0.2033 -0.1623
  144DOPC   H8R17095   2.732   1.201  15.552 -0.7567  1.2058 -1.2133
  144DOPC   H8S17096   2.680   1.337  15.649 -1.4358 -0.1023  0.4321
  144DOPC   C2917097   2.535   1.253  15.526  0.0322 -1.0320 -0.1941
  144DOPC   H9R17098   2.453   1.310  15.571  2.1107  1.9272  0.0727
  144DOPC  C21017099   2.513   1.202  15.396  0.0132 -0.4308 -0.0689
  144DOPC  H10R17100   2.419   1.232  15.348  0.3591 -0.5976 -0.8720
  144DOPC  C21117101   2.613   1.123  15.312  0.4711  0.1806 -0.2046
  144DOPC  H11R17102   2.585   1.016  15.305 -1.7445  0.6420  0.7665
  144DOPC  H11S17103   2.720   1.138  15.337  0.2991  1.5917 -0.2100
  144DOPC  C21217104   2.603   1.199  15.176 -0.2139 -0.5627  0.0872
  144DOPC  H12R17105   2.663   1.292  15.186  0.6646 -0.6503 -3.1986
  144DOPC  H12S17106   2.500   1.227  15.147  0.3757  1.7219  0.0011
  144DOPC  C21317107   2.664   1.111  15.064 -0.4518 -0.9805 -0.5204
  144DOPC  H13R17108   2.627   1.007  15.053  1.3069 -1.6070 -0.9137
  144DOPC  H13S17109   2.770   1.098  15.095  0.0694 -0.5099 -1.9928
  144DOPC  C21417110   2.661   1.169  14.919  0.5671  0.0794  0.3587
  144DOPC  H14R17111   2.701   1.272  14.916  1.4431 -0.2720 -0.4645
  144DOPC  H14S17112   2.554   1.178  14.889  0.4031 -0.7591  0.6609
  144DOPC  C21517113   2.731   1.065  14.828  0.8107  0.3660  0.9710
  144DOPC  H15R17114   2.672   0.971  14.825  0.3149  0.6998 -0.6873
  144DOPC  H15S17115   2.832   1.042  14.869  1.6633  1.1866 -0.5820
  144DOPC  C21617116   2.746   1.111  14.677  1.0741  1.2067 -0.4749
  144DOPC  H16R17117   2.794   1.037  14.609 -2.1034 -0.4604 -1.1068
  144DOPC  H16S17118   2.796   1.209  14.684  0.1874  1.6116  0.4826
  144DOPC  C21717119   2.601   1.121  14.614  0.3875 -0.3663 -0.4299
  144DOPC  H17R17120   2.544   1.196  14.674 -0.4680 -0.8703 -0.6004
  144DOPC  H17S17121   2.552   1.022  14.624 -0.6388  0.0037 -1.4382
  144DOPC  C21817122   2.589   1.163  14.470  0.7412  0.2850  0.0806
  144DOPC  H18R17123   2.651   1.254  14.458 -0.2335  0.7970 -1.3773
  144DOPC  H18S17124   2.484   1.179  14.437 -0.0045  0.7773  2.5510
  144DOPC  H18T17125   2.632   1.079  14.411 -1.0486  1.3208 -2.9765
  144DOPC   C3317126   2.032   1.011  15.799 -0.2367  0.2858  0.0109
  144DOPC   H3X17127   2.054   0.903  15.798 -1.7111 -0.0620 -1.6357
  144DOPC   H3Y17128   2.074   1.056  15.891  2.2630 -2.3508  0.2671
  144DOPC   C3417129   2.107   1.077  15.674  0.7314 -0.1850  0.1164
  144DOPC   H4X17130   2.218   1.074  15.676  0.8104  1.4876 -0.2907
  144DOPC   H4Y17131   2.073   1.182  15.660 -0.9953 -0.9739 -2.3997
  144DOPC   C3517132   2.052   1.011  15.542  1.5381  0.5043  0.5419
  144DOPC   H5X17133   1.946   1.045  15.538  0.9297 -1.3872 -2.7183
  144DOPC   H5Y17134   2.041   0.901  15.541 -0.3782  0.6651 -0.0141
  144DOPC   C3617135   2.128   1.060  15.420  0.4372 -0.6439  0.0384
  144DOPC   H6X17136   2.121   1.171  15.415 -2.0519 -0.7199  0.2500
  144DOPC   H6Y17137   2.236   1.037  15.413  0.5434  0.0131 -0.5325
  144DOPC   C3717138   2.065   1.002  15.291  0.5271 -0.2171 -0.0035
  144DOPC   H7X17139   2.101   0.897  15.300 -0.5212 -0.5416  0.6287
  144DOPC   H7Y17140   1.955   0.987  15.288  0.7286 -2.2173  0.9469
  144DOPC   C3817141   2.119   1.062  15.165  0.1633 -0.7669  0.3495
  144DOPC   H8X17142   2.107   1.171  15.176  1.7477 -0.4741 -0.4826
  144DOPC   H8Y17143   2.053   1.044  15.078 -0.6916  1.5019  0.4709
  144DOPC   C3917144   2.265   1.035  15.134 -0.1778  0.4228  0.0959
  144DOPC   H9X17145   2.338   1.088  15.197  1.3195 -0.5343 -0.7745
  144DOPC  C31017146   2.307   0.983  15.015  0.2462 -0.1697 -0.3349
  144DOPC  H10X17147   2.414   0.959  15.000 -0.2313 -2.7950 -0.0722
  144DOPC  C31117148   2.218   0.929  14.908 -0.1895 -0.1333 -0.0590
  144DOPC  H11X17149   2.170   1.015  14.857  0.1467  0.4075  0.5091
  144DOPC  H11Y17150   2.145   0.853  14.943  0.4969 -1.2963 -1.0722
  144DOPC  C31217151   2.305   0.862  14.807  0.4543 -0.3268 -0.1402
  144DOPC  H12X17152   2.361   0.779  14.856 -1.4873 -1.1966  0.6848
  144DOPC  H12Y17153   2.379   0.941  14.778  1.1700 -0.2377  1.8002
  144DOPC  C31317154   2.225   0.800  14.682 -0.3643  0.3107  0.1997
  144DOPC  H13X17155   2.296   0.753  14.611 -0.4419  2.1600 -1.1695
  144DOPC  H13Y17156   2.146   0.734  14.724 -0.2571  0.5994  0.8677
  144DOPC  C31417157   2.171   0.919  14.598  0.0868  0.3031 -0.3781
  144DOPC  H14X17158   2.115   0.987  14.665 -1.4426 -0.1773 -1.1065
  144DOPC  H14Y17159   2.257   0.981  14.564 -0.1716  0.5256 -0.6377
  144DOPC  C31517160   2.092   0.874  14.475 -0.5817 -0.5543  0.0669
  144DOPC  H15X17161   2.001   0.820  14.507 -0.8866 -0.7483 -1.0722
  144DOPC  H15Y17162   2.150   0.806  14.409  1.5847 -0.2739  1.5971
  144DOPC  C31617163   2.044   1.001  14.400  0.4147 -0.2187 -0.3646
  144DOPC  H16X17164   1.988   1.070  14.466  1.1121  0.0019  0.0121
  144DOPC  H16Y17165   2.131   1.058  14.361  2.7623 -1.0931  3.0924
  144DOPC  C31717166   1.950   0.972  14.283 -0.0343  0.6798  0.1530
  144DOPC  H17X17167   1.875   0.900  14.322 -0.0247  1.7230  2.2004
  144DOPC  H17Y17168   1.901   1.068  14.257 -1.3112 -0.0278 -0.1594
  144DOPC  C31817169   2.021   0.902  14.167 -0.7023  0.0382  0.1699
  144DOPC  H18X17170   2.098   0.833  14.207  0.3342  3.3087  4.5680
  144DOPC  H18Y17171   1.951   0.847  14.100 -1.7421 -0.3002  1.5042
  144DOPC  H18Z17172   2.077   0.974  14.103  0.7567 -0.1591  1.1751
  145DOPC     N17173   2.484   5.542  17.343 -0.0670  0.0108 -0.6404
  145DOPC   C1217174   2.398   5.558  17.227  0.4022  0.0538  0.5136
  145DOPC  H12A17175   2.406   5.658  17.190  0.7696 -0.2586 -0.2674
  145DOPC  H12B17176   2.294   5.536  17.249  0.4295 -2.3581 -1.3399
  145DOPC   C1317177   2.629   5.583  17.321 -0.2033 -0.7658  0.0741
  145DOPC  H13A17178   2.679   5.554  17.412  0.4081  1.5236  0.5310
  145DOPC  H13B17179   2.666   5.525  17.238 -0.5809 -3.4141  1.6150
  145DOPC  H13C17180   2.634   5.689  17.302  0.1159 -0.4162  1.8850
  145DOPC   C1417181   2.483   5.405  17.398  0.7039  0.1371  0.2036
  145DOPC  H14A17182   2.382   5.367  17.406  0.5847  0.4763  0.3073
  145DOPC  H14B17183   2.537   5.345  17.326  1.9003  0.8368  0.5010
  145DOPC  H14C17184   2.528   5.402  17.496  0.5846  3.7747  0.4963
  145DOPC   C1517185   2.426   5.623  17.455  0.5746  0.3462  0.0514
  145DOPC  H15A17186   2.478   5.617  17.550  1.4679  0.0543 -0.4489
  145DOPC  H15B17187   2.322   5.596  17.466  0.5703  0.5424  0.5190
  145DOPC  H15C17188   2.440   5.726  17.425  2.5255  0.3861  0.8954
  145DOPC   C1117189   2.437   5.481  17.094  0.4305  0.2698 -0.2905
  145DOPC  H11A17190   2.373   5.520  17.013 -2.2105  0.7983  1.9021
  145DOPC  H11B17191   2.542   5.510  17.074  0.3710  1.5728  1.0984
  145DOPC     P17192   2.272   5.273  17.089 -0.0955 -0.4245 -0.0446
  145DOPC   O1317193   2.183   5.325  17.193 -0.1970  0.3787  0.1558
  145DOPC   O1417194   2.293   5.129  17.076  0.5555 -0.0412  0.4080
  145DOPC   O1217195   2.418   5.341  17.113  0.3854  0.5105  0.3821
  145DOPC   O1117196   2.226   5.347  16.951  0.1152  0.1002 -0.3478
  145DOPC    C117197   2.136   5.285  16.863 -0.0703 -0.2229 -0.6650
  145DOPC    HA17198   2.032   5.320  16.884 -0.0690 -1.2431  1.2799
  145DOPC    HB17199   2.121   5.179  16.891 -0.7722  0.6337  2.7014
  145DOPC    C217200   2.174   5.309  16.721 -0.4397  1.2055  0.9710
  145DOPC    HS17201   2.095   5.252  16.667  1.7073 -0.8814 -0.1793
  145DOPC   O2117202   2.301   5.248  16.686  0.8306  0.2219 -0.6324
  145DOPC   C2117203   2.321   5.122  16.700 -0.1614  0.1197  0.3282
  145DOPC   O2217204   2.257   5.034  16.754  0.2860  0.2845  0.5031
  145DOPC   C2217205   2.452   5.103  16.627  0.2751  0.3946 -0.2946
  145DOPC   H2R17206   2.530   5.138  16.699 -0.5706 -0.2390  0.9715
  145DOPC   H2S17207   2.451   5.169  16.538 -0.9439 -0.1705 -0.7074
  145DOPC    C317208   2.179   5.457  16.675 -0.3579  0.1413  0.7942
  145DOPC    HX17209   2.265   5.512  16.719 -0.6468  2.0639 -0.8682
  145DOPC    HY17210   2.083   5.493  16.718 -1.5081 -1.2636 -0.4935
  145DOPC   O3117211   2.181   5.485  16.529  0.1185  0.3112  0.0515
  145DOPC   C3117212   2.171   5.612  16.502  0.3145  0.0925 -0.1677
  145DOPC   O3217213   2.151   5.702  16.583 -0.2401  0.4174 -0.3675
  145DOPC   C3217214   2.206   5.627  16.358 -0.1459 -0.6636  1.1551
  145DOPC   H2X17215   2.297   5.566  16.343 -0.8214 -1.0363 -2.2450
  145DOPC   H2Y17216   2.118   5.603  16.295  0.7489  0.7974 -0.7585
  145DOPC   C2317217   2.485   4.954  16.592  0.4285 -0.7922  0.2746
  145DOPC   H3R17218   2.406   4.923  16.521 -1.0606 -0.2845  1.6523
  145DOPC   H3S17219   2.484   4.896  16.687 -0.8873  0.0417  0.8087
  145DOPC   C2417220   2.625   4.943  16.530 -0.0824 -0.0633 -0.6176
  145DOPC   H4R17221   2.699   4.970  16.609 -0.1398 -0.1759 -0.5256
  145DOPC   H4S17222   2.631   5.021  16.450  0.2929 -1.5825 -2.1311
  145DOPC   C2517223   2.650   4.809  16.459  0.1307  0.2334 -0.1633
  145DOPC   H5R17224   2.553   4.767  16.424  0.5604  0.1631 -1.3283
  145DOPC   H5S17225   2.684   4.730  16.530  2.0235  1.9196  0.8979
  145DOPC   C2617226   2.742   4.824  16.339  0.0253  0.4183 -0.4791
  145DOPC   H6R17227   2.840   4.791  16.380 -0.4038 -0.1510  0.1105
  145DOPC   H6S17228   2.750   4.930  16.309 -0.8800  0.4432 -0.6668
  145DOPC   C2717229   2.711   4.731  16.221 -0.3099  0.7394 -0.1668
  145DOPC   H7R17230   2.603   4.736  16.197  0.1786 -1.6786 -3.4380
  145DOPC   H7S17231   2.743   4.627  16.244 -0.4206  0.4273 -1.3873
  145DOPC   C2817232   2.783   4.791  16.101  0.3414  0.1887 -0.3381
  145DOPC   H8R17233   2.891   4.798  16.129  0.5596  0.2640 -1.1705
  145DOPC   H8S17234   2.752   4.897  16.085  0.9006  0.3810 -0.1777
  145DOPC   C2917235   2.746   4.696  15.987  0.3040 -0.3964  0.6177
  145DOPC   H9R17236   2.636   4.696  15.973  0.0714  2.6632  1.7508
  145DOPC  C21017237   2.829   4.632  15.907  0.1511  0.2897  0.4689
  145DOPC  H10R17238   2.789   4.559  15.835 -1.2710  0.3808  1.1239
  145DOPC  C21117239   2.976   4.643  15.908 -0.0753  0.1185 -0.0116
  145DOPC  H11R17240   3.008   4.549  15.959 -1.4347 -0.6913 -0.5890
  145DOPC  H11S17241   3.013   4.726  15.971 -2.3112  0.6371  0.7299
  145DOPC  C21217242   3.052   4.632  15.769 -0.1975  0.9467 -0.3429
  145DOPC  H12R17243   3.040   4.532  15.723  1.8236 -0.0615  1.1557
  145DOPC  H12S17244   3.157   4.615  15.800 -1.2466 -3.4633  1.6213
  145DOPC  C21317245   3.029   4.745  15.668  0.3634  0.1220  0.6523
  145DOPC  H13R17246   3.083   4.838  15.696 -0.2051  0.7680 -0.3585
  145DOPC  H13S17247   2.921   4.771  15.668  0.5090  0.7457 -0.2132
  145DOPC  C21417248   3.073   4.721  15.522 -0.2709 -0.2536 -0.0541
  145DOPC  H14R17249   3.182   4.702  15.514 -0.2738  0.5086 -3.2686
  145DOPC  H14S17250   3.050   4.807  15.455  3.6488 -0.0264 -1.3593
  145DOPC  C21517251   3.010   4.599  15.457  0.4971  0.7780  0.1137
  145DOPC  H15R17252   2.901   4.615  15.456 -0.0125 -1.7045  2.4894
  145DOPC  H15S17253   3.028   4.506  15.516 -0.1741  1.2077  1.0135
  145DOPC  C21617254   3.046   4.586  15.306 -0.0773 -0.7058 -0.4304
  145DOPC  H16R17255   3.021   4.483  15.272  1.1197 -0.8220 -1.0368
  145DOPC  H16S17256   3.154   4.595  15.281  0.3394 -0.6556  1.2626
  145DOPC  C21717257   2.960   4.677  15.217 -0.1891  0.4617  0.3505
  145DOPC  H17R17258   3.007   4.777  15.206  1.4945 -0.2575  0.5352
  145DOPC  H17S17259   2.857   4.688  15.255 -1.0392 -0.2796 -1.5841
  145DOPC  C21817260   2.947   4.620  15.073  0.0224 -0.4742  0.0841
  145DOPC  H18R17261   2.877   4.687  15.018  0.7378  1.8105  1.7752
  145DOPC  H18S17262   2.894   4.524  15.088  0.1151 -0.6394 -0.5903
  145DOPC  H18T17263   3.042   4.609  15.016 -0.0582 -0.4336 -0.0592
  145DOPC   C3317264   2.235   5.769  16.314 -0.3692 -0.4293 -0.8215
  145DOPC   H3X17265   2.336   5.801  16.347 -0.4770  1.6226 -2.2751
  145DOPC   H3Y17266   2.159   5.841  16.354  0.8042  0.8450 -0.8113
  145DOPC   C3417267   2.234   5.777  16.159 -0.2115 -0.1708  0.5482
  145DOPC   H4X17268   2.249   5.881  16.123  0.4330 -0.8716 -1.3078
  145DOPC   H4Y17269   2.134   5.755  16.117 -0.7030  1.0988  0.9946
  145DOPC   C3517270   2.343   5.690  16.094  0.2597 -0.4368  0.2804
  145DOPC   H5X17271   2.317   5.582  16.094  1.6018 -0.7812 -0.1177
  145DOPC   H5Y17272   2.437   5.698  16.154 -0.7718 -0.1856  1.9184
  145DOPC   C3617273   2.364   5.735  15.945  0.4670 -0.0568 -0.0402
  145DOPC   H6X17274   2.400   5.839  15.961 -2.2076  0.7865  1.1589
  145DOPC   H6Y17275   2.446   5.669  15.911  3.7484  2.0916  2.9591
  145DOPC   C3717276   2.244   5.722  15.846  0.1714 -0.0511 -0.9204
  145DOPC   H7X17277   2.211   5.616  15.844 -0.4949  0.0874  1.0611
  145DOPC   H7Y17278   2.153   5.775  15.880 -1.0554 -1.4985 -1.8308
  145DOPC   C3817279   2.262   5.772  15.704  0.5551 -0.7378 -0.2723
  145DOPC   H8X17280   2.364   5.744  15.671  1.4848  1.5242  0.5084
  145DOPC   H8Y17281   2.260   5.883  15.712 -0.9280 -0.8569  2.0490
  145DOPC   C3917282   2.150   5.737  15.603 -0.0342  0.7257  0.0501
  145DOPC   H9X17283   2.066   5.680  15.647  0.2485  0.0979 -0.2065
  145DOPC  C31017284   2.138   5.772  15.474  0.0897 -0.1297 -0.0933
  145DOPC  H10X17285   2.053   5.730  15.419 -0.1753  0.1868  0.0746
  145DOPC  C31117286   2.248   5.851  15.404  0.7125 -0.6704 -0.5084
  145DOPC  H11X17287   2.347   5.828  15.451  0.7551  1.0006  0.2744
  145DOPC  H11Y17288   2.221   5.956  15.428 -0.7805 -1.1824  0.1840
  145DOPC  C31217289   2.256   5.829  15.256 -0.5898  0.0981 -0.6573
  145DOPC  H12X17290   2.330   5.902  15.214 -1.1896  0.0529 -1.8406
  145DOPC  H12Y17291   2.163   5.855  15.201  0.3264 -1.7712 -3.3081
  145DOPC  C31317292   2.297   5.686  15.211  0.4918 -0.0288  0.4168
  145DOPC  H13X17293   2.388   5.661  15.269  2.9254  1.0960 -2.6033
  145DOPC  H13Y17294   2.223   5.611  15.246  0.9693 -0.9150 -0.4030
  145DOPC  C31417295   2.328   5.669  15.058 -0.2894  0.1807  0.4670
  145DOPC  H14X17296   2.333   5.560  15.036 -0.6477  0.3762 -0.6558
  145DOPC  H14Y17297   2.239   5.708  15.004 -0.7701  0.3268  1.3519
  145DOPC  C31517298   2.452   5.741  15.011  0.4207  0.3498  1.2082
  145DOPC  H15X17299   2.549   5.711  15.056  1.6263 -0.7379 -1.8507
  145DOPC  H15Y17300   2.444   5.850  15.026 -2.1699  0.2059  1.4706
  145DOPC  C31617301   2.481   5.717  14.857 -0.5828 -0.3525 -0.1293
  145DOPC  H16X17302   2.577   5.767  14.831 -0.7657  0.3899  0.5867
  145DOPC  H16Y17303   2.486   5.611  14.827 -2.1271 -0.2146 -0.9850
  145DOPC  C31717304   2.386   5.791  14.761 -0.4753  0.1614 -0.2950
  145DOPC  H17X17305   2.295   5.727  14.767 -0.4220  0.1542  0.5602
  145DOPC  H17Y17306   2.357   5.883  14.815  0.4449 -0.3463  1.1250
  145DOPC  C31817307   2.423   5.800  14.607 -0.0786 -0.0069 -1.0348
  145DOPC  H18X17308   2.378   5.889  14.558 -1.0051 -1.0950 -2.2496
  145DOPC  H18Y17309   2.534   5.803  14.599  0.4937 -2.0407  3.1347
  145DOPC  H18Z17310   2.402   5.701  14.561 -0.0324 -0.1245 -0.8075
  146DOPC     N17311   4.977   3.829  17.183  0.0293  0.4280 -0.2905
  146DOPC   C1217312   4.857   3.841  17.087  0.7022 -0.2828  0.5210
  146DOPC  H12A17313   4.808   3.936  17.097 -2.6057 -1.7133 -0.7458
  146DOPC  H12B17314   4.776   3.778  17.122 -0.3558  0.0756 -1.1603
  146DOPC   C1317315   5.097   3.909  17.128 -0.2595  0.3027 -0.8759
  146DOPC  H13A17316   5.119   3.882  17.025 -0.7674  1.6779 -1.3707
  146DOPC  H13B17317   5.076   4.014  17.142 -0.4274  0.6389 -3.2347
  146DOPC  H13C17318   5.183   3.884  17.187 -1.0340 -1.2336 -0.3373
  146DOPC   C1417319   5.015   3.688  17.193 -0.4892 -0.3364  0.3006
  146DOPC  H14A17320   5.042   3.641  17.100 -3.0515  0.1300 -0.7709
  146DOPC  H14B17321   5.099   3.673  17.260  1.2277  1.9861 -1.1919
  146DOPC  H14C17322   4.939   3.632  17.246 -0.2741  0.3290  1.3522
  146DOPC   C1517323   4.928   3.889  17.314  0.2132  0.1744  0.4461
  146DOPC  H15A17324   5.007   3.899  17.387 -0.6713  0.3819  1.3817
  146DOPC  H15B17325   4.836   3.846  17.348  0.9763 -1.9742 -0.0651
  146DOPC  H15C17326   4.905   3.994  17.302  0.5327  0.1801 -0.2069
  146DOPC   C1117327   4.885   3.814  16.930  0.7906 -0.0754 -0.2000
  146DOPC  H11A17328   4.798   3.840  16.866  1.2419  0.0815 -0.7550
  146DOPC  H11B17329   4.964   3.888  16.906  3.4632 -1.8774  2.4294
  146DOPC     P17330   4.859   3.553  16.897  0.6612 -0.0795  0.1743
  146DOPC   O1317331   4.776   3.541  17.019 -0.0791 -0.1835 -0.0184
  146DOPC   O1417332   4.958   3.446  16.875  0.8932  0.3652 -0.0759
  146DOPC   O1217333   4.933   3.682  16.901 -0.1023 -0.2265 -0.8104
  146DOPC   O1117334   4.764   3.572  16.772  0.2306 -0.2041 -0.6621
  146DOPC    C117335   4.821   3.552  16.636  0.0633  0.2415  0.2385
  146DOPC    HA17336   4.847   3.448  16.610  0.1684  0.0423  1.1073
  146DOPC    HB17337   4.912   3.616  16.627  0.7964 -0.9129 -0.8776
  146DOPC    C217338   4.735   3.608  16.516 -1.2295  0.3378  0.4274
  146DOPC    HS17339   4.712   3.717  16.524  0.5858  0.8079 -0.3636
  146DOPC   O2117340   4.621   3.520  16.505 -0.6243 -0.6405 -0.3896
  146DOPC   C2117341   4.510   3.576  16.452  0.8431 -0.1740  0.0394
  146DOPC   O2217342   4.496   3.694  16.418 -0.4984  0.0924 -0.5102
  146DOPC   C2217343   4.408   3.459  16.425  0.0415  0.9455  0.2067
  146DOPC   H2R17344   4.356   3.439  16.521  0.1165  2.4001  0.5624
  146DOPC   H2S17345   4.463   3.368  16.393 -1.1882 -1.0343  3.2594
  146DOPC    C317346   4.823   3.594  16.384 -0.5128 -0.7879  0.3135
  146DOPC    HX17347   4.860   3.489  16.380  0.2349 -0.5043 -0.5611
  146DOPC    HY17348   4.915   3.654  16.398 -3.1354  3.1718  2.3875
  146DOPC   O3117349   4.764   3.653  16.266  0.0942 -0.2698 -0.0973
  146DOPC   C3117350   4.694   3.564  16.204 -0.2086 -0.6077  0.4420
  146DOPC   O3217351   4.700   3.443  16.211 -0.3977 -0.1682  0.4160
  146DOPC   C3217352   4.606   3.639  16.105 -0.2619 -0.1024  0.4753
  146DOPC   H2X17353   4.509   3.666  16.152 -0.1322  0.1304  0.6154
  146DOPC   H2Y17354   4.651   3.739  16.085 -0.6891  0.5238  2.3664
  146DOPC   C2317355   4.295   3.490  16.320 -0.0526 -0.2650 -0.1994
  146DOPC   H3R17356   4.339   3.530  16.226  1.5803 -0.2216  0.5491
  146DOPC   H3S17357   4.231   3.574  16.357  1.3533  1.3127 -1.1966
  146DOPC   C2417358   4.208   3.365  16.290 -0.0696 -0.0075  0.6448
  146DOPC   H4R17359   4.160   3.324  16.381 -0.4173 -1.3746 -0.1386
  146DOPC   H4S17360   4.268   3.279  16.252 -0.3399  0.3904 -0.7344
  146DOPC   C2517361   4.098   3.390  16.187 -0.3733 -0.1401 -0.2241
  146DOPC   H5R17362   4.034   3.474  16.221  1.1298  0.7009  0.6652
  146DOPC   H5S17363   4.038   3.299  16.169 -0.3291 -0.0127 -1.0974
  146DOPC   C2617364   4.157   3.446  16.051 -0.3885  0.0003 -0.0128
  146DOPC   H6R17365   4.261   3.407  16.037  0.5405  1.3917  2.3989
  146DOPC   H6S17366   4.173   3.556  16.053  2.3496 -0.2661 -1.7237
  146DOPC   C2717367   4.062   3.414  15.935 -0.0002  0.0420  0.1764
  146DOPC   H7R17368   4.075   3.480  15.846 -0.1703  0.8507  0.7330
  146DOPC   H7S17369   3.958   3.431  15.971 -1.1783 -1.9844 -2.0319
  146DOPC   C2817370   4.074   3.270  15.887 -0.4746  0.0438 -0.1231
  146DOPC   H8R17371   4.048   3.198  15.968 -2.2882 -1.3079 -1.8199
  146DOPC   H8S17372   4.181   3.254  15.862 -1.0972 -1.0400 -2.3292
  146DOPC   C2917373   3.985   3.249  15.766  0.0899 -0.5004  0.1523
  146DOPC   H9R17374   3.881   3.220  15.790 -0.7653  0.2441 -2.3742
  146DOPC  C21017375   4.018   3.261  15.634 -0.0670 -0.1041  0.0606
  146DOPC  H10R17376   3.944   3.231  15.559 -0.8361 -0.1887  0.8294
  146DOPC  C21117377   4.152   3.287  15.575 -0.7785  0.5525  0.1702
  146DOPC  H11R17378   4.187   3.189  15.537 -0.2775  1.1250 -0.8772
  146DOPC  H11S17379   4.223   3.310  15.658  0.5055  1.8621 -1.2474
  146DOPC  C21217380   4.171   3.403  15.473 -0.4472  0.4335  0.3963
  146DOPC  H12R17381   4.281   3.403  15.455 -0.5349 -2.1081 -0.5540
  146DOPC  H12S17382   4.138   3.500  15.516 -0.3106  0.7727 -0.2598
  146DOPC  C21317383   4.090   3.392  15.344 -0.3131  0.1314  0.8977
  146DOPC  H13R17384   3.984   3.423  15.360 -0.0933  1.7521 -0.5874
  146DOPC  H13S17385   4.078   3.285  15.315 -0.0894  0.7794 -1.8618
  146DOPC  C21417386   4.163   3.475  15.231 -0.2780 -0.2634  0.5875
  146DOPC  H14R17387   4.272   3.453  15.239  0.3544  2.8725  2.4027
  146DOPC  H14S17388   4.159   3.578  15.273 -0.6691 -0.1477  0.2675
  146DOPC  C21517389   4.092   3.463  15.089 -0.1432  0.6409 -0.6412
  146DOPC  H15R17390   3.984   3.481  15.106  0.1244  0.6414  1.3270
  146DOPC  H15S17391   4.102   3.361  15.046 -3.6798  0.3911 -1.1778
  146DOPC  C21617392   4.145   3.564  14.983  0.6629 -0.2017  0.3755
  146DOPC  H16R17393   4.247   3.600  15.005  1.0692 -0.2098 -1.3593
  146DOPC  H16S17394   4.081   3.654  14.971  0.2118 -0.4123  1.1628
  146DOPC  C21717395   4.144   3.499  14.843  0.6615  0.2717 -0.1429
  146DOPC  H17R17396   4.051   3.513  14.783  0.6838  1.0660  0.0000
  146DOPC  H17S17397   4.168   3.391  14.839  2.0901  0.5063  1.4542
  146DOPC  C21817398   4.262   3.550  14.757  0.1889 -0.1328  0.8817
  146DOPC  H18R17399   4.280   3.491  14.665 -0.9038 -0.2487  0.7305
  146DOPC  H18S17400   4.357   3.537  14.813 -0.1439  0.1359  1.5189
  146DOPC  H18T17401   4.247   3.654  14.723 -0.4047 -1.0304 -1.7973
  146DOPC   C3317402   4.575   3.575  15.962 -0.5706 -0.2654  0.1600
  146DOPC   H3X17403   4.523   3.481  15.988 -2.3618  1.3452  2.8436
  146DOPC   H3Y17404   4.663   3.553  15.897 -0.6183  0.5439 -0.1982
  146DOPC   C3417405   4.472   3.657  15.878  0.3133 -0.1797 -0.2579
  146DOPC   H4X17406   4.504   3.757  15.844 -0.0120 -1.0058 -3.2953
  146DOPC   H4Y17407   4.384   3.664  15.946  0.3623 -1.4888 -0.0182
  146DOPC   C3517408   4.433   3.589  15.749  0.0038  0.7327  0.4678
  146DOPC   H5X17409   4.326   3.614  15.733 -0.8070 -2.3984  0.3677
  146DOPC   H5Y17410   4.430   3.479  15.766  0.7681  0.9904  2.6465
  146DOPC   C3617411   4.517   3.620  15.631 -0.0390  1.1231 -0.1969
  146DOPC   H6X17412   4.625   3.616  15.657  0.0975  0.4955 -0.8171
  146DOPC   H6Y17413   4.486   3.534  15.568  0.8199 -0.3638  1.3200
  146DOPC   C3717414   4.490   3.756  15.569 -0.0734  0.6996  0.4057
  146DOPC   H7X17415   4.384   3.773  15.539 -0.1743  2.2537  1.5356
  146DOPC   H7Y17416   4.513   3.830  15.649  0.4259 -0.6804  1.5765
  146DOPC   C3817417   4.572   3.793  15.442  0.2731 -1.2123 -0.2638
  146DOPC   H8X17418   4.676   3.760  15.465 -0.0360 -3.6370 -1.9030
  146DOPC   H8Y17419   4.572   3.903  15.429  1.5597 -1.1163  0.4078
  146DOPC   C3917420   4.523   3.733  15.313 -0.0452  0.8681 -0.3988
  146DOPC   H9X17421   4.415   3.716  15.297  0.4771 -3.4320 -0.5264
  146DOPC  C31017422   4.597   3.701  15.203  0.0214 -0.2624  0.8884
  146DOPC  H10X17423   4.534   3.659  15.124 -0.3791  0.1266  0.9950
  146DOPC  C31117424   4.744   3.711  15.196 -1.0899  0.7442 -0.2472
  146DOPC  H11X17425   4.784   3.611  15.168 -0.4258  1.4595 -2.0535
  146DOPC  H11Y17426   4.790   3.755  15.287 -0.8606  3.7436 -1.6695
  146DOPC  C31217427   4.791   3.799  15.085 -0.1166  0.2635 -0.4474
  146DOPC  H12X17428   4.743   3.773  14.988 -0.1269 -2.0525  0.1233
  146DOPC  H12Y17429   4.902   3.790  15.073  0.2222  2.9743  0.0693
  146DOPC  C31317430   4.775   3.945  15.117 -0.0394 -0.1338 -0.4889
  146DOPC  H13X17431   4.672   3.972  15.148  0.0403 -1.3983  1.0125
  146DOPC  H13Y17432   4.829   3.978  15.208  0.6815 -1.1367 -0.5287
  146DOPC  C31417433   4.816   4.033  15.000 -0.1819  0.6813  0.0961
  146DOPC  H14X17434   4.890   4.106  15.040  0.7841  0.7280 -1.6644
  146DOPC  H14Y17435   4.870   3.968  14.928 -1.9277 -0.9601  0.1809
  146DOPC  C31517436   4.705   4.115  14.929  0.0020 -0.3586 -0.0199
  146DOPC  H15X17437   4.748   4.174  14.846 -0.3562  1.6059  1.1322
  146DOPC  H15Y17438   4.661   4.188  15.000  1.2822  1.1667 -0.7313
  146DOPC  C31617439   4.586   4.032  14.877 -0.4897  0.5024 -0.3342
  146DOPC  H16X17440   4.532   3.982  14.960 -0.0889  0.7833  0.0999
  146DOPC  H16Y17441   4.516   4.112  14.842  0.8546  1.1965 -1.5473
  146DOPC  C31717442   4.626   3.942  14.760  0.4037  0.0779  0.2803
  146DOPC  H17X17443   4.695   4.000  14.694 -0.1527 -2.4312 -2.7688
  146DOPC  H17Y17444   4.670   3.848  14.801  1.0265  0.4656  0.5035
  146DOPC  C31817445   4.510   3.909  14.667  0.9480 -0.3665  0.0195
  146DOPC  H18X17446   4.428   3.884  14.738  1.2322  0.1834  0.5431
  146DOPC  H18Y17447   4.477   3.997  14.608 -1.7523 -1.7164 -0.6733
  146DOPC  H18Z17448   4.541   3.822  14.605  3.1486 -1.3668  2.3283
  147DOPC     N17449   2.479   1.001  17.098 -0.3130  0.1388 -0.6203
  147DOPC   C1217450   2.618   1.018  17.061 -0.3913  0.3402  0.5152
  147DOPC  H12A17451   2.646   0.924  17.017 -0.2503  1.1964 -1.3231
  147DOPC  H12B17452   2.681   1.026  17.148  1.3644 -1.0873 -0.5756
  147DOPC   C1317453   2.455   0.896  17.204 -0.3143  0.2805 -0.3856
  147DOPC  H13A17454   2.352   0.872  17.221 -0.3310  1.2549  1.0695
  147DOPC  H13B17455   2.498   0.797  17.190 -2.5048 -0.8626  0.4928
  147DOPC  H13C17456   2.498   0.933  17.297  1.6731 -4.0093  0.6600
  147DOPC   C1417457   2.382   0.979  16.985 -0.5728  0.2054 -0.0991
  147DOPC  H14A17458   2.402   0.882  16.942  0.1351 -0.3449  1.3948
  147DOPC  H14B17459   2.279   0.975  17.019 -0.0446 -1.8005  1.4759
  147DOPC  H14C17460   2.386   1.055  16.909 -0.0930 -1.2590 -1.5774
  147DOPC   C1517461   2.446   1.132  17.178  0.1773  0.6232 -0.1723
  147DOPC  H15A17462   2.494   1.135  17.275 -0.5005 -1.6818  0.2910
  147DOPC  H15B17463   2.343   1.142  17.207  0.9202 -1.1186  3.8032
  147DOPC  H15C17464   2.469   1.215  17.112 -1.7364 -1.3072 -3.5708
  147DOPC   C1117465   2.659   1.131  16.960  0.3800  0.0228 -0.1883
  147DOPC  H11A17466   2.753   1.116  16.903  0.5537  1.3721 -0.2848
  147DOPC  H11B17467   2.577   1.132  16.884 -2.1746  1.4598  2.3852
  147DOPC     P17468   2.770   1.335  17.071  0.2068 -0.2077 -0.4749
  147DOPC   O1317469   2.860   1.230  17.132  0.3732 -0.7247  0.1134
  147DOPC   O1417470   2.709   1.435  17.164 -0.4757 -0.5250  0.3121
  147DOPC   O1217471   2.647   1.266  17.005  0.0330  0.2221 -0.2837
  147DOPC   O1117472   2.840   1.415  16.949 -0.4782 -0.2654 -0.1182
  147DOPC    C117473   2.780   1.531  16.893 -0.2083 -0.2874  0.4646
  147DOPC    HA17474   2.821   1.617  16.949 -0.8288 -0.8130  1.7594
  147DOPC    HB17475   2.669   1.536  16.896 -0.1631  0.7757  0.4517
  147DOPC    C217476   2.821   1.553  16.740 -0.6536 -0.3723  0.2240
  147DOPC    HS17477   2.735   1.524  16.675 -1.1012 -0.0570  0.6674
  147DOPC   O2117478   2.944   1.490  16.703  0.0752  0.2184  0.3820
  147DOPC   C2117479   2.926   1.371  16.669  0.2293  0.2757  0.1882
  147DOPC   O2217480   2.822   1.307  16.684  0.6083 -0.0754 -0.7011
  147DOPC   C2217481   3.057   1.321  16.596 -0.1221 -0.4324  0.2970
  147DOPC   H2R17482   3.041   1.211  16.599  1.7511 -0.7373  3.2769
  147DOPC   H2S17483   3.142   1.338  16.665  0.8006  1.7300 -1.2350
  147DOPC    C317484   2.837   1.709  16.727  0.4721  0.2127  0.6077
  147DOPC    HX17485   2.933   1.734  16.778  1.0958 -0.5889 -0.1480
  147DOPC    HY17486   2.757   1.761  16.785 -0.9922 -0.8163 -0.4186
  147DOPC   O3117487   2.835   1.747  16.589  0.1214  0.5927 -0.2215
  147DOPC   C3117488   2.945   1.771  16.528  0.6085 -0.2039  0.1645
  147DOPC   O3217489   3.056   1.786  16.580  0.4084 -0.0469  0.2654
  147DOPC   C3217490   2.916   1.782  16.378 -0.1106  0.2870 -0.2139
  147DOPC   H2X17491   2.851   1.694  16.360  1.2641 -0.7119 -0.5284
  147DOPC   H2Y17492   2.864   1.878  16.358 -1.8437 -0.1133  1.9735
  147DOPC   C2317493   3.083   1.390  16.458  0.1263  0.4328  0.8566
  147DOPC   H3R17494   3.086   1.501  16.467 -0.9290  0.8350 -2.5712
  147DOPC   H3S17495   3.013   1.365  16.376  1.5212  1.1361 -0.6106
  147DOPC   C2417496   3.228   1.354  16.419  0.3809  0.3897 -0.5630
  147DOPC   H4R17497   3.234   1.243  16.410  1.1120  0.5520 -2.5714
  147DOPC   H4S17498   3.289   1.381  16.508 -0.0103 -0.0128 -0.1668
  147DOPC   C2517499   3.276   1.423  16.294  0.0336  0.2550 -0.1530
  147DOPC   H5R17500   3.250   1.531  16.285 -0.4845  0.1084 -0.4911
  147DOPC   H5S17501   3.200   1.396  16.217 -0.6715 -0.5907  0.8044
  147DOPC   C2617502   3.426   1.389  16.256  0.7907 -0.0513  0.3118
  147DOPC   H6R17503   3.445   1.286  16.218  0.6013  0.4082 -1.0767
  147DOPC   H6S17504   3.482   1.409  16.350  0.1139  2.1651  0.2925
  147DOPC   C2717505   3.473   1.492  16.155 -0.1989 -0.5695  0.9684
  147DOPC   H7R17506   3.486   1.587  16.209  1.2912 -0.6306  0.7596
  147DOPC   H7S17507   3.398   1.517  16.076 -0.5443 -1.3147  1.0452
  147DOPC   C2817508   3.613   1.476  16.076 -0.0886 -0.8181  0.2647
  147DOPC   H8R17509   3.586   1.401  15.999  0.9764 -1.2649  0.3083
  147DOPC   H8S17510   3.693   1.441  16.145  2.2549  2.7336 -0.3864
  147DOPC   C2917511   3.664   1.602  16.015  0.0432  0.1182 -0.0709
  147DOPC   H9R17512   3.631   1.699  16.055  2.8070  1.7143 -1.3974
  147DOPC  C21017513   3.752   1.603  15.915  0.2629 -0.0890 -0.1698
  147DOPC  H10R17514   3.791   1.700  15.879  0.8389 -0.0322  0.5952
  147DOPC  C21117515   3.823   1.485  15.856 -0.5238  0.2410  0.1766
  147DOPC  H11R17516   3.805   1.387  15.904 -0.6503 -0.8192 -1.9093
  147DOPC  H11S17517   3.931   1.512  15.863 -0.6997  1.5660 -1.3361
  147DOPC  C21217518   3.786   1.485  15.704 -0.7290 -0.5673  0.3848
  147DOPC  H12R17519   3.681   1.451  15.696 -1.2081  0.8083  0.5174
  147DOPC  H12S17520   3.855   1.411  15.658  1.0796  1.3452 -0.2046
  147DOPC  C21317521   3.814   1.628  15.636 -0.3775  0.9508  0.0977
  147DOPC  H13R17522   3.919   1.662  15.648  1.6247 -2.8571 -3.8172
  147DOPC  H13S17523   3.740   1.700  15.678 -5.0860 -2.5652 -1.3090
  147DOPC  C21417524   3.782   1.618  15.486 -0.2999 -0.3375  0.4132
  147DOPC  H14R17525   3.729   1.713  15.465 -2.5987 -1.4575  0.7855
  147DOPC  H14S17526   3.708   1.539  15.460  0.0773  0.3508 -3.2647
  147DOPC  C21517527   3.911   1.598  15.403 -0.6493 -0.2270  0.0422
  147DOPC  H15R17528   3.957   1.505  15.440 -2.0874 -0.1723  2.1400
  147DOPC  H15S17529   3.980   1.679  15.436 -1.6409  0.2666  0.9904
  147DOPC  C21617530   3.876   1.622  15.253 -0.1423 -0.0458  0.7709
  147DOPC  H16R17531   3.794   1.697  15.247 -0.8754 -0.9607 -1.8427
  147DOPC  H16S17532   3.837   1.534  15.197 -3.1160  0.5651  1.6673
  147DOPC  C21717533   3.997   1.677  15.175  0.3754 -0.0030 -0.0679
  147DOPC  H17R17534   4.085   1.610  15.178  0.7412  0.5115  1.0718
  147DOPC  H17S17535   4.030   1.773  15.219  0.1225  0.3593 -0.6580
  147DOPC  C21817536   3.954   1.709  15.037 -0.1356 -0.0045 -0.1862
  147DOPC  H18R17537   4.038   1.714  14.965 -1.1025  2.1312 -1.2463
  147DOPC  H18S17538   3.886   1.797  15.029 -0.3583 -0.2778 -1.4008
  147DOPC  H18T17539   3.893   1.625  14.997  0.6998 -3.0191  4.1672
  147DOPC   C3317540   3.050   1.770  16.310  0.1348  0.0346  0.7594
  147DOPC   H3X17541   3.111   1.688  16.353 -1.3180 -1.6095 -0.2165
  147DOPC   H3Y17542   3.092   1.872  16.326 -4.0733  2.4200 -1.6746
  147DOPC   C3417543   3.042   1.742  16.160 -0.2217  0.0747  0.0819
  147DOPC   H4X17544   2.975   1.817  16.112 -3.1674 -1.5431  1.3777
  147DOPC   H4Y17545   2.999   1.640  16.147 -1.7974  0.6258  0.7062
  147DOPC   C3517546   3.181   1.764  16.089 -0.8071 -0.2565 -0.3166
  147DOPC   H5X17547   3.259   1.711  16.148 -0.8413  1.1211  1.0328
  147DOPC   H5Y17548   3.216   1.870  16.092 -0.3931 -0.4005  1.7593
  147DOPC   C3617549   3.189   1.715  15.945 -0.3248  0.0085  0.2359
  147DOPC   H6X17550   3.296   1.715  15.917 -0.0818 -0.1767  1.1261
  147DOPC   H6Y17551   3.169   1.606  15.938  4.3343 -1.0319 -0.1526
  147DOPC   C3717552   3.124   1.795  15.836 -0.0483  0.2832 -0.5045
  147DOPC   H7X17553   3.016   1.766  15.832 -1.2625  3.3167  3.6561
  147DOPC   H7Y17554   3.129   1.905  15.855 -1.8849  0.2702  0.3141
  147DOPC   C3817555   3.188   1.756  15.694 -0.3257  0.4149  0.8229
  147DOPC   H8X17556   3.186   1.645  15.698  1.9609  0.3408  1.5111
  147DOPC   H8Y17557   3.293   1.794  15.689  0.5290 -1.6235  2.1834
  147DOPC   C3917558   3.105   1.821  15.581  0.3397  0.1130  0.3235
  147DOPC   H9X17559   3.021   1.885  15.609 -2.4884 -0.9508 -4.5143
  147DOPC  C31017560   3.138   1.803  15.452 -0.1489  0.0546 -0.1296
  147DOPC  H10X17561   3.071   1.846  15.376  0.8301  1.8562 -0.0494
  147DOPC  C31117562   3.243   1.718  15.393  0.5909 -0.1174 -0.2772
  147DOPC  H11X17563   3.201   1.643  15.323  0.8448 -1.6395  1.1557
  147DOPC  H11Y17564   3.293   1.663  15.476  2.1291 -1.3028 -1.8904
  147DOPC  C31217565   3.343   1.805  15.319  0.1531  0.3993  0.1502
  147DOPC  H12X17566   3.372   1.896  15.375  1.5481  1.1552 -1.6693
  147DOPC  H12Y17567   3.305   1.843  15.222  2.2400 -0.2619 -0.9958
  147DOPC  C31317568   3.480   1.734  15.288 -0.6080 -0.0749 -0.4778
  147DOPC  H13X17569   3.538   1.796  15.217  1.0949 -1.2818 -0.2080
  147DOPC  H13Y17570   3.535   1.745  15.384  0.3242  0.7266 -1.0812
  147DOPC  C31417571   3.474   1.587  15.243  0.6029 -0.1161 -0.3845
  147DOPC  H14X17572   3.569   1.540  15.277 -0.5062 -1.1837  1.4174
  147DOPC  H14Y17573   3.397   1.530  15.299  2.0893  0.1694  2.0488
  147DOPC  C31517574   3.465   1.559  15.090 -0.2990 -0.2841  0.1453
  147DOPC  H15X17575   3.385   1.616  15.037  1.2384  1.0204 -0.8737
  147DOPC  H15Y17576   3.447   1.450  15.074 -0.3061 -0.4446  1.1720
  147DOPC  C31617577   3.598   1.575  15.013 -0.7440 -0.3174  0.1904
  147DOPC  H16X17578   3.632   1.680  15.021 -2.3428  0.3031 -0.7268
  147DOPC  H16Y17579   3.675   1.505  15.053  0.4672 -0.5499 -2.3204
  147DOPC  C31717580   3.572   1.526  14.870 -0.7256 -0.1458 -0.7155
  147DOPC  H17X17581   3.537   1.421  14.862  0.3769 -0.5298 -0.6726
  147DOPC  H17Y17582   3.502   1.604  14.832  0.3981  1.7997  0.9631
  147DOPC  C31817583   3.693   1.537  14.779  0.2347  0.0321  0.2508
  147DOPC  H18X17584   3.656   1.510  14.678  0.9817 -0.7990  0.1835
  147DOPC  H18Y17585   3.741   1.636  14.797  3.4470 -1.9654  4.4676
  147DOPC  H18Z17586   3.764   1.456  14.805  0.9077  0.6823  0.4757
  148DOPC     N17587   1.077   5.951  16.969  0.2469  0.5828 -0.3477
  148DOPC   C1217588   1.027   5.919  16.828 -0.1663 -0.2674 -0.2683
  148DOPC  H12A17589   1.100   5.862  16.771  0.3883  0.4713 -0.3078
  148DOPC  H12B17590   1.019   6.009  16.770  1.7147 -1.1106 -1.9842
  148DOPC   C1317591   1.115   5.829  17.051 -0.6321  0.3386 -0.1770
  148DOPC  H13A17592   1.187   5.768  16.998 -1.0779  0.9754 -1.5464
  148DOPC  H13B17593   1.156   5.861  17.146 -0.7622  0.8399 -0.2874
  148DOPC  H13C17594   1.027   5.769  17.069 -0.9416  0.8379 -0.0268
  148DOPC   C1417595   0.961   6.014  17.043  0.3433 -0.2367  0.3215
  148DOPC  H14A17596   1.003   6.057  17.132  0.6408 -1.1786  0.6469
  148DOPC  H14B17597   0.910   6.094  16.989  0.0946 -0.1749  0.6428
  148DOPC  H14C17598   0.888   5.943  17.079  0.9659 -0.3057  1.4839
  148DOPC   C1517599   1.182   6.048  16.959 -0.0338 -0.4996  0.2562
  148DOPC  H15A17600   1.261   6.017  16.892 -0.9225 -0.8553 -0.6666
  148DOPC  H15B17601   1.220   6.083  17.053 -0.5115 -1.0918  0.6811
  148DOPC  H15C17602   1.136   6.135  16.915  0.9252  0.0068  0.2464
  148DOPC   C1117603   0.892   5.853  16.802  0.4258  1.1451 -0.5371
  148DOPC  H11A17604   0.808   5.918  16.833  0.0529 -0.3846  1.9227
  148DOPC  H11B17605   0.877   5.832  16.694  1.5856 -1.5465 -0.2500
  148DOPC     P17606   0.920   5.590  16.832  0.2019  0.3335 -0.0630
  148DOPC   O1317607   0.796   5.523  16.772 -0.0661 -0.2362 -0.7791
  148DOPC   O1417608   0.981   5.505  16.940 -0.4544  0.4074  0.5449
  148DOPC   O1217609   0.888   5.731  16.888 -0.2719  0.1708  0.1984
  148DOPC   O1117610   1.019   5.629  16.720  0.2918 -0.0031 -0.0196
  148DOPC    C117611   1.072   5.526  16.637 -0.7556  0.1824  0.2681
  148DOPC    HA17612   0.994   5.465  16.585 -1.1422  2.3726 -1.8968
  148DOPC    HB17613   1.138   5.461  16.698 -1.0523 -0.8182 -0.4533
  148DOPC    C217614   1.152   5.597  16.527 -0.4513  0.3165  0.1385
  148DOPC    HS17615   1.223   5.667  16.578  0.5728 -0.6243  0.0456
  148DOPC   O2117616   1.061   5.658  16.435 -0.1654  0.9515 -0.6569
  148DOPC   C2117617   1.069   5.785  16.411  0.2469  0.3174 -0.5138
  148DOPC   O2217618   1.159   5.863  16.442 -0.2810  0.6156  0.1979
  148DOPC   C2217619   0.935   5.821  16.350  0.0895  0.0736  0.5330
  148DOPC   H2R17620   0.872   5.872  16.427 -1.8592 -0.0699 -0.8889
  148DOPC   H2S17621   0.869   5.740  16.314 -1.7279  1.2543  1.0213
  148DOPC    C317622   1.244   5.498  16.446 -0.2022  0.7883  0.2051
  148DOPC    HX17623   1.193   5.400  16.436  0.1542  0.6759 -0.6007
  148DOPC    HY17624   1.332   5.485  16.513 -1.3767 -2.4817  1.3059
  148DOPC   O3117625   1.282   5.554  16.321  0.1945 -0.5198  0.0624
  148DOPC   C3117626   1.398   5.513  16.266 -0.1174 -0.4340 -0.5867
  148DOPC   O3217627   1.481   5.446  16.318  0.2221  0.0531 -1.0009
  148DOPC   C3217628   1.432   5.590  16.139  0.6304  0.3056  0.7622
  148DOPC   H2X17629   1.352   5.572  16.063  1.7698  2.6246 -1.1035
  148DOPC   H2Y17630   1.444   5.699  16.159  2.7493  0.3710 -0.5561
  148DOPC   C2317631   0.963   5.936  16.237 -0.4259  0.8952 -0.8553
  148DOPC   H3R17632   1.008   6.023  16.290 -1.1241  0.1522  1.0475
  148DOPC   H3S17633   0.863   5.960  16.194 -0.5329 -1.2355 -1.8953
  148DOPC   C2417634   1.052   5.888  16.126 -0.8618 -0.2807  0.4434
  148DOPC   H4R17635   1.018   5.789  16.091 -5.2850 -0.0253  3.2647
  148DOPC   H4S17636   1.153   5.861  16.165 -1.5425 -1.0496  1.7470
  148DOPC   C2517637   1.066   5.987  16.008  0.2632  0.8462 -0.1321
  148DOPC   H5R17638   1.106   6.084  16.044  1.1271  0.6167 -0.4409
  148DOPC   H5S17639   0.967   6.022  15.972 -0.6624 -1.1987  0.2778
  148DOPC   C2617640   1.135   5.920  15.890  0.0971  0.1714  0.2786
  148DOPC   H6R17641   1.161   5.999  15.817  0.8474 -0.4945 -0.1844
  148DOPC   H6S17642   1.070   5.852  15.829 -0.5758  2.2071 -1.3963
  148DOPC   C2717643   1.270   5.837  15.923  0.7388  0.4579  0.5437
  148DOPC   H7R17644   1.243   5.763  16.001 -2.6566 -1.1022 -1.8656
  148DOPC   H7S17645   1.341   5.917  15.954  0.4762  1.3104 -0.9611
  148DOPC   C2817646   1.332   5.755  15.804 -0.3038 -0.0920  1.1025
  148DOPC   H8R17647   1.255   5.679  15.780  0.1521 -0.8536  1.9858
  148DOPC   H8S17648   1.427   5.703  15.833  0.1122  1.0695  1.8932
  148DOPC   C2917649   1.362   5.863  15.701  0.4656  0.1077 -0.2984
  148DOPC   H9R17650   1.378   5.961  15.748 -1.2434 -0.5576  1.8599
  148DOPC  C21017651   1.347   5.841  15.569  0.5301  0.0188 -0.2525
  148DOPC  H10R17652   1.354   5.925  15.499 -0.5950  0.1310 -0.2466
  148DOPC  C21117653   1.303   5.717  15.501 -0.1244 -0.0046 -0.6322
  148DOPC  H11R17654   1.298   5.633  15.573  1.4486  1.2172  0.9867
  148DOPC  H11S17655   1.368   5.679  15.419 -1.9855 -1.9883 -1.2730
  148DOPC  C21217656   1.164   5.732  15.443 -0.0452 -0.0034  0.2201
  148DOPC  H12R17657   1.120   5.642  15.395  0.2232  0.9512 -1.9368
  148DOPC  H12S17658   1.162   5.804  15.358  0.1125 -0.1408  0.0998
  148DOPC  C21317659   1.065   5.788  15.548 -0.0514 -0.5536  0.1935
  148DOPC  H13R17660   1.091   5.894  15.569 -0.5453 -0.6746  1.5348
  148DOPC  H13S17661   1.078   5.728  15.641  1.4848 -0.5742 -0.0115
  148DOPC  C21417662   0.915   5.773  15.515 -0.8024  0.2990 -0.0626
  148DOPC  H14R17663   0.891   5.665  15.507  0.1095  0.0796  0.0388
  148DOPC  H14S17664   0.896   5.824  15.418  3.4986  2.7577  0.1497
  148DOPC  C21517665   0.822   5.844  15.616  0.0687 -0.2155 -0.1088
  148DOPC  H15R17666   0.728   5.875  15.565  0.8003 -0.7194 -1.8217
  148DOPC  H15S17667   0.872   5.938  15.646  1.8654 -0.4950 -2.0383
  148DOPC  C21617668   0.789   5.742  15.734 -0.3470 -0.4505 -0.4603
  148DOPC  H16R17669   0.889   5.722  15.777 -0.9056 -1.1821  0.5430
  148DOPC  H16S17670   0.754   5.647  15.688  1.4953 -0.6372 -1.5951
  148DOPC  C21717671   0.694   5.804  15.839  0.3663  0.0707  0.6304
  148DOPC  H17R17672   0.591   5.809  15.798  0.7226  2.5861 -0.1241
  148DOPC  H17S17673   0.720   5.911  15.857  0.2671 -0.3274  3.5320
  148DOPC  C21817674   0.701   5.721  15.967  0.2976  0.0164  0.1899
  148DOPC  H18R17675   0.794   5.720  16.028  0.4032 -1.2105  0.0413
  148DOPC  H18S17676   0.676   5.614  15.953  0.5442 -0.0884  0.5472
  148DOPC  H18T17677   0.613   5.750  16.028 -1.8571 -1.4829 -2.0133
  148DOPC   C3317678   1.557   5.541  16.058  0.7554 -0.1306 -0.0595
  148DOPC   H3X17679   1.653   5.541  16.114  0.5938  0.6417  0.2302
  148DOPC   H3Y17680   1.579   5.620  15.982 -1.0504  0.1260 -0.3723
  148DOPC   C3417681   1.538   5.412  15.984  0.2621  0.0738 -0.7943
  148DOPC   H4X17682   1.439   5.409  15.935 -0.2103 -0.9236  0.1762
  148DOPC   H4Y17683   1.539   5.328  16.057 -0.7886  0.8804  0.1780
  148DOPC   C3517684   1.639   5.396  15.872  0.4360  0.2005  0.4779
  148DOPC   H5X17685   1.649   5.289  15.846  1.2382  0.6886 -1.4515
  148DOPC   H5Y17686   1.738   5.432  15.906  0.7045 -0.3156  0.2546
  148DOPC   C3617687   1.595   5.458  15.735 -0.2380 -0.3204 -0.6669
  148DOPC   H6X17688   1.532   5.380  15.687 -0.9172 -1.3183  1.7196
  148DOPC   H6Y17689   1.536   5.552  15.744 -0.6285 -0.0407 -4.3926
  148DOPC   C3717690   1.715   5.481  15.643 -0.0538 -0.0605  1.0225
  148DOPC   H7X17691   1.799   5.524  15.702  0.4847  2.2171 -1.2411
  148DOPC   H7Y17692   1.762   5.389  15.602 -0.4379 -0.3994  1.3243
  148DOPC   C3817693   1.678   5.583  15.531  0.5424 -0.4935 -0.2160
  148DOPC   H8X17694   1.770   5.603  15.472 -1.3732  0.7400 -3.0051
  148DOPC   H8Y17695   1.635   5.679  15.566 -0.6991 -0.6116 -1.3296
  148DOPC   C3917696   1.579   5.522  15.430  0.0873  0.1724  0.3744
  148DOPC   H9X17697   1.497   5.464  15.475  0.3967  0.7577  1.7737
  148DOPC  C31017698   1.600   5.500  15.296 -0.8383 -0.4313 -0.0912
  148DOPC  H10X17699   1.511   5.478  15.235 -2.1967  0.2082  1.5839
  148DOPC  C31117700   1.721   5.550  15.212 -0.1488 -0.7997  0.0978
  148DOPC  H11X17701   1.797   5.595  15.280  0.7268 -0.7611 -0.8711
  148DOPC  H11Y17702   1.696   5.643  15.156  1.3952 -0.9027 -0.8166
  148DOPC  C31217703   1.789   5.444  15.122  0.3339 -0.3627  0.1052
  148DOPC  H12X17704   1.808   5.350  15.178  0.5474  0.0652  0.7575
  148DOPC  H12Y17705   1.883   5.484  15.077 -0.7893 -0.5483 -2.6414
  148DOPC  C31317706   1.701   5.416  14.996  0.0026  0.3713 -0.2980
  148DOPC  H13X17707   1.597   5.386  15.022 -0.0556 -1.0535 -1.9889
  148DOPC  H13Y17708   1.700   5.512  14.940 -0.2730  0.4517 -0.1625
  148DOPC  C31417709   1.755   5.313  14.896 -0.1640  0.8569  0.2351
  148DOPC  H14X17710   1.853   5.340  14.851  0.2303 -3.3637 -1.9477
  148DOPC  H14Y17711   1.775   5.213  14.939  1.2302  1.6251  1.4675
  148DOPC  C31517712   1.646   5.301  14.783 -0.7040 -0.4355 -0.0543
  148DOPC  H15X17713   1.617   5.406  14.765  1.4681  0.4458  1.2747
  148DOPC  H15Y17714   1.558   5.254  14.832 -2.1269  1.4760 -0.6483
  148DOPC  C31617715   1.693   5.223  14.659  0.3359  0.4829 -0.4696
  148DOPC  H16X17716   1.767   5.283  14.603  1.2146 -1.4971 -1.5583
  148DOPC  H16Y17717   1.740   5.129  14.696 -0.8494 -0.8403 -2.1255
  148DOPC  C31717718   1.580   5.182  14.556  0.2465  0.6595  0.1589
  148DOPC  H17X17719   1.519   5.274  14.539 -0.6901  0.4232  2.0059
  148DOPC  H17Y17720   1.639   5.161  14.464 -0.1829  0.4281 -0.0703
  148DOPC  C31817721   1.482   5.069  14.600 -0.2377 -0.3750  0.0016
  148DOPC  H18X17722   1.417   5.103  14.683 -0.0400 -0.2806  0.1181
  148DOPC  H18Y17723   1.422   5.030  14.515 -3.2308 -0.7395  2.1179
  148DOPC  H18Z17724   1.541   4.982  14.637 -0.2265  0.3121  1.6611
  149DOPC     N17725   1.437   2.937  17.166 -0.2619  0.6449  0.0043
  149DOPC   C1217726   1.428   2.955  17.014  0.3025 -0.2509 -0.0950
  149DOPC  H12A17727   1.342   3.019  16.999  0.3816 -0.2681 -0.6710
  149DOPC  H12B17728   1.414   2.858  16.970  1.2351  0.1299 -1.2868
  149DOPC   C1317729   1.320   2.875  17.235 -0.1963 -0.2134  0.4760
  149DOPC  H13A17730   1.226   2.923  17.216 -0.1485 -0.5132 -0.5898
  149DOPC  H13B17731   1.307   2.771  17.208  1.4521 -0.1580 -0.6877
  149DOPC  H13C17732   1.344   2.880  17.340  0.4849  0.4496  0.3025
  149DOPC   C1417733   1.447   3.072  17.227  0.1625  0.0245  1.0307
  149DOPC  H14A17734   1.359   3.134  17.216 -0.3121 -1.0020 -2.0187
  149DOPC  H14B17735   1.462   3.069  17.334  2.1641 -0.8711  0.7702
  149DOPC  H14C17736   1.520   3.137  17.182 -1.2330  1.3284  0.5556
  149DOPC   C1517737   1.557   2.855  17.208 -0.3412 -0.1969 -0.2418
  149DOPC  H15A17738   1.574   2.866  17.314  1.8598  0.6826 -0.6232
  149DOPC  H15B17739   1.639   2.900  17.154 -0.7878  1.3534  0.3207
  149DOPC  H15C17740   1.546   2.749  17.194  1.3928 -0.8012  2.2167
  149DOPC   C1117741   1.551   3.017  16.940 -0.4320  0.3494  0.6368
  149DOPC  H11A17742   1.638   2.952  16.963  0.2479  1.2022  0.5272
  149DOPC  H11B17743   1.539   3.014  16.830  0.6886 -1.8876  0.5148
  149DOPC     P17744   1.551   3.277  16.904 -0.1473  0.6151  0.5136
  149DOPC   O1317745   1.615   3.392  16.963 -0.2129 -0.3405  0.2737
  149DOPC   O1417746   1.403   3.293  16.878 -0.1267 -0.2655  0.2922
  149DOPC   O1217747   1.576   3.149  16.993  0.5725  0.4300  0.3941
  149DOPC   O1117748   1.619   3.244  16.763  0.1291  0.0342  0.4568
  149DOPC    C117749   1.759   3.239  16.755 -0.4438  0.4465  0.6460
  149DOPC    HA17750   1.808   3.166  16.823  2.3557 -0.9600 -2.5927
  149DOPC    HB17751   1.787   3.343  16.782 -0.6798  0.1346  2.1629
  149DOPC    C217752   1.796   3.186  16.619 -0.2918 -0.3028  0.4026
  149DOPC    HS17753   1.905   3.166  16.622 -0.0701  0.7515 -0.1248
  149DOPC   O2117754   1.775   3.290  16.516 -0.4221 -0.2646  0.3528
  149DOPC   C2117755   1.860   3.392  16.521  0.5348 -0.9971  0.5699
  149DOPC   O2217756   1.945   3.409  16.603 -0.2400  0.7480 -0.1046
  149DOPC   C2217757   1.831   3.482  16.394  0.3713 -0.5728  0.1661
  149DOPC   H2R17758   1.897   3.571  16.406  0.4401 -0.6209  0.1444
  149DOPC   H2S17759   1.723   3.510  16.390  0.6049  0.5178  1.0544
  149DOPC    C317760   1.727   3.054  16.569  0.5279 -0.5916 -0.0558
  149DOPC    HX17761   1.616   3.055  16.581 -0.1589 -0.7411 -4.5029
  149DOPC    HY17762   1.762   2.974  16.637 -0.9519 -0.9306  0.3585
  149DOPC   O3117763   1.761   3.019  16.436 -0.5925 -0.1932 -0.0140
  149DOPC   C3117764   1.679   3.057  16.342 -0.0707  0.4532  0.7095
  149DOPC   O3217765   1.591   3.140  16.345 -0.3882  0.6604  0.3084
  149DOPC   C3217766   1.709   2.987  16.208 -0.6849  0.2466 -0.2749
  149DOPC   H2X17767   1.818   2.985  16.189 -0.5879 -3.0015  0.0500
  149DOPC   H2Y17768   1.682   2.879  16.215  2.2033 -0.6775 -1.6966
  149DOPC   C2317769   1.866   3.400  16.271 -0.3638 -0.0560 -0.2699
  149DOPC   H3R17770   1.779   3.332  16.264 -0.5710  0.2076 -0.2886
  149DOPC   H3S17771   1.958   3.340  16.289  1.1501  2.3047  0.3315
  149DOPC   C2417772   1.879   3.475  16.139 -0.0255  0.1623  0.3726
  149DOPC   H4R17773   1.959   3.550  16.153 -0.2290  0.5105 -0.3257
  149DOPC   H4S17774   1.786   3.535  16.130 -0.3652 -0.4415 -0.1598
  149DOPC   C2517775   1.893   3.381  16.020  0.5180  0.2859 -0.2778
  149DOPC   H5R17776   1.815   3.304  16.005  1.8120 -1.0606 -0.3303
  149DOPC   H5S17777   1.989   3.324  16.015  1.2347  1.2275  1.6257
  149DOPC   C2617778   1.891   3.467  15.898 -0.4539 -0.3397 -0.4022
  149DOPC   H6R17779   1.976   3.536  15.916  0.7294 -1.8869  0.1841
  149DOPC   H6S17780   1.795   3.522  15.896 -0.8238 -0.9231  0.6823
  149DOPC   C2717781   1.932   3.384  15.773 -0.3675 -0.5221 -0.0176
  149DOPC   H7R17782   1.871   3.290  15.769  1.2411 -1.5608 -1.3655
  149DOPC   H7S17783   2.036   3.349  15.787 -0.3051 -0.7133 -0.9196
  149DOPC   C2817784   1.918   3.460  15.642 -0.0718  0.6971  1.1621
  149DOPC   H8R17785   1.813   3.496  15.635 -0.7994 -0.7281  3.6346
  149DOPC   H8S17786   1.922   3.390  15.556  1.5333  1.4178  0.6188
  149DOPC   C2917787   2.027   3.567  15.628  0.5045 -0.2712 -0.0672
  149DOPC   H9R17788   2.021   3.640  15.709 -0.5817 -0.7213  0.2783
  149DOPC  C21017789   2.139   3.562  15.549 -0.2104  0.2874 -0.5572
  149DOPC  H10R17790   2.209   3.646  15.560  0.8210 -0.7382  0.9394
  149DOPC  C21117791   2.178   3.459  15.442 -0.3506 -0.4374 -0.5427
  149DOPC  H11R17792   2.157   3.362  15.492  1.5692 -1.1154 -0.9631
  149DOPC  H11S17793   2.284   3.468  15.412 -0.7735  0.4432 -1.8456
  149DOPC  C21217794   2.093   3.474  15.311 -0.1466  0.0166  0.2429
  149DOPC  H12R17795   1.983   3.486  15.326 -0.1217  1.4604 -0.5783
  149DOPC  H12S17796   2.100   3.384  15.246 -2.1038  0.4806 -0.6802
  149DOPC  C21317797   2.145   3.588  15.215  0.4285  0.3691  0.9927
  149DOPC  H13R17798   2.255   3.590  15.229  0.8007  2.9353 -1.3560
  149DOPC  H13S17799   2.103   3.686  15.247 -0.8856 -0.3144  1.4480
  149DOPC  C21417800   2.105   3.565  15.066  0.1026  0.5542  0.2628
  149DOPC  H14R17801   1.995   3.580  15.053 -0.2411 -1.9499 -0.2788
  149DOPC  H14S17802   2.121   3.460  15.032  1.5091  0.6106  0.7100
  149DOPC  C21517803   2.177   3.655  14.967  0.2600  0.1680  0.2952
  149DOPC  H15R17804   2.276   3.609  14.949 -0.9493 -3.0986  1.3180
  149DOPC  H15S17805   2.196   3.755  15.011 -3.7226  1.2395 -0.0222
  149DOPC  C21617806   2.104   3.676  14.832  0.3715  0.2214 -0.6634
  149DOPC  H16R17807   2.001   3.709  14.858  0.5810 -0.7291  1.6547
  149DOPC  H16S17808   2.091   3.578  14.780  0.0610  0.7740 -1.6421
  149DOPC  C21717809   2.167   3.777  14.738  0.3048 -0.4911 -0.3408
  149DOPC  H17R17810   2.152   3.876  14.786  2.8841 -0.5480  0.7552
  149DOPC  H17S17811   2.115   3.779  14.640  0.4244  1.3870 -0.4022
  149DOPC  C21817812   2.318   3.762  14.710 -0.1916  0.2357  0.1103
  149DOPC  H18R17813   2.343   3.680  14.640 -0.4391 -2.6501  3.1331
  149DOPC  H18S17814   2.366   3.741  14.808 -0.4144 -1.3537 -0.1018
  149DOPC  H18T17815   2.358   3.855  14.664 -0.2475  0.1178 -0.1820
  149DOPC   C3317816   1.655   3.058  16.088  0.7899 -0.1299 -0.1312
  149DOPC   H3X17817   1.678   3.167  16.095 -1.3512  0.4638 -1.4378
  149DOPC   H3Y17818   1.545   3.048  16.080  0.8296  0.1810 -1.1712
  149DOPC   C3417819   1.711   3.001  15.954  0.3757 -0.7446  0.4896
  149DOPC   H4X17820   1.735   2.893  15.966  1.1296 -0.7315 -0.7710
  149DOPC   H4Y17821   1.804   3.058  15.936  0.1205 -0.3786  0.3241
  149DOPC   C3517822   1.619   3.022  15.837  0.7453 -0.2115 -0.0730
  149DOPC   H5X17823   1.584   3.127  15.841  0.0637 -0.4537  0.3623
  149DOPC   H5Y17824   1.529   2.957  15.841 -0.2328  1.0597 -0.9300
  149DOPC   C3617825   1.688   2.999  15.700 -0.4195  0.0887 -0.4072
  149DOPC   H6X17826   1.789   3.045  15.692 -0.7071  0.5951 -1.2412
  149DOPC   H6Y17827   1.695   2.888  15.693 -0.2977  0.0091  0.7053
  149DOPC   C3717828   1.626   3.050  15.566  0.2304 -0.8124  0.0380
  149DOPC   H7X17829   1.515   3.044  15.570  0.1738  0.2531  0.2342
  149DOPC   H7Y17830   1.647   3.158  15.552  1.6793 -1.1017 -0.1717
  149DOPC   C3817831   1.663   2.960  15.444  0.1927 -0.1652 -0.5932
  149DOPC   H8X17832   1.600   2.993  15.359 -1.1022 -1.0640 -0.0130
  149DOPC   H8Y17833   1.633   2.858  15.475 -0.0706  0.2644  0.6507
  149DOPC   C3917834   1.806   2.967  15.395  0.1613 -0.2027 -0.1373
  149DOPC   H9X17835   1.836   3.068  15.364  0.0875  0.5103  1.9231
  149DOPC  C31017836   1.885   2.863  15.368  0.5503  0.2257 -0.8313
  149DOPC  H10X17837   1.987   2.888  15.333 -0.1914  2.4492 -1.5720
  149DOPC  C31117838   1.855   2.719  15.364  0.2303  0.5000 -0.1636
  149DOPC  H11X17839   1.747   2.704  15.385 -0.0858  1.8086 -0.7727
  149DOPC  H11Y17840   1.909   2.661  15.442 -0.6072  0.1361  0.1499
  149DOPC  C31217841   1.883   2.656  15.224 -0.2794 -0.1533 -0.1539
  149DOPC  H12X17842   1.843   2.711  15.136 -0.5293 -1.4012 -0.8408
  149DOPC  H12Y17843   1.847   2.552  15.217  1.3710 -0.6679 -1.9535
  149DOPC  C31317844   2.032   2.628  15.207 -0.5348 -0.0313  0.3564
  149DOPC  H13X17845   2.091   2.722  15.211 -0.5105 -0.0770  2.1406
  149DOPC  H13Y17846   2.065   2.570  15.296  1.5062  1.2005  0.4866
  149DOPC  C31417847   2.069   2.545  15.076 -0.1061 -0.3546 -0.1714
  149DOPC  H14X17848   2.008   2.453  15.085  1.5345 -1.5743 -0.9521
  149DOPC  H14Y17849   2.038   2.601  14.984  1.5365 -0.7161 -0.9801
  149DOPC  C31517850   2.217   2.509  15.064 -0.2784 -0.8694 -0.6958
  149DOPC  H15X17851   2.236   2.446  14.975 -1.1352 -1.7757 -0.2502
  149DOPC  H15Y17852   2.248   2.466  15.161  1.5823 -0.4685 -1.0551
  149DOPC  C31617853   2.306   2.628  15.050 -0.1500 -0.3288  0.7087
  149DOPC  H16X17854   2.276   2.686  14.961  0.6870 -2.7329 -1.2517
  149DOPC  H16Y17855   2.298   2.695  15.138  0.5294  0.7181 -0.0126
  149DOPC  C31717856   2.446   2.576  15.055 -0.0891 -0.2307  0.5456
  149DOPC  H17X17857   2.506   2.641  15.123  1.2785 -0.2574 -0.5865
  149DOPC  H17Y17858   2.449   2.472  15.094  1.5498  0.3772  2.1756
  149DOPC  C31817859   2.520   2.575  14.922  0.1421  0.6728  0.1531
  149DOPC  H18X17860   2.456   2.533  14.842  0.7669 -1.5190  0.7164
  149DOPC  H18Y17861   2.546   2.679  14.893 -2.9619  1.2127 -1.0956
  149DOPC  H18Z17862   2.608   2.507  14.920 -1.5198 -1.6549 -3.4288
  150DOPC     N17863   3.624   6.333  17.067 -0.0774  0.3508  0.4276
  150DOPC   C1217864   3.784   6.316  17.050  0.3907 -0.3881 -0.2564
  150DOPC  H12A17865   3.832   6.316  17.147 -1.3064  0.3760  0.6320
  150DOPC  H12B17866   3.815   6.395  16.984 -1.4015  0.2488 -0.4054
  150DOPC   C1317867   3.572   6.226  17.164 -0.2263 -0.5864  0.1271
  150DOPC  H13A17868   3.591   6.126  17.128 -0.7720 -0.1461 -1.4476
  150DOPC  H13B17869   3.632   6.246  17.252  0.1882  2.8337 -0.7852
  150DOPC  H13C17870   3.465   6.239  17.179  0.0279  2.3342  0.0946
  150DOPC   C1417871   3.553   6.319  16.937 -0.2495  0.4785  0.6486
  150DOPC  H14A17872   3.583   6.396  16.869 -2.1761  0.7100 -0.0170
  150DOPC  H14B17873   3.576   6.228  16.885 -2.6459  1.1546 -1.8672
  150DOPC  H14C17874   3.446   6.315  16.955 -0.2804 -2.3739  0.3261
  150DOPC   C1517875   3.596   6.472  17.122  0.1033  0.3934 -0.4132
  150DOPC  H15A17876   3.491   6.485  17.144 -0.0224 -0.7492 -0.2761
  150DOPC  H15B17877   3.623   6.550  17.051  1.1231  1.7972  1.4391
  150DOPC  H15C17878   3.655   6.486  17.211  1.1911  0.9225 -1.1849
  150DOPC   C1117879   3.851   6.186  16.990 -0.1513  0.4805 -0.8106
  150DOPC  H11A17880   3.957   6.214  17.009 -0.7436  0.0655  4.8868
  150DOPC  H11B17881   3.842   6.093  17.050 -0.5269  1.1487  0.1909
  150DOPC     P17882   3.920   6.090  16.761 -0.2383 -0.0023 -0.0062
  150DOPC   O1317883   3.960   5.959  16.818 -0.6083 -0.2146 -0.0907
  150DOPC   O1417884   4.029   6.183  16.733 -0.1337 -0.6575  0.1131
  150DOPC   O1217885   3.819   6.161  16.856 -0.1538  0.0399 -0.1070
  150DOPC   O1117886   3.837   6.063  16.630 -0.1325 -0.1583 -0.0372
  150DOPC    C117887   3.694   6.033  16.627  0.2254  0.8469 -0.1247
  150DOPC    HA17888   3.642   6.131  16.636 -0.9687  0.1858  0.3236
  150DOPC    HB17889   3.663   5.965  16.709  0.1229  0.4884 -0.4555
  150DOPC    C217890   3.653   5.963  16.492  0.3413  0.0321 -0.4258
  150DOPC    HS17891   3.659   5.852  16.505 -0.2871  0.1247  0.7746
  150DOPC   O2117892   3.726   6.009  16.383 -0.1947 -0.4491  0.1485
  150DOPC   C2117893   3.760   5.920  16.292 -0.1676  0.5712 -0.4417
  150DOPC   O2217894   3.730   5.799  16.288 -0.2223  0.6479 -0.0775
  150DOPC   C2217895   3.847   5.993  16.183 -0.2365  1.3159 -0.2407
  150DOPC   H2R17896   3.947   5.945  16.175 -0.7877 -0.1031  1.0922
  150DOPC   H2S17897   3.858   6.094  16.228 -0.1604  1.2673 -0.1502
  150DOPC    C317898   3.501   5.990  16.465 -0.1104 -0.8506 -0.7388
  150DOPC    HX17899   3.490   6.100  16.474  2.3736 -0.5519 -0.5417
  150DOPC    HY17900   3.436   5.952  16.546 -0.9604  0.4301 -0.8033
  150DOPC   O3117901   3.451   5.948  16.343 -0.0661  0.4759 -0.3577
  150DOPC   C3117902   3.396   5.831  16.332 -0.6266 -0.9523  0.0580
  150DOPC   O3217903   3.382   5.746  16.418  0.0591  0.1526 -0.1147
  150DOPC   C3217904   3.350   5.819  16.184  0.2306 -0.4899  0.2655
  150DOPC   H2X17905   3.372   5.715  16.151 -2.0640 -0.6811 -0.8198
  150DOPC   H2Y17906   3.239   5.822  16.190  0.1847 -0.1666 -0.6150
  150DOPC   C2317907   3.770   6.016  16.050 -0.4335  0.2519  0.0485
  150DOPC   H3R17908   3.692   6.091  16.070 -1.7543 -1.4233  1.5033
  150DOPC   H3S17909   3.728   5.922  16.010 -2.8359  1.2227  0.1628
  150DOPC   C2417910   3.869   6.063  15.943 -0.3841 -0.5479  0.1706
  150DOPC   H4R17911   3.925   5.978  15.898 -0.7169  0.1360 -1.6145
  150DOPC   H4S17912   3.939   6.133  15.994  1.2761 -1.8182 -0.2660
  150DOPC   C2517913   3.806   6.148  15.825  0.8781  0.0638 -0.2155
  150DOPC   H5R17914   3.777   6.248  15.864  0.0190  0.3323 -1.4791
  150DOPC   H5S17915   3.714   6.098  15.790  0.6170  0.8210 -0.6243
  150DOPC   C2617916   3.911   6.173  15.713 -0.0599  0.4350 -0.2752
  150DOPC   H6R17917   3.929   6.081  15.653  0.4686  0.4202 -0.0952
  150DOPC   H6S17918   4.003   6.213  15.761  0.3424  1.3764 -1.7351
  150DOPC   C2717919   3.884   6.269  15.594  0.1629 -0.1378  0.4501
  150DOPC   H7R17920   3.831   6.355  15.640 -1.1791 -1.3643  1.2519
  150DOPC   H7S17921   3.817   6.229  15.516 -0.3556  2.4571 -0.5329
  150DOPC   C2817922   4.018   6.319  15.535 -0.3094  0.4611  0.2221
  150DOPC   H8R17923   4.085   6.370  15.607  1.1661 -1.1294  0.0511
  150DOPC   H8S17924   3.987   6.392  15.457  0.3844 -0.6626 -1.1669
  150DOPC   C2917925   4.103   6.208  15.474 -0.0335 -0.4850  0.3528
  150DOPC   H9R17926   4.158   6.141  15.541  1.6733  0.9328  0.4479
  150DOPC  C21017927   4.115   6.194  15.340 -0.3557  0.3336  0.6561
  150DOPC  H10R17928   4.183   6.118  15.299 -0.5273 -1.5357  3.5441
  150DOPC  C21117929   4.035   6.266  15.229  0.2375 -0.1742  0.3502
  150DOPC  H11R17930   4.067   6.372  15.236  0.4761 -0.1956 -0.3037
  150DOPC  H11S17931   3.925   6.258  15.241  0.2716 -0.6646  0.3383
  150DOPC  C21217932   4.077   6.215  15.090  0.4749 -0.8137  0.6852
  150DOPC  H12R17933   4.050   6.108  15.097 -0.7973 -0.3881  3.2195
  150DOPC  H12S17934   4.188   6.222  15.090  0.4953 -1.0425  1.5812
  150DOPC  C21317935   4.003   6.276  14.970  0.0307  0.4452  0.4905
  150DOPC  H13R17936   3.893   6.276  14.989 -0.2028  1.3145 -0.7242
  150DOPC  H13S17937   4.023   6.212  14.881  2.1780  1.5523  0.1072
  150DOPC  C21417938   4.030   6.422  14.940 -0.0385  1.0297 -0.0037
  150DOPC  H14R17939   4.138   6.427  14.915  0.5850 -0.7471  2.0058
  150DOPC  H14S17940   4.029   6.487  15.030  1.2768  0.1349  0.6903
  150DOPC  C21517941   3.939   6.481  14.821  0.3516 -0.0052  0.4250
  150DOPC  H15R17942   3.970   6.586  14.806 -0.5872  0.2185 -0.0293
  150DOPC  H15S17943   3.835   6.484  14.861  0.5158 -0.6322  0.9240
  150DOPC  C21617944   3.955   6.401  14.688 -0.2766  1.0234  0.1145
  150DOPC  H16R17945   3.879   6.321  14.673  0.1847  0.6563 -0.2611
  150DOPC  H16S17946   4.051   6.346  14.689 -1.5041 -1.4539 -2.4302
  150DOPC  C21717947   3.956   6.497  14.569 -0.3013  0.3600 -0.1637
  150DOPC  H17R17948   4.050   6.554  14.582  0.0078 -0.0885 -0.4174
  150DOPC  H17S17949   3.858   6.549  14.557 -0.6170 -0.4928 -1.4366
  150DOPC  C21817950   3.970   6.419  14.434 -0.1169 -0.1251 -0.2466
  150DOPC  H18R17951   3.894   6.337  14.435 -0.0062 -0.2303 -0.3294
  150DOPC  H18S17952   4.071   6.378  14.409 -0.8187 -0.1219 -3.4188
  150DOPC  H18T17953   3.945   6.490  14.353  0.5320 -1.3360 -1.5688
  150DOPC   C3317954   3.398   5.933  16.094 -0.5663  0.2350 -0.5268
  150DOPC   H3X17955   3.505   5.959  16.108  0.1930 -1.8799 -1.9140
  150DOPC   H3Y17956   3.350   6.031  16.118 -2.7885 -0.8979 -0.0724
  150DOPC   C3417957   3.377   5.889  15.945  0.0408  0.1468  0.6249
  150DOPC   H4X17958   3.267   5.902  15.929  0.2465  1.5707  0.1989
  150DOPC   H4Y17959   3.393   5.781  15.928  0.4052  0.3130 -0.1146
  150DOPC   C3517960   3.456   5.952  15.829 -0.5575  0.4385 -0.6635
  150DOPC   H5X17961   3.536   6.011  15.879 -0.8306 -0.4319  0.8569
  150DOPC   H5Y17962   3.402   6.030  15.772 -1.3288  0.2905 -0.1568
  150DOPC   C3617963   3.510   5.846  15.731  0.1180  0.1152  0.1895
  150DOPC   H6X17964   3.618   5.816  15.730 -0.3476 -1.8352 -1.6603
  150DOPC   H6Y17965   3.475   5.743  15.753  2.4466 -1.5394 -2.9024
  150DOPC   C3717966   3.469   5.870  15.587 -0.1495  0.0814  1.0034
  150DOPC   H7X17967   3.492   5.791  15.512  0.4119  0.5724  0.6495
  150DOPC   H7Y17968   3.362   5.897  15.589 -0.1939  0.2775 -1.4151
  150DOPC   C3817969   3.540   5.991  15.524 -0.6294  0.2283 -0.3914
  150DOPC   H8X17970   3.532   6.078  15.592  0.2167  1.6417 -2.0224
  150DOPC   H8Y17971   3.490   6.019  15.428  1.5026 -1.9123 -2.2569
  150DOPC   C3917972   3.682   5.968  15.479 -0.4872  0.6019  0.1948
  150DOPC   H9X17973   3.754   5.981  15.561 -2.8810  1.7352  2.2191
  150DOPC  C31017974   3.735   5.935  15.361 -0.1574 -0.2352 -0.0526
  150DOPC  H10X17975   3.842   5.946  15.341 -0.1886  0.8050  0.2756
  150DOPC  C31117976   3.662   5.912  15.233  0.2631  0.1769 -0.3063
  150DOPC  H11X17977   3.587   5.992  15.215 -0.6156 -0.4664  0.3994
  150DOPC  H11Y17978   3.616   5.812  15.248  1.5456 -0.5681 -1.0977
  150DOPC  C31217979   3.751   5.909  15.111 -0.4618 -0.2733 -0.1235
  150DOPC  H12X17980   3.836   5.837  15.119  0.4184  0.8925  2.2301
  150DOPC  H12Y17981   3.804   6.006  15.106 -1.8747  0.5020 -0.5310
  150DOPC  C31317982   3.680   5.903  14.979  0.6102 -1.1860  0.2482
  150DOPC  H13X17983   3.615   5.813  14.982 -2.6929  0.9399 -1.5228
  150DOPC  H13Y17984   3.611   5.988  14.960  1.2405 -0.7769 -0.2500
  150DOPC  C31417985   3.787   5.893  14.876  0.2073 -0.1952 -0.2357
  150DOPC  H14X17986   3.851   5.983  14.888 -0.5543  0.3147  0.0393
  150DOPC  H14Y17987   3.863   5.819  14.909 -1.0586 -0.9525  1.0733
  150DOPC  C31517988   3.717   5.877  14.742  0.0034 -0.3790 -0.4711
  150DOPC  H15X17989   3.648   5.962  14.726 -1.6701 -2.1722 -4.1017
  150DOPC  H15Y17990   3.665   5.779  14.737  2.1802 -1.7277  1.2765
  150DOPC  C31617991   3.809   5.882  14.616 -0.0019 -0.5059 -0.1744
  150DOPC  H16X17992   3.832   5.988  14.592  0.5604 -0.4009  0.7516
  150DOPC  H16Y17993   3.907   5.833  14.635  1.4231  2.5511  1.1654
  150DOPC  C31717994   3.754   5.816  14.490 -0.0666 -0.1418  0.1704
  150DOPC  H17X17995   3.743   5.709  14.517  2.2888 -0.5547 -0.3091
  150DOPC  H17Y17996   3.656   5.856  14.456 -2.8228 -2.6614  4.3203
  150DOPC  C31817997   3.846   5.833  14.370  0.2455 -0.7642  0.1609
  150DOPC  H18X17998   3.927   5.761  14.394 -0.8031 -0.8307  4.2838
  150DOPC  H18Y17999   3.793   5.812  14.275 -2.1857 -0.0230  1.2843
  150DOPC  H18Z18000   3.892   5.935  14.371 -1.2732 -0.0393 -0.2005
  151DOPC     N18001   0.191   2.486  16.471  0.1763 -0.0672  0.1717
  151DOPC   C1218002   0.233   2.395  16.595 -0.1563  0.0144  0.0558
  151DOPC  H12A18003   0.169   2.307  16.593  0.3776 -0.4156  1.0206
  151DOPC  H12B18004   0.206   2.446  16.685 -4.1326 -2.4283  0.5041
  151DOPC   C1318005   0.042   2.501  16.473  0.0799 -0.3321 -0.2727
  151DOPC  H13A18006  -0.000   2.404  16.455 -0.6203  0.5222 -4.2860
  151DOPC  H13B18007   0.004   2.537  16.568 -1.6892 -1.8766 -0.3621
  151DOPC  H13C18008   0.012   2.567  16.393  1.7212 -0.2667 -0.8829
  151DOPC   C1418009   0.230   2.429  16.337 -0.2290 -0.1947  0.5779
  151DOPC  H14A18010   0.167   2.345  16.313  1.7379 -1.4931 -0.2654
  151DOPC  H14B18011   0.235   2.503  16.259  2.0652 -0.2231  0.6224
  151DOPC  H14C18012   0.331   2.392  16.351  0.4156  1.4762  0.5463
  151DOPC   C1518013   0.250   2.623  16.480 -0.6910  0.3403 -0.2053
  151DOPC  H15A18014   0.227   2.668  16.576  0.4634 -0.3108  0.3986
  151DOPC  H15B18015   0.207   2.694  16.410  0.9373  1.6054  0.0252
  151DOPC  H15C18016   0.357   2.617  16.477 -0.5649  2.2415 -1.1884
  151DOPC   C1118017   0.379   2.362  16.620  0.3724 -0.5829 -0.0859
  151DOPC  H11A18018   0.389   2.325  16.724  1.2472  1.3022  0.5428
  151DOPC  H11B18019   0.419   2.278  16.559  0.2388 -0.7152  0.0074
  151DOPC     P18020   0.629   2.436  16.621  0.2218 -0.0906 -0.1073
  151DOPC   O1318021   0.660   2.292  16.634  0.0436  0.1152  0.0206
  151DOPC   O1418022   0.687   2.517  16.728  0.7448  0.3389  0.5338
  151DOPC   O1218023   0.475   2.466  16.599  0.3843  0.1656  0.3234
  151DOPC   O1118024   0.689   2.491  16.491 -0.6808 -0.2757 -0.1680
  151DOPC    C118025   0.635   2.473  16.363  0.6293  0.0504 -0.2063
  151DOPC    HA18026   0.636   2.565  16.301  1.6937 -0.2504 -0.6551
  151DOPC    HB18027   0.527   2.448  16.361  0.8743 -1.1630 -3.4333
  151DOPC    C218028   0.710   2.354  16.289  0.7649  0.0846 -0.3164
  151DOPC    HS18029   0.683   2.267  16.352  0.5381 -1.4302 -2.3663
  151DOPC   O2118030   0.853   2.380  16.294 -0.0604  0.4731 -0.1425
  151DOPC   C2118031   0.927   2.270  16.271 -0.1305 -0.6439 -1.0007
  151DOPC   O2218032   0.888   2.158  16.253  0.1692  0.0875  0.2045
  151DOPC   C2218033   1.070   2.320  16.271 -0.6008  0.1197 -0.0661
  151DOPC   H2R18034   1.118   2.301  16.369 -1.8729 -1.4043  0.3074
  151DOPC   H2S18035   1.069   2.429  16.254  0.7231  0.1178 -0.2381
  151DOPC    C318036   0.666   2.329  16.137  0.0072  0.3669  0.1354
  151DOPC    HX18037   0.559   2.302  16.125  0.0068  1.1870 -2.2173
  151DOPC    HY18038   0.723   2.242  16.095  2.0425  0.5131  2.3866
  151DOPC   O3118039   0.701   2.429  16.047 -0.0356  0.1540 -0.3398
  151DOPC   C3118040   0.615   2.531  16.026 -0.2342  0.3311 -0.1953
  151DOPC   O3218041   0.505   2.542  16.073  0.1116  0.0319  0.3144
  151DOPC   C3218042   0.674   2.626  15.915 -0.4188  0.0980  0.1285
  151DOPC   H2X18043   0.652   2.732  15.938 -1.4963  0.0595 -0.6646
  151DOPC   H2Y18044   0.781   2.594  15.913  0.1083  1.6793  1.1164
  151DOPC   C2318045   1.163   2.259  16.159  0.0457 -0.0411  0.2455
  151DOPC   H3R18046   1.118   2.159  16.138 -1.7412  0.5687  0.9919
  151DOPC   H3S18047   1.261   2.242  16.208 -0.8316 -1.2934  1.6483
  151DOPC   C2418048   1.180   2.327  16.027 -0.5081  0.1295  0.7496
  151DOPC   H4R18049   1.228   2.260  15.953  0.5989  0.5012  1.1198
  151DOPC   H4S18050   1.248   2.412  16.050 -0.4179 -0.1387  1.4882
  151DOPC   C2518051   1.040   2.381  15.974 -1.0692  0.0079  0.1121
  151DOPC   H5R18052   0.988   2.445  16.048 -0.2149 -3.0291  3.6357
  151DOPC   H5S18053   0.968   2.296  15.968 -2.0128  0.8578 -1.0959
  151DOPC   C2618054   1.043   2.439  15.829  0.4229 -0.0210 -0.1848
  151DOPC   H6R18055   1.130   2.508  15.820  1.1685 -1.0687 -1.3195
  151DOPC   H6S18056   0.944   2.488  15.818 -0.4407 -1.7548 -0.4072
  151DOPC   C2718057   1.056   2.335  15.721 -0.0130  0.6544 -0.1204
  151DOPC   H7R18058   0.972   2.264  15.728  0.8073 -0.2933  0.3986
  151DOPC   H7S18059   1.147   2.275  15.742  0.5422  1.3443 -0.5176
  151DOPC   C2818060   1.061   2.392  15.583  0.2352  0.0546 -0.4417
  151DOPC   H8R18061   1.100   2.311  15.517 -0.0109 -1.3367  1.0522
  151DOPC   H8S18062   1.138   2.471  15.585  1.3598 -0.8851 -2.6637
  151DOPC   C2918063   0.932   2.455  15.535 -0.4253  0.5766 -0.3363
  151DOPC   H9R18064   0.856   2.472  15.612  2.2167  1.5762  2.2165
  151DOPC  C21018065   0.913   2.491  15.406 -0.4956 -0.1684  0.2467
  151DOPC  H10R18066   0.824   2.551  15.383 -0.4616 -0.4175 -0.5619
  151DOPC  C21118067   1.008   2.479  15.290  0.9025 -0.3047 -0.8727
  151DOPC  H11R18068   1.071   2.390  15.309  0.6270  0.1418  2.7451
  151DOPC  H11S18069   1.073   2.570  15.288  0.7508 -0.0609  1.8606
  151DOPC  C21218070   0.957   2.471  15.148 -0.0754  0.2816 -0.2349
  151DOPC  H12R18071   0.881   2.549  15.123 -0.4666 -0.0002  0.0502
  151DOPC  H12S18072   0.906   2.374  15.129  0.3409  0.0976 -0.4064
  151DOPC  C21318073   1.065   2.477  15.042 -0.3764  0.1442 -0.4155
  151DOPC  H13R18074   1.124   2.384  15.054 -0.1554  0.4054  0.6350
  151DOPC  H13S18075   1.127   2.567  15.063  0.6406 -0.5312 -0.4414
  151DOPC  C21418076   1.009   2.490  14.901 -0.5290 -0.4132 -0.3421
  151DOPC  H14R18077   0.935   2.573  14.898 -0.2892 -0.0907  1.3462
  151DOPC  H14S18078   0.965   2.392  14.874 -1.4437  0.3876 -1.9267
  151DOPC  C21518079   1.118   2.532  14.803  0.0988  0.0971  0.4301
  151DOPC  H15R18080   1.202   2.461  14.817  1.6653  2.0641  1.3963
  151DOPC  H15S18081   1.150   2.633  14.838 -0.8216 -0.1138  1.9943
  151DOPC  C21618082   1.067   2.568  14.669  0.6886  0.0150 -0.0457
  151DOPC  H16R18083   0.978   2.634  14.666  0.3277 -0.5056 -2.0410
  151DOPC  H16S18084   1.032   2.486  14.602  0.5883  0.9090 -1.1135
  151DOPC  C21718085   1.173   2.638  14.590 -0.8439  0.0316  0.1599
  151DOPC  H17R18086   1.264   2.575  14.589 -1.1084 -0.3543 -1.1844
  151DOPC  H17S18087   1.211   2.731  14.639  1.6195 -0.5930 -0.4103
  151DOPC  C21818088   1.136   2.674  14.449 -0.1067  0.1030 -0.7844
  151DOPC  H18R18089   1.109   2.580  14.397  1.2459 -0.5553 -0.3396
  151DOPC  H18S18090   1.226   2.712  14.397  0.3449  0.0413 -0.0521
  151DOPC  H18T18091   1.052   2.747  14.449 -1.1960 -0.9977  1.8518
  151DOPC   C3318092   0.614   2.599  15.775 -0.0293 -0.4002  0.6345
  151DOPC   H3X18093   0.505   2.622  15.774  0.1767  0.7664 -1.5497
  151DOPC   H3Y18094   0.634   2.496  15.738  2.6481  0.0156  0.7457
  151DOPC   C3418095   0.671   2.702  15.666  0.4346  0.4754 -0.6245
  151DOPC   H4X18096   0.780   2.682  15.672  0.2259 -0.5077  0.3877
  151DOPC   H4Y18097   0.650   2.800  15.714  0.7394  0.2976 -0.1197
  151DOPC   C3518098   0.614   2.695  15.523  0.5460 -0.5210  0.1900
  151DOPC   H5X18099   0.507   2.721  15.529  0.9443  1.3403 -0.3189
  151DOPC   H5Y18100   0.621   2.596  15.473  0.6460  0.6081 -2.1832
  151DOPC   C3618101   0.682   2.801  15.439 -0.6394  0.9013 -0.1197
  151DOPC   H6X18102   0.658   2.898  15.488  0.1711  1.7617 -1.3410
  151DOPC   H6Y18103   0.792   2.786  15.444 -0.7363  0.6665  2.0595
  151DOPC   C3718104   0.633   2.811  15.299  0.1350 -0.6559  0.4409
  151DOPC   H7X18105   0.619   2.706  15.265 -0.6223  0.0458 -1.5751
  151DOPC   H7Y18106   0.536   2.864  15.293  0.7715  0.5656  0.5919
  151DOPC   C3818107   0.740   2.886  15.214  1.5302  0.0486 -0.1052
  151DOPC   H8X18108   0.829   2.820  15.204 -0.4416 -2.5317 -2.3487
  151DOPC   H8Y18109   0.776   2.981  15.259 -1.4652  1.4166 -0.3813
  151DOPC   C3918110   0.667   2.908  15.075  0.9518 -0.5303 -0.4561
  151DOPC   H9X18111   0.563   2.944  15.078  0.6978 -1.1948 -1.1063
  151DOPC  C31018112   0.719   2.904  14.951  0.3851 -0.0772  0.2780
  151DOPC  H10X18113   0.652   2.935  14.870  0.3525 -1.4393 -0.2383
  151DOPC  C31118114   0.855   2.864  14.912  0.2932  0.2654  0.0891
  151DOPC  H11X18115   0.840   2.776  14.846  0.9755  0.6583 -0.6121
  151DOPC  H11Y18116   0.922   2.832  14.994  1.9132 -0.7705 -1.5414
  151DOPC  C31218117   0.928   2.969  14.828 -0.2717  0.1130  0.3832
  151DOPC  H12X18118   1.019   2.925  14.783  0.8772  1.5975  1.1757
  151DOPC  H12Y18119   0.962   3.053  14.893  0.6579  1.6594 -1.9663
  151DOPC  C31318120   0.850   3.019  14.714 -0.3175 -0.1240 -0.2388
  151DOPC  H13X18121   0.755   3.067  14.746 -0.1715  1.2440 -1.6698
  151DOPC  H13Y18122   0.898   3.107  14.666 -1.2653  0.0373 -0.9336
  151DOPC  C31418123   0.815   2.918  14.602 -0.0512  0.3999  0.1930
  151DOPC  H14X18124   0.910   2.882  14.557 -0.8069  0.8718 -1.8907
  151DOPC  H14Y18125   0.761   2.838  14.657  0.5223  0.7751  1.3307
  151DOPC  C31518126   0.724   2.967  14.495 -0.5102  0.0626  0.4691
  151DOPC  H15X18127   0.768   3.047  14.432 -0.8991  0.6308  0.9066
  151DOPC  H15Y18128   0.635   3.019  14.538  0.0564  2.4510 -1.0617
  151DOPC  C31618129   0.674   2.862  14.399 -0.4843  0.2753  0.2061
  151DOPC  H16X18130   0.754   2.792  14.368 -0.7154  0.7419 -1.5561
  151DOPC  H16Y18131   0.601   2.805  14.460 -0.7859 -0.3494 -0.7070
  151DOPC  C31718132   0.611   2.924  14.270  0.3753  0.2744  0.4650
  151DOPC  H17X18133   0.545   3.005  14.308 -0.9496 -0.4564 -0.2067
  151DOPC  H17Y18134   0.681   2.973  14.199 -1.1539 -0.3478 -1.5686
  151DOPC  C31818135   0.519   2.826  14.194  0.2492 -0.1356  1.3053
  151DOPC  H18X18136   0.428   2.805  14.255  0.6752  2.0711  2.8185
  151DOPC  H18Y18137   0.490   2.871  14.097  1.5743 -1.3208  0.3238
  151DOPC  H18Z18138   0.573   2.734  14.163 -0.6931 -0.2308 -0.0974
  152DOPC     N18139   3.750   1.300  17.243 -0.1133 -0.2169  0.0994
  152DOPC   C1218140   3.898   1.286  17.205 -0.2375 -0.0567  0.5849
  152DOPC  H12A18141   3.949   1.380  17.222 -1.2004  0.9165 -1.5034
  152DOPC  H12B18142   3.909   1.262  17.100  1.9361  0.1003  0.7332
  152DOPC   C1318143   3.686   1.164  17.225  0.2562  0.3503  0.4364
  152DOPC  H13A18144   3.685   1.122  17.125  0.4586  0.7543  0.2623
  152DOPC  H13B18145   3.734   1.086  17.282 -0.6697  0.1980  1.0211
  152DOPC  H13C18146   3.584   1.171  17.258 -0.6159 -1.4529 -1.6187
  152DOPC   C1418147   3.686   1.394  17.145  0.0117 -0.8208  0.2059
  152DOPC  H14A18148   3.705   1.366  17.042 -0.0574  0.0180 -0.0444
  152DOPC  H14B18149   3.580   1.384  17.162  0.0046 -1.3052 -0.1000
  152DOPC  H14C18150   3.731   1.492  17.152  0.1323 -0.6648 -2.0527
  152DOPC   C1518151   3.735   1.336  17.389  0.6640 -0.3052  0.7227
  152DOPC  H15A18152   3.782   1.431  17.407  0.1201 -0.3357  2.5532
  152DOPC  H15B18153   3.768   1.258  17.457  0.5652 -0.8478  0.1594
  152DOPC  H15C18154   3.631   1.344  17.416  0.3809 -3.4503  1.0399
  152DOPC   C1118155   3.969   1.175  17.277 -0.4637  0.0261 -0.4606
  152DOPC  H11A18156   4.079   1.193  17.270 -0.0386 -1.8080  0.8426
  152DOPC  H11B18157   3.959   1.178  17.388  0.2835  1.1172 -0.4097
  152DOPC     P18158   3.956   0.981  17.093  0.0469  0.4552 -0.1090
  152DOPC   O1318159   3.882   0.855  17.092  0.4175 -0.1330 -0.1335
  152DOPC   O1418160   4.101   0.967  17.066  0.0950  0.2656 -0.1931
  152DOPC   O1218161   3.945   1.040  17.239  0.0741 -0.1390 -0.3221
  152DOPC   O1118162   3.876   1.073  16.991  0.2037  0.3795  0.2077
  152DOPC    C118163   3.930   1.126  16.873 -0.2403  0.0797 -0.3383
  152DOPC    HA18164   4.041   1.129  16.881 -0.2142 -2.3708  1.1631
  152DOPC    HB18165   3.905   1.234  16.870  1.4532  0.4947 -1.2446
  152DOPC    C218166   3.893   1.063  16.737  0.1668  0.7451  0.5258
  152DOPC    HS18167   3.785   1.082  16.723  0.7644  2.5176 -2.5145
  152DOPC   O2118168   3.910   0.923  16.754 -0.4919  0.0391  0.4401
  152DOPC   C2118169   3.866   0.842  16.663 -0.3004  0.0570  0.0754
  152DOPC   O2218170   3.818   0.879  16.558  1.0160 -0.7339  0.5243
  152DOPC   C2218171   3.891   0.695  16.693  0.7962 -0.0612  0.0550
  152DOPC   H2R18172   3.789   0.649  16.695  0.5352  0.4923 -0.4786
  152DOPC   H2S18173   3.924   0.689  16.799 -0.2535 -2.9195  0.3166
  152DOPC    C318174   3.992   1.120  16.626 -0.1302  0.4334 -0.0366
  152DOPC    HX18175   3.956   1.085  16.527 -0.4598  1.5844 -0.3343
  152DOPC    HY18176   4.086   1.062  16.638  0.0569  0.6023 -0.6935
  152DOPC   O3118177   4.024   1.253  16.625  0.0588  0.5104 -0.2731
  152DOPC   C3118178   3.925   1.331  16.577  0.3049 -0.0884 -0.8069
  152DOPC   O3218179   3.814   1.291  16.547  0.1004  0.5535 -0.6323
  152DOPC   C3218180   3.980   1.471  16.562  0.4290  0.8552 -0.4798
  152DOPC   H2X18181   3.972   1.521  16.661  0.2066  1.2795 -0.7132
  152DOPC   H2Y18182   4.088   1.456  16.540  0.4251 -1.0338  0.5132
  152DOPC   C2318183   4.000   0.629  16.601 -0.1135  0.2352 -0.2217
  152DOPC   H3R18184   3.999   0.526  16.642  0.6821  0.2478 -0.1613
  152DOPC   H3S18185   4.095   0.686  16.603 -0.8680  1.5651 -0.8961
  152DOPC   C2418186   3.959   0.621  16.451 -0.2984 -0.2887  0.6938
  152DOPC   H4R18187   3.941   0.722  16.407 -2.4120 -1.2848 -0.9001
  152DOPC   H4S18188   3.871   0.554  16.444 -1.0645  0.8988 -3.4188
  152DOPC   C2518189   4.069   0.548  16.371  0.5799 -0.2009 -0.1150
  152DOPC   H5R18190   4.092   0.448  16.415 -1.4165 -0.0387  1.4407
  152DOPC   H5S18191   4.165   0.604  16.378  1.1574 -1.3271  2.1685
  152DOPC   C2618192   4.036   0.526  16.228  0.4747  0.5448  0.4011
  152DOPC   H6R18193   3.954   0.451  16.220 -0.9164  2.1861 -1.8351
  152DOPC   H6S18194   4.120   0.467  16.186  0.3923 -1.1103  2.4212
  152DOPC   C2718195   4.008   0.647  16.138 -0.6815  0.4839 -0.8776
  152DOPC   H7R18196   4.078   0.731  16.159 -1.2205  0.5836  0.6803
  152DOPC   H7S18197   3.908   0.691  16.162 -1.2953 -0.0409 -2.3617
  152DOPC   C2818198   4.013   0.607  15.989  0.2794  0.6065  0.1383
  152DOPC   H8R18199   3.936   0.527  15.978  0.3608  0.3773  1.1803
  152DOPC   H8S18200   4.116   0.577  15.963 -0.6063 -1.3681 -1.3707
  152DOPC   C2918201   3.971   0.716  15.898  0.0606  0.2267 -0.1609
  152DOPC   H9R18202   3.887   0.771  15.943 -0.4231  0.7691 -1.6796
  152DOPC  C21018203   4.012   0.739  15.773 -0.6419  0.0166 -0.2441
  152DOPC  H10R18204   3.960   0.819  15.718  1.3559 -0.4210 -2.9563
  152DOPC  C21118205   4.115   0.660  15.701 -0.2914  0.1152 -0.0249
  152DOPC  H11R18206   4.121   0.550  15.713  0.4116  0.2094  0.6055
  152DOPC  H11S18207   4.208   0.700  15.747 -2.1134  2.0041  2.3562
  152DOPC  C21218208   4.130   0.702  15.558  0.0675  0.2505 -0.1076
  152DOPC  H12R18209   4.218   0.657  15.507  0.3349  1.8318 -1.1059
  152DOPC  H12S18210   4.134   0.813  15.552  0.8583  0.2602  0.3624
  152DOPC  C21318211   4.013   0.656  15.473  0.9001  0.6210 -0.5189
  152DOPC  H13R18212   3.920   0.709  15.504  0.7265  0.1165 -0.1670
  152DOPC  H13S18213   4.004   0.549  15.501  3.2699 -0.0939 -2.1890
  152DOPC  C21418214   4.013   0.675  15.319  0.5729  0.2886  0.4874
  152DOPC  H14R18215   3.924   0.614  15.289 -1.9225  3.3173  1.1600
  152DOPC  H14S18216   4.100   0.629  15.268 -0.4191  0.3896 -1.4189
  152DOPC  C21518217   3.983   0.819  15.267 -0.3751 -0.4129 -0.0060
  152DOPC  H15R18218   4.064   0.887  15.299 -0.4622 -0.3425  0.0644
  152DOPC  H15S18219   3.888   0.850  15.315  1.4947  1.3420  2.8191
  152DOPC  C21618220   3.977   0.816  15.113  0.2226  0.0355  0.1503
  152DOPC  H16R18221   4.082   0.796  15.084  0.2282 -0.3476  0.4144
  152DOPC  H16S18222   3.952   0.923  15.097 -1.5474 -0.2465  0.7403
  152DOPC  C21718223   3.863   0.738  15.051  0.5207 -0.0312 -0.1257
  152DOPC  H17R18224   3.777   0.744  15.121 -1.0169  0.9373 -2.0054
  152DOPC  H17S18225   3.894   0.631  15.047  0.0074 -0.1520 -1.2818
  152DOPC  C21818226   3.824   0.794  14.913  0.0869 -0.0906  0.5478
  152DOPC  H18R18227   3.804   0.903  14.925  1.6594  0.1255  1.5253
  152DOPC  H18S18228   3.734   0.749  14.867  0.0627  0.4684  0.0339
  152DOPC  H18T18229   3.915   0.781  14.852  0.2866 -0.5281  0.9281
  152DOPC   C3318230   3.916   1.563  16.456 -0.2070  0.7431  0.4249
  152DOPC   H3X18231   3.973   1.658  16.453 -1.1865  1.3387 -1.9612
  152DOPC   H3Y18232   3.812   1.587  16.487  0.1590  1.6487  0.9879
  152DOPC   C3418233   3.905   1.498  16.310 -0.6939 -0.3555 -1.0301
  152DOPC   H4X18234   3.843   1.576  16.259 -1.9437 -2.0107 -2.1814
  152DOPC   H4Y18235   3.839   1.410  16.328  0.6487 -1.5645 -1.8361
  152DOPC   C3518236   4.036   1.451  16.244  0.0314 -0.2853 -0.0367
  152DOPC   H5X18237   4.004   1.409  16.147 -1.8751  0.3155  0.2856
  152DOPC   H5Y18238   4.092   1.364  16.284  2.4527  0.8183 -0.8146
  152DOPC   C3618239   4.137   1.563  16.228 -0.7168  0.8182 -0.2826
  152DOPC   H6X18240   4.087   1.649  16.179 -0.7828  0.0060 -1.7180
  152DOPC   H6Y18241   4.169   1.603  16.326 -1.0009  1.6891 -0.5392
  152DOPC   C3718242   4.248   1.523  16.127 -0.3942 -0.9287 -0.1438
  152DOPC   H7X18243   4.311   1.442  16.171 -2.0643 -0.5166  3.3922
  152DOPC   H7Y18244   4.204   1.483  16.034 -0.4130 -0.3059 -0.4075
  152DOPC   C3818245   4.338   1.642  16.094  0.7040  0.4269  0.2950
  152DOPC   H8X18246   4.426   1.604  16.038  0.9197  1.8703 -0.3919
  152DOPC   H8Y18247   4.370   1.688  16.190 -0.7848  0.6873  0.6899
  152DOPC   C3918248   4.270   1.745  16.007  0.1581 -0.1769  0.2056
  152DOPC   H9X18249   4.235   1.834  16.062 -0.0362 -1.1885  1.7853
  152DOPC  C31018250   4.237   1.728  15.878 -0.7827  0.0818  0.5034
  152DOPC  H10X18251   4.194   1.810  15.819  1.3652 -1.0773 -2.9731
  152DOPC  C31118252   4.277   1.611  15.798 -0.8541  0.5514 -0.5429
  152DOPC  H11X18253   4.187   1.549  15.778  0.1357 -0.2740 -2.6839
  152DOPC  H11Y18254   4.355   1.550  15.848 -0.3615  0.9092 -0.8781
  152DOPC  C31218255   4.338   1.643  15.661  0.8403  0.6138  0.1022
  152DOPC  H12X18256   4.413   1.722  15.679  1.2747  0.5098 -1.1809
  152DOPC  H12Y18257   4.259   1.676  15.590  2.5503 -1.0597 -2.7466
  152DOPC  C31318258   4.412   1.520  15.606  0.2241 -0.3148 -0.0198
  152DOPC  H13X18259   4.491   1.486  15.676  0.5371 -0.2285 -0.3273
  152DOPC  H13Y18260   4.336   1.441  15.590 -2.1748  1.0228  3.4661
  152DOPC  C31418261   4.480   1.564  15.465  0.1703  0.1458  0.3093
  152DOPC  H14X18262   4.547   1.647  15.494 -1.4368  0.7178  2.7242
  152DOPC  H14Y18263   4.537   1.472  15.441 -1.7705 -1.4601  1.4495
  152DOPC  C31518264   4.392   1.608  15.347  0.3095  0.2209 -0.2858
  152DOPC  H15X18265   4.356   1.712  15.365  0.2549  0.3962 -1.3245
  152DOPC  H15Y18266   4.315   1.531  15.325  0.6374 -0.8314  1.9509
  152DOPC  C31618267   4.481   1.604  15.222  0.1268  0.3704  0.8671
  152DOPC  H16X18268   4.556   1.685  15.235  1.2454 -0.5941  0.6700
  152DOPC  H16Y18269   4.533   1.506  15.214  0.3534  0.5280  0.3824
  152DOPC  C31718270   4.415   1.639  15.090 -0.2560 -0.8411 -0.7230
  152DOPC  H17X18271   4.308   1.607  15.091 -0.2819 -0.8294  1.7491
  152DOPC  H17Y18272   4.408   1.743  15.053  0.9400  0.1098  1.5445
  152DOPC  C31818273   4.464   1.552  14.981 -0.6568 -0.0841 -0.1103
  152DOPC  H18X18274   4.410   1.576  14.887  0.5719  1.2704 -0.5027
  152DOPC  H18Y18275   4.572   1.570  14.959 -0.9838  2.2402  0.0081
  152DOPC  H18Z18276   4.440   1.447  15.008 -1.1834  0.6392  2.4926
  153DOPC     N18277   4.428   6.010  16.651 -0.5725  0.4613 -0.3087
  153DOPC   C1218278   4.535   5.932  16.723  0.1834  0.3734 -0.3593
  153DOPC  H12A18279   4.492   5.835  16.739 -0.3329  0.5515 -0.6547
  153DOPC  H12B18280   4.539   5.963  16.826 -0.3972 -2.7459  0.6801
  153DOPC   C1318281   4.298   5.982  16.722  0.6648 -0.7126 -0.3737
  153DOPC  H13A18282   4.307   6.019  16.823  1.9959  0.6325 -0.9488
  153DOPC  H13B18283   4.217   6.029  16.668  1.0613 -0.4413 -0.7406
  153DOPC  H13C18284   4.268   5.878  16.721 -2.0863 -0.0505  1.5395
  153DOPC   C1418285   4.405   5.958  16.515  0.3543  0.2800 -0.5982
  153DOPC  H14A18286   4.494   5.939  16.457  0.5645 -0.8421  0.0770
  153DOPC  H14B18287   4.366   5.858  16.527  0.7254  0.1595 -0.3919
  153DOPC  H14C18288   4.339   6.022  16.458  1.4314  0.9295 -1.1306
  153DOPC   C1518289   4.469   6.154  16.650  0.4574  0.2932  0.2129
  153DOPC  H15A18290   4.568   6.173  16.611  0.3555 -0.1971 -0.2988
  153DOPC  H15B18291   4.452   6.197  16.748 -0.6313 -0.0321  0.1846
  153DOPC  H15C18292   4.398   6.205  16.586 -0.2982  1.0245  1.5947
  153DOPC   C1118293   4.677   5.926  16.670  0.2092  0.0091  0.1078
  153DOPC  H11A18294   4.708   6.033  16.662  2.1035 -0.5702 -1.0435
  153DOPC  H11B18295   4.739   5.886  16.753 -0.4141  2.0584  1.6593
  153DOPC     P18296   4.685   5.696  16.542 -0.2025 -0.1518 -0.1845
  153DOPC   O1318297   4.547   5.643  16.532 -0.3934 -0.3785 -0.3814
  153DOPC   O1418298   4.772   5.645  16.654 -0.1119 -0.0806 -0.2512
  153DOPC   O1218299   4.685   5.857  16.548  0.3770  0.3595 -0.1918
  153DOPC   O1118300   4.759   5.663  16.409  0.0836  0.1161  0.0281
  153DOPC    C118301   4.886   5.706  16.357 -0.1624  0.2603 -0.2144
  153DOPC    HA18302   4.956   5.621  16.343 -0.4041  0.2081 -1.1223
  153DOPC    HB18303   4.930   5.782  16.425  2.6905 -0.6986 -0.8804
  153DOPC    C218304   4.869   5.778  16.220 -0.3324 -0.5551 -0.1265
  153DOPC    HS18305   4.831   5.882  16.223  1.3181  0.0644  0.7202
  153DOPC   O2118306   4.797   5.696  16.129  0.0659 -0.5483 -0.2931
  153DOPC   C2118307   4.658   5.731  16.128 -0.5690  0.4292  0.6767
  153DOPC   O2218308   4.608   5.818  16.193 -0.2637  0.1004  0.2335
  153DOPC   C2218309   4.590   5.632  16.042 -0.0969  0.5744  0.5324
  153DOPC   H2R18310   4.491   5.605  16.083 -0.2215 -2.6810 -1.5416
  153DOPC   H2S18311   4.647   5.537  16.039 -0.9327  0.0704 -1.4924
  153DOPC    C318312   5.010   5.805  16.168  0.4323 -0.3450 -0.2147
  153DOPC    HX18313   5.058   5.713  16.129 -2.0124 -1.7944  0.0314
  153DOPC    HY18314   5.065   5.837  16.259  0.5796 -1.5419  0.1316
  153DOPC   O3118315   5.014   5.903  16.059  0.3965  0.2825  0.0816
  153DOPC   C3118316   5.005   6.029  16.091  0.0995  0.0201  0.0064
  153DOPC   O3218317   4.992   6.082  16.197  0.0827 -0.0998 -0.0019
  153DOPC   C3218318   5.006   6.101  15.953 -0.1461  0.4168 -0.8805
  153DOPC   H2X18319   5.092   6.055  15.898  0.5380 -0.0325  0.5110
  153DOPC   H2Y18320   4.907   6.074  15.912 -0.6376 -0.0924  0.5904
  153DOPC   C2318321   4.565   5.688  15.897  0.2194 -0.3629 -1.2695
  153DOPC   H3R18322   4.508   5.782  15.916 -0.4826 -1.3409  2.0389
  153DOPC   H3S18323   4.505   5.618  15.836 -0.1554 -0.5046 -0.7480
  153DOPC   C2418324   4.698   5.712  15.827 -0.0107  0.2079  0.7206
  153DOPC   H4R18325   4.749   5.618  15.799  0.2342  0.7833 -0.8510
  153DOPC   H4S18326   4.766   5.771  15.893  0.0511  1.5106 -0.4566
  153DOPC   C2518327   4.687   5.799  15.700 -0.1664 -0.0552  0.0699
  153DOPC   H5R18328   4.658   5.903  15.729 -0.0685  0.5751 -1.9179
  153DOPC   H5S18329   4.602   5.770  15.635  0.6210  2.0164 -2.0500
  153DOPC   C2618330   4.815   5.809  15.617  0.8615  0.6155  0.1742
  153DOPC   H6R18331   4.839   5.704  15.587 -0.0853  0.1070  1.1317
  153DOPC   H6S18332   4.906   5.845  15.669  2.6851 -2.2769 -0.7426
  153DOPC   C2718333   4.794   5.881  15.484 -0.1916 -0.3618  0.8773
  153DOPC   H7R18334   4.755   5.985  15.496 -1.0309 -0.3665 -1.4986
  153DOPC   H7S18335   4.719   5.827  15.424 -0.6594  0.8329  0.3457
  153DOPC   C2818336   4.930   5.883  15.404  0.0168  0.4824 -0.2452
  153DOPC   H8R18337   4.979   5.783  15.409 -0.3657  0.1525 -2.3658
  153DOPC   H8S18338   4.996   5.946  15.468  0.6426 -1.3432  0.9959
  153DOPC   C2918339   4.912   5.941  15.269 -0.3943 -0.7930 -0.3760
  153DOPC   H9R18340   4.868   6.041  15.254  0.6347 -0.4217 -1.0511
  153DOPC  C21018341   4.937   5.867  15.158  0.5687  0.2549 -0.3116
  153DOPC  H10R18342   4.911   5.917  15.064 -4.5108 -0.6780  0.3003
  153DOPC  C21118343   4.999   5.733  15.139 -0.4377 -0.2425 -0.4764
  153DOPC  H11R18344   4.934   5.652  15.178  0.6854 -1.0383 -0.2253
  153DOPC  H11S18345   5.094   5.721  15.195  0.7354 -2.5922 -2.7819
  153DOPC  C21218346   5.027   5.700  14.993 -0.5019  0.1343  0.3361
  153DOPC  H12R18347   4.935   5.686  14.933  0.7901 -0.8208 -1.5042
  153DOPC  H12S18348   5.089   5.610  14.973 -0.7666  0.4266 -2.1108
  153DOPC  C21318349   5.108   5.812  14.916 -0.0291  0.1666 -0.8337
  153DOPC  H13R18350   5.204   5.826  14.972  2.7259 -3.0656 -4.2155
  153DOPC  H13S18351   5.056   5.909  14.904  0.4135  0.1822 -3.0958
  153DOPC  C21418352   5.156   5.769  14.774 -0.6389 -0.1306  0.0966
  153DOPC  H14R18353   5.221   5.680  14.788  0.9120  0.9903  0.2702
  153DOPC  H14S18354   5.217   5.856  14.742 -0.6760 -0.1047  0.0968
  153DOPC  C21518355   5.042   5.759  14.671  0.6564 -0.8734 -0.3098
  153DOPC  H15R18356   4.998   5.860  14.660  1.1941 -0.6917 -0.8417
  153DOPC  H15S18357   4.968   5.681  14.700 -0.4913 -0.2179 -1.3855
  153DOPC  C21618358   5.082   5.717  14.527 -0.2693 -0.5746  0.2318
  153DOPC  H16R18359   5.154   5.795  14.493 -0.9394 -0.4874 -1.0355
  153DOPC  H16S18360   5.002   5.725  14.451  1.6335  0.8077 -1.7459
  153DOPC  C21718361   5.152   5.576  14.527  0.5376 -0.0113  0.3364
  153DOPC  H17R18362   5.073   5.507  14.562 -0.3354  0.0998 -1.3346
  153DOPC  H17S18363   5.241   5.568  14.594 -0.3931 -3.5832  1.3661
  153DOPC  C21818364   5.195   5.543  14.383 -0.5368  0.3163  0.2771
  153DOPC  H18R18365   5.252   5.447  14.381 -1.3713 -0.2577 -3.2340
  153DOPC  H18S18366   5.267   5.623  14.355 -0.9385  0.7659  0.5191
  153DOPC  H18T18367   5.103   5.548  14.321 -0.1437  0.3543 -0.3070
  153DOPC   C3318368   5.015   6.253  15.974 -0.9026  1.0552  0.5281
  153DOPC   H3X18369   5.079   6.281  16.060 -0.2313  0.3076  0.2822
  153DOPC   H3Y18370   4.912   6.286  15.999 -1.2517  0.3701  0.0411
  153DOPC   C3418371   5.052   6.327  15.845 -0.2528  0.5027 -0.0197
  153DOPC   H4X18372   5.156   6.316  15.809  0.1611 -0.8446  1.5065
  153DOPC   H4Y18373   5.031   6.433  15.871  1.5418  0.9216 -0.1452
  153DOPC   C3518374   4.971   6.281  15.724  0.3176 -0.0311  0.7051
  153DOPC   H5X18375   4.862   6.283  15.748  0.2674 -1.5134  0.7072
  153DOPC   H5Y18376   4.995   6.176  15.696 -1.7455  0.2984 -2.9002
  153DOPC   C3618377   4.987   6.379  15.609 -0.3970 -0.0159  0.1282
  153DOPC   H6X18378   4.954   6.476  15.651  0.6548 -0.2944  1.7087
  153DOPC   H6Y18379   5.096   6.384  15.587 -0.1191  0.3005  1.4756
  153DOPC   C3718380   4.900   6.333  15.493 -0.3296 -0.3540  0.0727
  153DOPC   H7X18381   4.923   6.235  15.448 -0.7512  0.5314 -2.2097
  153DOPC   H7Y18382   4.800   6.314  15.538 -1.1985  0.6289 -1.3374
  153DOPC   C3818383   4.889   6.437  15.376  0.3193  0.5919 -0.8153
  153DOPC   H8X18384   4.827   6.523  15.411 -1.7920 -0.4737 -1.7428
  153DOPC   H8Y18385   4.830   6.399  15.290  0.7724 -0.5415 -0.6514
  153DOPC   C3918386   5.008   6.507  15.320 -0.0364 -0.4559 -0.0061
  153DOPC   H9X18387   5.103   6.481  15.369 -0.2977  0.0279  0.7714
  153DOPC  C31018388   5.005   6.593  15.218  0.4817 -0.3491  0.3416
  153DOPC  H10X18389   5.103   6.638  15.195  0.7243 -0.6289  0.7846
  153DOPC  C31118390   4.885   6.650  15.143 -0.0929  0.1086 -0.0396
  153DOPC  H11X18391   4.883   6.758  15.171  0.6871  0.3155 -0.7406
  153DOPC  H11Y18392   4.785   6.610  15.168 -0.2305  0.5798  0.1782
  153DOPC  C31218393   4.912   6.643  14.991 -0.0256  0.2945 -0.4252
  153DOPC  H12X18394   4.930   6.539  14.958 -1.1377  0.4680 -1.6394
  153DOPC  H12Y18395   5.009   6.694  14.973 -0.7062  2.6525  1.8378
  153DOPC  C31318396   4.819   6.704  14.888 -0.0033 -0.4619  0.6112
  153DOPC  H13X18397   4.717   6.660  14.889  0.7616 -2.3079  1.3717
  153DOPC  H13Y18398   4.811   6.812  14.912  0.3495 -0.4874  0.8672
  153DOPC  C31418399   4.879   6.714  14.740  0.3450 -0.3422  0.2855
  153DOPC  H14X18400   4.973   6.772  14.745 -0.1486  1.0401 -3.2586
  153DOPC  H14Y18401   4.890   6.612  14.696 -4.8383 -0.5678 -1.1626
  153DOPC  C31518402   4.786   6.790  14.640 -0.3425  0.5772  0.0560
  153DOPC  H15X18403   4.758   6.887  14.685 -0.7513  1.3489 -1.8036
  153DOPC  H15Y18404   4.691   6.734  14.633 -1.1961  2.1681 -1.9784
  153DOPC  C31618405   4.857   6.778  14.499 -0.4846  0.0188  0.5210
  153DOPC  H16X18406   4.938   6.854  14.491 -1.3619  0.8554 -0.9104
  153DOPC  H16Y18407   4.916   6.685  14.487  1.5653  1.4569 -1.3733
  153DOPC  C31718408   4.763   6.794  14.377 -0.4640 -0.3966 -0.0365
  153DOPC  H17X18409   4.817   6.811  14.281 -0.9072  2.3194  0.1144
  153DOPC  H17Y18410   4.703   6.701  14.367 -0.0000 -0.6232 -0.7923
  153DOPC  C31818411   4.662   6.907  14.398  0.0939  0.0829 -0.9147
  153DOPC  H18X18412   4.585   6.901  14.318 -1.0164  1.3629 -0.0037
  153DOPC  H18Y18413   4.601   6.891  14.490 -2.1493 -1.1094 -2.5223
  153DOPC  H18Z18414   4.709   7.008  14.399 -3.0145  1.6839 -0.4980
  154DOPC     N18415   5.376   2.905  16.610 -0.6391  0.6320  0.1079
  154DOPC   C1218416   5.246   2.832  16.562 -0.2135 -0.8323 -0.7550
  154DOPC  H12A18417   5.203   2.778  16.645 -3.1069 -1.0110 -2.2610
  154DOPC  H12B18418   5.258   2.753  16.489 -1.4283 -0.0315 -1.8721
  154DOPC   C1318419   5.344   2.994  16.725 -0.0933 -0.3699  0.1955
  154DOPC  H13A18420   5.422   3.068  16.739 -2.4728  2.1177  1.0504
  154DOPC  H13B18421   5.252   3.046  16.702 -0.7468 -1.1538  1.0013
  154DOPC  H13C18422   5.332   2.937  16.815  0.9282 -2.3581 -0.8629
  154DOPC   C1418423   5.413   2.998  16.499 -0.2894  0.0461  0.5240
  154DOPC  H14A18424   5.414   2.949  16.403 -1.9969  1.2641 -0.1670
  154DOPC  H14B18425   5.342   3.078  16.484 -0.4729  0.1402  1.7464
  154DOPC  H14C18426   5.504   3.051  16.522  2.6932 -3.8623 -1.2946
  154DOPC   C1518427   5.478   2.801  16.637 -0.1890  0.4407  0.3823
  154DOPC  H15A18428   5.507   2.756  16.543  0.6748  3.1152 -0.7117
  154DOPC  H15B18429   5.439   2.729  16.708  3.1489 -1.5561  0.3955
  154DOPC  H15C18430   5.560   2.854  16.683  0.6829 -1.4784  1.1774
  154DOPC   C1118431   5.127   2.916  16.503  0.3564  0.9429  0.0296
  154DOPC  H11A18432   5.146   2.938  16.396 -0.0541 -1.8585 -0.7008
  154DOPC  H11B18433   5.046   2.840  16.502  1.1631 -0.0444 -3.1433
  154DOPC     P18434   5.015   3.154  16.511  0.2215 -0.0732  0.4360
  154DOPC   O1318435   5.060   3.273  16.582 -0.2985  0.2743 -0.0319
  154DOPC   O1418436   4.869   3.130  16.494  0.0811  0.6241  0.1362
  154DOPC   O1218437   5.077   3.024  16.577  0.4410 -0.0826 -0.0557
  154DOPC   O1118438   5.080   3.149  16.366 -0.1017 -0.2231  0.1158
  154DOPC    C118439   5.013   3.217  16.263  0.2548 -1.1714  0.1393
  154DOPC    HA18440   4.910   3.252  16.288  1.0193  1.1993  0.2100
  154DOPC    HB18441   5.008   3.149  16.176 -1.5810 -0.2462 -0.5527
  154DOPC    C218442   5.094   3.344  16.216  0.5432  0.2527 -0.1367
  154DOPC    HS18443   5.085   3.431  16.286 -0.7104 -0.5251  0.7213
  154DOPC   O2118444   5.043   3.376  16.079 -0.2639 -0.2268 -0.8132
  154DOPC   C2118445   5.071   3.499  16.046  0.1640  0.0606 -0.3265
  154DOPC   O2218446   5.113   3.589  16.109 -0.7260  0.3265 -0.3665
  154DOPC   C2218447   5.012   3.513  15.905  0.3125  0.3422  0.1792
  154DOPC   H2R18448   4.910   3.469  15.897  0.0702  1.0855 -1.1212
  154DOPC   H2S18449   5.068   3.450  15.833 -1.8570  0.0198 -1.3461
  154DOPC    C318450   5.251   3.322  16.214 -0.0570  0.3251  0.3851
  154DOPC    HX18451   5.278   3.299  16.320  1.6831  1.5235  0.2441
  154DOPC    HY18452   5.303   3.417  16.190 -0.7673  0.7250  0.4076
  154DOPC   O3118453   5.295   3.217  16.121 -0.6506 -0.0786 -0.0696
  154DOPC   C3118454   5.405   3.152  16.157  0.2283  0.2663 -0.1832
  154DOPC   O3218455   5.478   3.179  16.256  0.5612  0.2691  0.6294
  154DOPC   C3218456   5.461   3.065  16.043 -0.0747  0.2126  0.7663
  154DOPC   H2X18457   5.493   3.142  15.969  3.5504 -1.2093  0.6349
  154DOPC   H2Y18458   5.556   3.024  16.083 -0.8004 -1.0364  1.2758
  154DOPC   C2318459   4.998   3.658  15.848  1.2556  0.2151 -0.5399
  154DOPC   H3R18460   4.966   3.734  15.921 -0.6015 -0.3409 -0.7162
  154DOPC   H3S18461   4.936   3.651  15.756 -0.2594 -0.5065  0.4950
  154DOPC   C2418462   5.140   3.715  15.801  0.2872  0.6847  0.0585
  154DOPC   H4R18463   5.171   3.641  15.725  0.7913  0.1846  0.7358
  154DOPC   H4S18464   5.214   3.687  15.880 -0.3784 -0.6201  0.2322
  154DOPC   C2518465   5.161   3.852  15.749 -0.7772  0.0702  0.6648
  154DOPC   H5R18466   5.271   3.871  15.741  0.0349 -3.6426  1.2469
  154DOPC   H5S18467   5.118   3.925  15.821 -2.8426 -1.4606  1.0706
  154DOPC   C2618468   5.085   3.879  15.612  0.3144  0.1077  0.0221
  154DOPC   H6R18469   5.078   3.990  15.607 -0.4122  0.0790  0.2160
  154DOPC   H6S18470   4.978   3.851  15.621  1.0387 -3.4756 -1.0576
  154DOPC   C2718471   5.126   3.819  15.476 -0.0014 -0.5233 -0.7160
  154DOPC   H7R18472   5.082   3.717  15.480 -0.8976 -0.1027  1.4867
  154DOPC   H7S18473   5.237   3.814  15.468  0.3067  2.1004  0.7351
  154DOPC   C2818474   5.062   3.887  15.356  1.0352 -0.1783 -0.2941
  154DOPC   H8R18475   4.952   3.885  15.373  0.7353 -3.7524 -1.7083
  154DOPC   H8S18476   5.084   3.820  15.270  1.9398  1.6256 -1.5058
  154DOPC   C2918477   5.126   4.021  15.323 -0.4844  0.8009  0.7611
  154DOPC   H9R18478   5.122   4.087  15.410 -2.0610  0.7970  0.7191
  154DOPC  C21018479   5.176   4.066  15.201  0.4336 -0.7563  0.2132
  154DOPC  H10R18480   5.225   4.163  15.215 -0.9185  0.0333 -0.3117
  154DOPC  C21118481   5.175   4.005  15.063 -0.5817  0.6273 -0.4127
  154DOPC  H11R18482   5.163   4.083  14.984 -0.0575  0.5479 -0.5750
  154DOPC  H11S18483   5.104   3.920  15.055  1.8327 -1.4191 -1.9063
  154DOPC  C21218484   5.310   3.935  15.027  0.1933  0.1464  0.1887
  154DOPC  H12R18485   5.330   3.854  15.100 -0.5659 -0.2936 -0.0797
  154DOPC  H12S18486   5.383   4.019  15.038 -0.7543  1.0008  0.1159
  154DOPC  C21318487   5.322   3.872  14.886 -0.4792 -0.6169 -0.7598
  154DOPC  H13R18488   5.306   3.952  14.810  0.0550  0.6698  0.4329
  154DOPC  H13S18489   5.239   3.802  14.865 -2.5038  1.5865 -0.5005
  154DOPC  C21418490   5.457   3.809  14.852 -0.1422  0.9896 -0.0223
  154DOPC  H14R18491   5.471   3.722  14.920 -1.2426 -0.0476 -1.0778
  154DOPC  H14S18492   5.530   3.882  14.891 -0.8489 -0.0332  3.5432
  154DOPC  C21518493   5.483   3.776  14.708  0.0765  0.2473  0.5084
  154DOPC  H15R18494   5.585   3.732  14.704  0.6754  1.6180  0.1894
  154DOPC  H15S18495   5.471   3.871  14.652 -1.8853  0.1070  0.6255
  154DOPC  C21618496   5.374   3.688  14.644  0.3509  0.2430  0.1028
  154DOPC  H16R18497   5.278   3.740  14.626 -0.4045 -1.0928  0.1348
  154DOPC  H16S18498   5.338   3.602  14.704 -0.4650 -0.1592 -0.9249
  154DOPC  C21718499   5.403   3.639  14.503 -0.1702  0.4207  0.3120
  154DOPC  H17R18500   5.488   3.567  14.495 -0.1816  0.4428 -0.0248
  154DOPC  H17S18501   5.446   3.717  14.437 -0.3534 -0.4625 -0.8964
  154DOPC  C21818502   5.283   3.578  14.436 -0.1110 -0.0703 -0.2051
  154DOPC  H18R18503   5.222   3.508  14.498 -0.0828  0.7691  0.7853
  154DOPC  H18S18504   5.310   3.550  14.332  2.9503  1.0528  0.2134
  154DOPC  H18T18505   5.217   3.663  14.407  1.7571  1.0074 -1.4788
  154DOPC   C3318506   5.365   2.960  15.999  0.1527  0.5380  0.6140
  154DOPC   H3X18507   5.272   3.011  15.968 -0.5362 -0.3439  1.1812
  154DOPC   H3Y18508   5.335   2.896  16.085 -0.1979  1.2004  0.9925
  154DOPC   C3418509   5.421   2.875  15.879 -0.5414 -0.0192 -0.2158
  154DOPC   H4X18510   5.360   2.785  15.855  0.6627 -0.4437 -1.8750
  154DOPC   H4Y18511   5.520   2.848  15.921 -0.3166 -0.4910 -1.0351
  154DOPC   C3518512   5.431   2.963  15.754 -0.9322  0.1735 -0.8890
  154DOPC   H5X18513   5.489   3.056  15.773  1.0515 -0.8976 -1.4265
  154DOPC   H5Y18514   5.332   2.997  15.719  0.3324  0.6704 -4.3665
  154DOPC   C3618515   5.496   2.901  15.633 -0.0550 -0.7436 -0.7667
  154DOPC   H6X18516   5.592   2.862  15.673  0.1237  1.7854  1.5439
  154DOPC   H6Y18517   5.433   2.816  15.598 -0.4296 -0.0734 -1.7840
  154DOPC   C3718518   5.528   3.008  15.526  0.8084  0.3435  0.4432
  154DOPC   H7X18519   5.436   3.059  15.489  2.3544  0.6671 -3.3926
  154DOPC   H7Y18520   5.578   3.094  15.576  0.1724  0.0333  1.6732
  154DOPC   C3818521   5.599   2.962  15.404  0.3451 -0.0637 -0.4746
  154DOPC   H8X18522   5.670   2.887  15.445 -0.9974 -0.4247  1.3121
  154DOPC   H8Y18523   5.644   3.052  15.356 -1.7621  1.5287  0.3877
  154DOPC   C3918524   5.499   2.900  15.313 -0.2420  0.2970  0.1129
  154DOPC   H9X18525   5.459   2.811  15.363  2.1179 -1.0687 -0.2933
  154DOPC  C31018526   5.453   2.933  15.190 -0.1243 -0.0098  0.6737
  154DOPC  H10X18527   5.379   2.869  15.142  1.2589  0.0675 -1.7183
  154DOPC  C31118528   5.503   3.044  15.097  0.5148 -0.2497 -0.6460
  154DOPC  H11X18529   5.576   3.003  15.024 -0.5151 -2.9087 -0.2892
  154DOPC  H11Y18530   5.555   3.118  15.163 -1.5279  1.7108 -1.1144
  154DOPC  C31218531   5.381   3.109  15.027 -0.3971 -0.5150 -0.9551
  154DOPC  H12X18532   5.310   3.143  15.105 -1.0932  1.8455 -2.5241
  154DOPC  H12Y18533   5.323   3.032  14.972 -0.8951  1.5167 -3.4196
  154DOPC  C31318534   5.415   3.221  14.920 -0.8508 -0.2616 -0.4068
  154DOPC  H13X18535   5.325   3.281  14.895  0.0079  1.9384  1.5022
  154DOPC  H13Y18536   5.485   3.296  14.961  2.6155 -1.9257 -2.8032
  154DOPC  C31418537   5.490   3.164  14.800  0.0910  0.5839  0.7607
  154DOPC  H14X18538   5.586   3.112  14.824  0.6999  1.8216  1.0979
  154DOPC  H14Y18539   5.422   3.087  14.758 -1.1196  1.9836  0.0685
  154DOPC  C31518540   5.509   3.267  14.689  0.0221 -0.0836 -0.3439
  154DOPC  H15X18541   5.530   3.360  14.745 -0.7595 -1.9970  3.5334
  154DOPC  H15Y18542   5.408   3.276  14.643  0.2933 -0.9424 -1.1322
  154DOPC  C31618543   5.609   3.234  14.586  0.2365  0.6507  0.8746
  154DOPC  H16X18544   5.713   3.201  14.607 -0.3739 -2.7014 -0.6721
  154DOPC  H16Y18545   5.575   3.139  14.538  1.9289  0.0162  0.8668
  154DOPC  C31718546   5.619   3.338  14.466  0.0657  0.0115  0.0822
  154DOPC  H17X18547   5.515   3.355  14.432 -0.0723 -0.5242  0.2217
  154DOPC  H17Y18548   5.655   3.427  14.521  1.7286 -0.3725 -0.3068
  154DOPC  C31818549   5.719   3.312  14.359 -0.5170  0.5593  0.5808
  154DOPC  H18X18550   5.743   3.206  14.339 -2.6310  0.0772  0.3848
  154DOPC  H18Y18551   5.690   3.349  14.258 -0.0535 -0.8840 -0.1030
  154DOPC  H18Z18552   5.814   3.365  14.385  0.5436 -0.2831 -1.3876
  155DOPC     N18553   2.055   1.485  16.697  0.0356 -0.4226  0.3757
  155DOPC   C1218554   2.059   1.596  16.601 -0.4212  0.0335  0.5256
  155DOPC  H12A18555   2.001   1.680  16.636  0.6267  1.2284 -0.5076
  155DOPC  H12B18556   2.009   1.578  16.507 -0.2493 -0.8589  0.5954
  155DOPC   C1318557   1.916   1.426  16.699 -0.4958  0.4854 -0.9056
  155DOPC  H13A18558   1.883   1.399  16.600  0.5253  0.1504 -1.1731
  155DOPC  H13B18559   1.921   1.332  16.752  0.4754  0.8423 -0.3439
  155DOPC  H13C18560   1.857   1.497  16.755  1.4211  1.0722  0.4828
  155DOPC   C1418561   2.089   1.536  16.833  0.3394 -0.3245  0.4092
  155DOPC  H14A18562   2.183   1.588  16.846 -0.6349  0.7595  4.8685
  155DOPC  H14B18563   2.006   1.601  16.857 -1.4899 -0.4613 -4.4057
  155DOPC  H14C18564   2.110   1.461  16.908  2.3336 -0.5839 -0.3426
  155DOPC   C1518565   2.158   1.385  16.650  0.4197  0.2023 -0.3074
  155DOPC  H15A18566   2.131   1.341  16.556 -3.5855 -1.4479  1.3814
  155DOPC  H15B18567   2.160   1.298  16.714  1.2059 -2.1699 -3.3469
  155DOPC  H15C18568   2.258   1.421  16.633  0.1444  0.6359 -1.0365
  155DOPC   C1118569   2.204   1.647  16.560  1.0877 -0.2028 -0.1405
  155DOPC  H11A18570   2.252   1.568  16.499 -0.7665 -1.9361  0.5725
  155DOPC  H11B18571   2.200   1.734  16.490 -0.3695 -1.1498 -1.2906
  155DOPC     P18572   2.431   1.660  16.691 -0.1378 -0.1672  0.3854
  155DOPC   O1318573   2.455   1.529  16.757 -0.0768 -0.4028  0.3381
  155DOPC   O1418574   2.499   1.778  16.743 -0.3830 -0.7995  0.7783
  155DOPC   O1218575   2.277   1.684  16.676  0.2520 -0.5658 -0.4962
  155DOPC   O1118576   2.474   1.640  16.542  0.3693  0.2283  0.3355
  155DOPC    C118577   2.485   1.747  16.450  0.9349  0.4257 -0.1309
  155DOPC    HA18578   2.586   1.792  16.458  0.1294  2.2454  0.2304
  155DOPC    HB18579   2.406   1.824  16.462  0.9287  0.5811 -1.1040
  155DOPC    C218580   2.470   1.692  16.309 -0.2246  0.2700  0.1162
  155DOPC    HS18581   2.394   1.612  16.313  1.5499 -1.5343 -0.4918
  155DOPC   O2118582   2.600   1.641  16.279  0.1335 -0.3371 -0.3672
  155DOPC   C2118583   2.588   1.544  16.190  0.3682 -0.8014  0.0293
  155DOPC   O2218584   2.481   1.495  16.157  0.3924  0.6275 -0.3301
  155DOPC   C2218585   2.722   1.491  16.142 -0.5881  0.5174  0.1100
  155DOPC   H2R18586   2.710   1.386  16.107  1.4046 -0.3953  1.9374
  155DOPC   H2S18587   2.792   1.492  16.228 -1.6615 -0.7831  1.0362
  155DOPC    C318588   2.415   1.799  16.200  0.1691 -0.1855  0.1604
  155DOPC    HX18589   2.489   1.881  16.199 -1.2732  1.1587 -0.4178
  155DOPC    HY18590   2.326   1.846  16.246 -1.0242 -2.0302 -0.1442
  155DOPC   O3118591   2.389   1.738  16.073  0.0119 -0.1856  0.1004
  155DOPC   C3118592   2.277   1.673  16.054  0.0079 -1.1068 -1.0495
  155DOPC   O3218593   2.187   1.665  16.135 -0.1180 -0.5632  0.6797
  155DOPC   C3218594   2.270   1.609  15.915  0.2687  0.1589  0.5007
  155DOPC   H2X18595   2.331   1.668  15.843  1.0753  0.3998  1.3540
  155DOPC   H2Y18596   2.319   1.512  15.936 -1.1171 -0.4023  1.2564
  155DOPC   C2318597   2.783   1.561  16.018 -0.0270 -0.1392 -0.3721
  155DOPC   H3R18598   2.880   1.510  15.997 -0.3157 -0.3541 -1.2586
  155DOPC   H3S18599   2.814   1.666  16.037  0.3715 -0.0720 -1.3116
  155DOPC   C2418600   2.689   1.569  15.894  0.0797 -0.0235 -0.8924
  155DOPC   H4R18601   2.597   1.614  15.937 -0.1018 -1.4403  0.3075
  155DOPC   H4S18602   2.651   1.469  15.863  2.3043 -0.9675 -0.7526
  155DOPC   C2518603   2.734   1.645  15.774  0.0527  0.2132 -0.4056
  155DOPC   H5R18604   2.817   1.593  15.721 -0.6694 -2.0494  0.5313
  155DOPC   H5S18605   2.762   1.751  15.790  1.5509 -0.1012 -0.7802
  155DOPC   C2618606   2.622   1.650  15.668 -0.3818 -0.0901 -1.0987
  155DOPC   H6R18607   2.532   1.698  15.711  1.3645  3.2657 -0.8539
  155DOPC   H6S18608   2.583   1.552  15.631 -1.5839 -0.0845  0.0597
  155DOPC   C2718609   2.660   1.739  15.543 -0.8342 -0.4834 -0.0111
  155DOPC   H7R18610   2.701   1.834  15.584  0.4065 -0.3953 -1.3935
  155DOPC   H7S18611   2.568   1.765  15.486  0.6442  1.3900 -1.6469
  155DOPC   C2818612   2.747   1.654  15.451  0.5468 -0.3083 -0.3648
  155DOPC   H8R18613   2.797   1.578  15.515  1.0181 -0.2689 -0.6752
  155DOPC   H8S18614   2.820   1.728  15.411  2.4501 -1.8224  0.1253
  155DOPC   C2918615   2.674   1.580  15.340 -0.5015  0.1542 -0.3756
  155DOPC   H9R18616   2.640   1.478  15.361 -1.1840  0.4311 -0.0996
  155DOPC  C21018617   2.667   1.622  15.211  0.0055 -0.8955  0.2061
  155DOPC  H10R18618   2.605   1.570  15.137  0.7508  0.1091 -1.1665
  155DOPC  C21118619   2.721   1.757  15.168  0.6705 -0.4141  0.1273
  155DOPC  H11R18620   2.719   1.830  15.251 -3.1840  0.7734 -0.8351
  155DOPC  H11S18621   2.639   1.790  15.100  0.5368 -1.0398 -0.0214
  155DOPC  C21218622   2.862   1.751  15.102  0.8569  0.3913 -0.7930
  155DOPC  H12R18623   2.855   1.694  15.007 -2.3727 -0.8110  0.0124
  155DOPC  H12S18624   2.923   1.692  15.173 -0.4842  1.3911  1.3399
  155DOPC  C21318625   2.924   1.886  15.073  0.1679 -0.7309  0.5745
  155DOPC  H13R18626   2.899   1.958  15.153 -1.3349 -2.1547  1.4494
  155DOPC  H13S18627   2.875   1.930  14.984  0.9043 -1.8090 -0.3896
  155DOPC  C21418628   3.077   1.894  15.053  0.6764  0.2537 -0.0899
  155DOPC  H14R18629   3.105   1.810  14.986  3.2443 -0.4128  1.6796
  155DOPC  H14S18630   3.125   1.867  15.150  0.4555 -0.3511 -0.1393
  155DOPC  C21518631   3.122   2.034  15.007 -0.1129 -0.0269  0.1962
  155DOPC  H15R18632   3.114   2.097  15.098 -0.2536  0.5742 -0.2222
  155DOPC  H15S18633   3.050   2.089  14.942  1.0542  3.6580  1.7812
  155DOPC  C21618634   3.262   2.044  14.946 -0.1315  0.6974 -0.4043
  155DOPC  H16R18635   3.328   2.003  15.025  1.1079  2.2045 -0.6034
  155DOPC  H16S18636   3.278   2.152  14.923 -0.4712  1.0827  1.0498
  155DOPC  C21718637   3.294   1.958  14.827 -0.2317  0.3370  0.4504
  155DOPC  H17R18638   3.235   1.988  14.737  1.1678 -0.4943 -0.7968
  155DOPC  H17S18639   3.252   1.858  14.851 -0.0672 -0.2460 -1.4902
  155DOPC  C21818640   3.443   1.944  14.786 -0.8882  0.1911  0.1080
  155DOPC  H18R18641   3.493   2.041  14.807  0.3007 -0.8111  2.1401
  155DOPC  H18S18642   3.459   1.908  14.682  2.3319 -1.3188  1.0167
  155DOPC  H18T18643   3.494   1.867  14.847 -0.6020 -1.1944 -1.7681
  155DOPC   C3318644   2.122   1.582  15.875 -0.1932  0.1079 -0.2094
  155DOPC   H3X18645   2.065   1.677  15.865 -0.2766 -0.1100 -2.3682
  155DOPC   H3Y18646   2.073   1.533  15.961  2.8698  0.8245  2.1146
  155DOPC   C3418647   2.110   1.475  15.761 -0.6077  0.1421  0.2610
  155DOPC   H4X18648   2.004   1.466  15.728 -0.6349  1.5923 -0.1165
  155DOPC   H4Y18649   2.153   1.383  15.805 -0.5067 -0.3201 -0.7976
  155DOPC   C3518650   2.185   1.520  15.637 -0.1329 -0.1534  0.4273
  155DOPC   H5X18651   2.295   1.528  15.651  0.0783  0.6398 -1.3816
  155DOPC   H5Y18652   2.139   1.616  15.606  0.5131 -0.4553 -1.6332
  155DOPC   C3618653   2.171   1.431  15.512  0.7232 -0.2690  0.1597
  155DOPC   H6X18654   2.201   1.326  15.534 -1.8582 -0.7419  1.7993
  155DOPC   H6Y18655   2.063   1.421  15.489  0.7538 -0.4286  0.0895
  155DOPC   C3718656   2.232   1.488  15.382  0.4074  0.5554  0.4498
  155DOPC   H7X18657   2.195   1.592  15.381  0.3089  0.5410 -1.7404
  155DOPC   H7Y18658   2.341   1.471  15.390  0.3071 -0.0392  0.5951
  155DOPC   C3818659   2.176   1.438  15.247 -0.5348  0.1132 -0.3766
  155DOPC   H8X18660   2.066   1.448  15.249 -0.6928 -1.5767  0.7483
  155DOPC   H8Y18661   2.198   1.329  15.247 -0.2964  0.1277 -2.5585
  155DOPC   C3918662   2.249   1.517  15.133 -0.3157  0.4574 -0.4908
  155DOPC   H9X18663   2.239   1.625  15.151  2.0683  0.5217  0.7610
  155DOPC  C31018664   2.303   1.485  15.009  0.0185 -0.5166  0.0437
  155DOPC  H10X18665   2.350   1.568  14.954 -0.6128 -0.0252  0.2345
  155DOPC  C31118666   2.323   1.347  14.949  0.4812 -0.4282  0.2297
  155DOPC  H11X18667   2.316   1.266  15.025  1.7100  1.4984  2.5230
  155DOPC  H11Y18668   2.429   1.345  14.914  1.0542  1.2549  1.6949
  155DOPC  C31218669   2.226   1.324  14.839  0.8687  0.0534  0.3747
  155DOPC  H12X18670   2.124   1.341  14.880  1.4453  1.1612  1.4272
  155DOPC  H12Y18671   2.242   1.218  14.811  1.7317 -0.2379  1.8812
  155DOPC  C31318672   2.260   1.401  14.712  0.4877 -0.1158  0.6741
  155DOPC  H13X18673   2.259   1.510  14.733  0.9329  0.0352 -0.0447
  155DOPC  H13Y18674   2.365   1.368  14.692 -0.4353 -1.5905 -2.4241
  155DOPC  C31418675   2.163   1.377  14.585 -0.2485  0.2927 -0.1665
  155DOPC  H14X18676   2.188   1.274  14.552 -2.4478 -1.4162  2.9991
  155DOPC  H14Y18677   2.060   1.385  14.626  0.3690  1.0798  1.3086
  155DOPC  C31518678   2.186   1.474  14.465  0.2966 -0.7154  0.0872
  155DOPC  H15X18679   2.295   1.455  14.455  0.4367  0.2764 -0.3510
  155DOPC  H15Y18680   2.166   1.581  14.487 -0.0075 -0.2885 -2.0919
  155DOPC  C31618681   2.118   1.446  14.331 -0.7978  0.2043 -0.1964
  155DOPC  H16X18682   2.013   1.484  14.331  0.1866  3.3902 -2.2023
  155DOPC  H16Y18683   2.172   1.518  14.264  0.1843  0.9150  1.3015
  155DOPC  C31718684   2.112   1.303  14.272 -0.4279  0.1693 -0.0660
  155DOPC  H17X18685   2.205   1.253  14.305 -1.4006 -1.1067  0.8153
  155DOPC  H17Y18686   2.023   1.257  14.321  1.2354 -2.1393  0.9893
  155DOPC  C31818687   2.092   1.277  14.122 -0.3232  1.0512  1.2617
  155DOPC  H18X18688   2.002   1.332  14.086  1.3978  1.1349 -3.5247
  155DOPC  H18Y18689   2.182   1.313  14.068 -0.0163  0.2311  1.2202
  155DOPC  H18Z18690   2.079   1.171  14.093  1.4301  0.7013  1.6485
  156DOPC     N18691   4.147   4.614  17.174 -0.0986 -0.2247 -0.5111
  156DOPC   C1218692   4.213   4.739  17.113 -0.2013 -0.1367  0.2043
  156DOPC  H12A18693   4.271   4.787  17.191  1.9642 -0.3406 -1.1850
  156DOPC  H12B18694   4.139   4.810  17.078  1.9302  1.1805 -1.9470
  156DOPC   C1318695   4.259   4.545  17.248  0.0174 -0.0194 -0.0105
  156DOPC  H13A18696   4.332   4.512  17.175 -0.2933  1.1115 -0.8608
  156DOPC  H13B18697   4.305   4.614  17.318 -1.6645 -0.9833  2.1726
  156DOPC  H13C18698   4.216   4.464  17.305 -0.8149  0.3540 -0.0814
  156DOPC   C1418699   4.103   4.524  17.069  0.0422  0.0861 -0.0805
  156DOPC  H14A18700   4.004   4.554  17.037  0.2966 -0.1709 -1.1708
  156DOPC  H14B18701   4.169   4.543  16.986 -0.3442 -1.0806 -0.6825
  156DOPC  H14C18702   4.105   4.418  17.092 -1.0069 -0.1545 -0.9985
  156DOPC   C1518703   4.047   4.659  17.268  0.3313 -0.2046 -0.0384
  156DOPC  H15A18704   4.080   4.743  17.328 -2.8031  1.7008 -0.7562
  156DOPC  H15B18705   4.012   4.579  17.332 -0.1999 -2.2626 -2.7359
  156DOPC  H15C18706   3.956   4.687  17.218 -1.5263 -3.2289  1.3536
  156DOPC   C1118707   4.316   4.723  17.004 -0.6638  0.1367 -0.4718
  156DOPC  H11A18708   4.262   4.677  16.919 -4.3544  1.0177  1.1889
  156DOPC  H11B18709   4.353   4.824  16.976 -0.9497  1.2132  2.6396
  156DOPC     P18710   4.502   4.562  16.954 -0.3148 -0.2398 -0.1229
  156DOPC   O1318711   4.466   4.420  16.977 -0.5049  0.5411 -0.4505
  156DOPC   O1418712   4.644   4.606  16.953  0.5705 -0.1055  0.2259
  156DOPC   O1218713   4.437   4.658  17.048 -0.1688 -0.0062 -0.4150
  156DOPC   O1118714   4.458   4.594  16.806 -0.5378  0.0662  0.2020
  156DOPC    C118715   4.513   4.707  16.728 -0.1921 -0.5946  0.4727
  156DOPC    HA18716   4.603   4.672  16.672 -1.9199 -0.1147 -2.8436
  156DOPC    HB18717   4.529   4.798  16.789  0.6996 -0.5776  0.2277
  156DOPC    C218718   4.409   4.756  16.618 -0.5051 -0.6369  0.0477
  156DOPC    HS18719   4.317   4.802  16.661 -1.4708 -1.4234 -1.1275
  156DOPC   O2118720   4.370   4.639  16.542  0.2910 -0.3314 -0.4493
  156DOPC   C2118721   4.256   4.581  16.565  0.1630 -0.3030  0.3480
  156DOPC   O2218722   4.175   4.610  16.653 -0.1845  0.0358  0.8882
  156DOPC   C2218723   4.240   4.462  16.464 -1.2411  0.4725  0.2638
  156DOPC   H2R18724   4.304   4.378  16.498 -0.6323  1.1030  0.7134
  156DOPC   H2S18725   4.289   4.484  16.367  1.8544  0.5071  1.7011
  156DOPC    C318726   4.478   4.855  16.520 -0.0378  0.5570 -0.8691
  156DOPC    HX18727   4.559   4.794  16.475  0.2139  0.5827 -0.4540
  156DOPC    HY18728   4.536   4.930  16.577  0.3766 -0.3494 -0.0802
  156DOPC   O3118729   4.383   4.915  16.419  0.2049  0.4495 -0.7425
  156DOPC   C3118730   4.300   5.007  16.452  0.0837  0.1521 -0.2132
  156DOPC   O3218731   4.284   5.053  16.565  0.2200 -0.9867 -0.4621
  156DOPC   C3218732   4.215   5.062  16.339  0.5963  0.3227  0.0573
  156DOPC   H2X18733   4.233   4.999  16.250  0.5971 -1.2663  1.1441
  156DOPC   H2Y18734   4.109   5.043  16.366  1.4062 -0.1198  3.3943
  156DOPC   C2318735   4.101   4.414  16.439  0.4427  0.4076 -0.1044
  156DOPC   H3R18736   4.045   4.415  16.535 -1.9451 -2.5902 -1.2767
  156DOPC   H3S18737   4.098   4.309  16.404  3.4364 -1.1173  3.4911
  156DOPC   C2418738   4.012   4.501  16.344 -0.0872 -0.0917 -0.1731
  156DOPC   H4R18739   4.025   4.608  16.370  0.3918 -0.0886 -0.4175
  156DOPC   H4S18740   3.903   4.479  16.348  0.3199 -2.5686 -1.0500
  156DOPC   C2518741   4.061   4.493  16.205 -0.0640 -0.5403  0.4149
  156DOPC   H5R18742   4.065   4.388  16.171 -1.6286 -0.8459  1.1005
  156DOPC   H5S18743   4.167   4.527  16.198 -0.7250  2.2787  2.3158
  156DOPC   C2618744   3.979   4.571  16.102  0.0993  0.2239  0.7288
  156DOPC   H6R18745   3.999   4.673  16.140 -0.1796  0.5679 -0.0297
  156DOPC   H6S18746   3.869   4.557  16.098 -0.6394  4.7105 -0.1447
  156DOPC   C2718747   4.029   4.538  15.957 -0.5836 -0.6256  0.3098
  156DOPC   H7R18748   4.028   4.430  15.934  0.6486 -0.7124  0.5727
  156DOPC   H7S18749   4.137   4.567  15.954 -0.9826  1.2658  2.0561
  156DOPC   C2818750   3.950   4.617  15.851  0.3412 -0.1294  0.6149
  156DOPC   H8R18751   3.966   4.726  15.867 -2.7422  0.5421 -0.1988
  156DOPC   H8S18752   3.841   4.598  15.860  0.2298 -0.1925 -0.7264
  156DOPC   C2918753   4.001   4.579  15.715 -0.0533  1.0070  0.1058
  156DOPC   H9R18754   4.098   4.528  15.708 -0.2508  0.4127  1.4560
  156DOPC  C21018755   3.947   4.606  15.596 -0.6406 -0.5456  0.3414
  156DOPC  H10R18756   3.992   4.574  15.501  1.5212  4.1128 -0.5290
  156DOPC  C21118757   3.819   4.685  15.587  0.4274  0.2675 -0.0484
  156DOPC  H11R18758   3.773   4.703  15.686  0.6891 -2.5306  0.6674
  156DOPC  H11S18759   3.743   4.634  15.523  0.7633  0.0925 -0.3110
  156DOPC  C21218760   3.829   4.820  15.509 -0.9327 -0.3354  0.3532
  156DOPC  H12R18761   3.913   4.877  15.552 -2.2206  2.7782 -0.9968
  156DOPC  H12S18762   3.732   4.873  15.521 -1.0777 -0.1839 -1.2955
  156DOPC  C21318763   3.860   4.797  15.364  0.2947 -0.3132  0.6459
  156DOPC  H13R18764   3.807   4.711  15.317  0.6265 -0.7099  0.9902
  156DOPC  H13S18765   3.966   4.762  15.365 -0.0375 -1.5432 -1.3488
  156DOPC  C21418766   3.843   4.921  15.270 -0.1756  0.3879  0.2404
  156DOPC  H14R18767   3.911   5.006  15.292 -1.5490  1.0382  2.1891
  156DOPC  H14S18768   3.743   4.969  15.273 -0.1760  0.3576  0.7987
  156DOPC  C21518769   3.883   4.884  15.126  0.3305  0.3340  1.1272
  156DOPC  H15R18770   3.816   4.803  15.091  1.0187 -0.9370  2.5880
  156DOPC  H15S18771   3.983   4.835  15.129  0.3764  0.4342  1.2863
  156DOPC  C21618772   3.885   5.002  15.026 -0.6066 -0.2322  0.3279
  156DOPC  H16R18773   3.917   5.102  15.062  0.5178 -0.3744 -0.2203
  156DOPC  H16S18774   3.783   5.015  14.986  0.3947 -0.0147 -2.3627
  156DOPC  C21718775   3.974   4.974  14.902  0.1681  0.2190 -0.0280
  156DOPC  H17R18776   4.005   4.867  14.898  0.5732  0.3515 -0.5234
  156DOPC  H17S18777   4.067   5.029  14.926  0.4362 -0.0328 -0.4789
  156DOPC  C21818778   3.899   5.015  14.775 -0.7647 -0.1768 -0.3080
  156DOPC  H18R18779   3.853   5.114  14.798  1.7100  1.2208 -0.9592
  156DOPC  H18S18780   3.824   4.936  14.759  1.6018 -2.3095 -1.6360
  156DOPC  H18T18781   3.968   5.027  14.688  0.2540 -1.1804  0.3355
  156DOPC   C3318782   4.239   5.211  16.314  0.2602 -0.6116 -1.0306
  156DOPC   H3X18783   4.346   5.219  16.284  0.6639  2.5200  0.7817
  156DOPC   H3Y18784   4.230   5.277  16.403  1.0048  0.7829 -1.9358
  156DOPC   C3418785   4.155   5.269  16.206  0.0075  0.2191 -0.1961
  156DOPC   H4X18786   4.058   5.289  16.256  0.8121  0.7938  1.1773
  156DOPC   H4Y18787   4.134   5.191  16.129  1.4895 -1.9571  1.4676
  156DOPC   C3518788   4.186   5.412  16.148 -0.6950 -0.1777  0.2952
  156DOPC   H5X18789   4.276   5.398  16.084 -0.2285 -0.2471  0.9476
  156DOPC   H5Y18790   4.209   5.488  16.226 -0.4794 -2.5083  2.6503
  156DOPC   C3618791   4.072   5.456  16.063 -0.0237 -0.3454 -0.5805
  156DOPC   H6X18792   4.051   5.388  15.978 -0.1542 -0.9403 -0.0789
  156DOPC   H6Y18793   3.981   5.445  16.125 -0.1953 -0.5673 -0.8711
  156DOPC   C3718794   4.081   5.608  16.035  0.8258  0.9198 -0.7985
  156DOPC   H7X18795   3.982   5.633  15.991 -0.0285  0.0405  0.5189
  156DOPC   H7Y18796   4.092   5.661  16.132  0.2016  0.8893 -0.7032
  156DOPC   C3818797   4.191   5.646  15.935  0.1084  0.6888 -0.7909
  156DOPC   H8X18798   4.179   5.583  15.844 -0.9107 -1.6760  0.8876
  156DOPC   H8Y18799   4.279   5.604  15.987 -0.2731 -0.7360 -1.2469
  156DOPC   C3918800   4.209   5.791  15.904  0.4256 -0.5207  0.5471
  156DOPC   H9X18801   4.265   5.844  15.982  0.0819  1.3763 -0.4349
  156DOPC  C31018802   4.162   5.856  15.799 -0.3183  0.2453  1.3148
  156DOPC  H10X18803   4.173   5.965  15.790  1.3180 -0.0382 -1.0350
  156DOPC  C31118804   4.071   5.792  15.697  0.1167 -0.4800  0.6848
  156DOPC  H11X18805   4.019   5.866  15.632 -2.1259 -0.0463  2.8373
  156DOPC  H11Y18806   3.988   5.734  15.743 -0.2391 -1.2780 -0.8713
  156DOPC  C31218807   4.139   5.711  15.593 -0.1354 -0.5992  0.3646
  156DOPC  H12X18808   4.070   5.684  15.510  0.3582  1.4774 -0.7801
  156DOPC  H12Y18809   4.172   5.610  15.626 -0.1379 -0.4660  0.7742
  156DOPC  C31318810   4.261   5.795  15.527  0.4460  0.1601  0.2575
  156DOPC  H13X18811   4.215   5.879  15.470  1.5288 -1.3809 -3.1400
  156DOPC  H13Y18812   4.335   5.823  15.605  0.9960 -0.7360  0.0678
  156DOPC  C31418813   4.335   5.722  15.411 -0.4213 -0.2570  0.4972
  156DOPC  H14X18814   4.406   5.650  15.457  1.1720  1.1592  0.3668
  156DOPC  H14Y18815   4.254   5.671  15.356  0.2612 -2.0375  1.0909
  156DOPC  C31518816   4.414   5.820  15.313  0.5891  0.4202  0.2245
  156DOPC  H15X18817   4.507   5.772  15.277  0.0182  0.6711 -1.6963
  156DOPC  H15Y18818   4.441   5.913  15.367 -1.7388  0.8726  0.7182
  156DOPC  C31618819   4.331   5.862  15.190 -0.2444 -0.0687 -0.6233
  156DOPC  H16X18820   4.226   5.869  15.226 -0.3971 -1.0579 -0.8474
  156DOPC  H16Y18821   4.366   5.958  15.147  1.8052 -1.2600 -1.7843
  156DOPC  C31718822   4.332   5.763  15.076 -0.1992  0.6144  0.0327
  156DOPC  H17X18823   4.425   5.792  15.021  0.1335  1.0105  0.7971
  156DOPC  H17Y18824   4.341   5.664  15.127  0.8646 -1.0239 -3.0569
  156DOPC  C31818825   4.207   5.757  14.984 -0.5347 -0.4292 -0.6332
  156DOPC  H18X18826   4.193   5.857  14.937  2.5114  0.5379  0.3296
  156DOPC  H18Y18827   4.216   5.683  14.902  2.0625 -1.5921  0.5972
  156DOPC  H18Z18828   4.117   5.727  15.043 -1.1589 -1.0862 -1.8686
  157DOPC     N18829   5.283   1.884  16.625 -0.4399 -0.0313 -0.5288
  157DOPC   C1218830   5.328   1.906  16.484 -0.3464  0.0437  0.8288
  157DOPC  H12A18831   5.403   1.984  16.478  0.5268 -0.8546 -0.3690
  157DOPC  H12B18832   5.242   1.933  16.424  0.0178 -0.0942  0.2508
  157DOPC   C1318833   5.274   2.007  16.693 -0.6843 -0.6593  0.4911
  157DOPC  H13A18834   5.250   1.979  16.795 -3.2462 -0.0281  0.1454
  157DOPC  H13B18835   5.365   2.064  16.683  0.5208 -2.8564 -2.5778
  157DOPC  H13C18836   5.196   2.074  16.658 -0.4623 -1.8552 -2.5758
  157DOPC   C1418837   5.380   1.802  16.713  0.3782  0.4200  0.4849
  157DOPC  H14A18838   5.463   1.863  16.744 -0.7246  2.1459  0.1805
  157DOPC  H14B18839   5.331   1.773  16.805 -0.1514 -2.7726 -0.6692
  157DOPC  H14C18840   5.413   1.721  16.650  0.4528  0.5506  0.3582
  157DOPC   C1518841   5.148   1.824  16.642 -0.5969 -0.4384  0.1376
  157DOPC  H15A18842   5.121   1.796  16.742 -1.2582  0.5195  0.2394
  157DOPC  H15B18843   5.139   1.736  16.579 -0.9783 -1.1823  1.2010
  157DOPC  H15C18844   5.068   1.894  16.624 -1.5472 -1.3440  0.7617
  157DOPC   C1118845   5.385   1.777  16.413  0.1262 -0.0115 -0.0380
  157DOPC  H11A18846   5.419   1.803  16.311  1.3822 -1.7038 -0.0871
  157DOPC  H11B18847   5.472   1.740  16.471  0.6249  4.1356  2.2526
  157DOPC     P18848   5.302   1.531  16.443  0.2789  0.5869  0.1445
  157DOPC   O1318849   5.165   1.502  16.486  0.0771 -0.3591 -0.3686
  157DOPC   O1418850   5.412   1.508  16.539  0.1627  0.4003 -0.2283
  157DOPC   O1218851   5.292   1.675  16.390 -0.4306 -0.2074 -0.3270
  157DOPC   O1118852   5.330   1.442  16.311  0.2514  0.1433 -0.3427
  157DOPC    C118853   5.431   1.488  16.220  0.2492 -0.1544  0.1859
  157DOPC    HA18854   5.487   1.394  16.197 -0.5492 -0.7299  0.5274
  157DOPC    HB18855   5.501   1.565  16.258  0.2127 -0.2131  0.3716
  157DOPC    C218856   5.362   1.545  16.093 -0.4146  0.8822  0.0694
  157DOPC    HS18857   5.283   1.613  16.135  0.7478 -0.2699  4.7453
  157DOPC   O2118858   5.299   1.431  16.028  0.5286  0.4950 -0.0587
  157DOPC   C2118859   5.237   1.454  15.914  0.1220  0.3139 -0.6052
  157DOPC   O2218860   5.218   1.557  15.860  0.3325 -0.4561  0.2941
  157DOPC   C2218861   5.184   1.327  15.868 -0.9993 -0.5639 -0.2357
  157DOPC   H2R18862   5.085   1.363  15.835 -0.7294 -0.3117 -0.7805
  157DOPC   H2S18863   5.164   1.260  15.955 -0.4890 -0.2927  0.0991
  157DOPC    C318864   5.456   1.622  15.998 -0.7163 -0.5631 -0.3259
  157DOPC    HX18865   5.535   1.662  16.065  1.2348 -0.3687 -2.5838
  157DOPC    HY18866   5.399   1.699  15.941  2.2053  2.5677  0.6242
  157DOPC   O3118867   5.518   1.529  15.913 -0.5374 -0.2981 -0.2485
  157DOPC   C3118868   5.639   1.560  15.876 -0.2323  0.2428  0.2470
  157DOPC   O3218869   5.710   1.649  15.911  0.0308  0.4560 -0.2697
  157DOPC   C3218870   5.673   1.447  15.777  0.4240 -0.9391  0.1136
  157DOPC   H2X18871   5.675   1.351  15.833  0.3697  0.2813  2.3174
  157DOPC   H2Y18872   5.593   1.438  15.700  1.8438 -2.4297 -1.2488
  157DOPC   C2318873   5.267   1.259  15.762 -0.5050  0.9101  0.2340
  157DOPC   H3R18874   5.220   1.162  15.739 -0.6268  1.0316 -0.0332
  157DOPC   H3S18875   5.368   1.230  15.799 -1.3863 -2.3902  0.3552
  157DOPC   C2418876   5.291   1.339  15.631 -0.3547 -0.0367 -0.5265
  157DOPC   H4R18877   5.361   1.424  15.646  0.3764 -0.7238  0.0490
  157DOPC   H4S18878   5.197   1.379  15.589 -0.1667  1.0696  0.0813
  157DOPC   C2518879   5.335   1.249  15.513 -0.0804  0.4165 -0.1052
  157DOPC   H5R18880   5.257   1.172  15.495 -1.0232  1.5307 -0.9346
  157DOPC   H5S18881   5.431   1.196  15.526  0.0809  0.3947 -1.3368
  157DOPC   C2618882   5.342   1.331  15.386  0.0477  0.3470  0.1500
  157DOPC   H6R18883   5.404   1.421  15.403  0.0911  0.8713 -2.3441
  157DOPC   H6S18884   5.246   1.375  15.352 -0.2466  0.0158  0.5380
  157DOPC   C2718885   5.400   1.251  15.274 -1.0433 -0.1316 -0.3630
  157DOPC   H7R18886   5.341   1.157  15.267 -0.7039 -0.3913  0.1473
  157DOPC   H7S18887   5.504   1.218  15.295 -0.6257  1.4447  0.2070
  157DOPC   C2818888   5.405   1.319  15.132 -0.4981  0.0496  0.4379
  157DOPC   H8R18889   5.448   1.244  15.062 -2.8288 -1.3740  0.4258
  157DOPC   H8S18890   5.480   1.400  15.151 -0.8386  0.5787 -0.4064
  157DOPC   C2918891   5.273   1.380  15.091  0.0440  0.1196 -0.3395
  157DOPC   H9R18892   5.226   1.444  15.167  0.6993 -0.4674  0.5779
  157DOPC  C21018893   5.210   1.347  14.982  0.1124 -0.4589  0.3787
  157DOPC  H10R18894   5.122   1.408  14.954  0.4870 -0.4874 -0.9019
  157DOPC  C21118895   5.269   1.260  14.878 -0.5594 -0.0758 -0.1189
  157DOPC  H11R18896   5.181   1.209  14.835 -1.6886  1.9745 -0.3457
  157DOPC  H11S18897   5.349   1.193  14.916 -0.0274  1.8590  2.4521
  157DOPC  C21218898   5.331   1.347  14.766  0.7683  0.0815 -0.6585
  157DOPC  H12R18899   5.384   1.273  14.703  1.0298 -0.9355  0.7077
  157DOPC  H12S18900   5.412   1.415  14.801 -1.7167  2.5194  0.7389
  157DOPC  C21318901   5.225   1.428  14.691  0.1516 -0.0226 -0.1390
  157DOPC  H13R18902   5.203   1.523  14.744  1.7177  0.2686  0.0326
  157DOPC  H13S18903   5.133   1.365  14.685  1.0905 -1.3191 -2.4915
  157DOPC  C21418904   5.263   1.453  14.542  0.3522  0.8200  0.0346
  157DOPC  H14R18905   5.323   1.363  14.516  0.1611 -0.1571  2.6302
  157DOPC  H14S18906   5.331   1.540  14.530  1.8457 -0.3170 -0.0286
  157DOPC  C21518907   5.147   1.469  14.438 -0.4375  0.0212  0.1774
  157DOPC  H15R18908   5.095   1.566  14.453  1.3581  1.0623  0.0134
  157DOPC  H15S18909   5.075   1.386  14.454 -0.7230  0.0659 -0.8314
  157DOPC  C21618910   5.202   1.467  14.299 -0.2546  0.1687  0.8118
  157DOPC  H16R18911   5.243   1.367  14.272 -0.5213  0.1733  0.3826
  157DOPC  H16S18912   5.279   1.547  14.300 -2.2784  2.2192  0.8756
  157DOPC  C21718913   5.099   1.485  14.192 -0.2500 -0.8012 -0.9621
  157DOPC  H17R18914   5.157   1.515  14.103 -0.5951  0.9448 -0.6465
  157DOPC  H17S18915   5.042   1.570  14.236  2.3948 -0.6948  2.7808
  157DOPC  C21818916   5.008   1.369  14.171  0.0469 -0.2881  1.2074
  157DOPC  H18R18917   4.942   1.387  14.084 -1.1892 -2.6524  1.5743
  157DOPC  H18S18918   4.953   1.332  14.260  0.3433  0.1243  1.5634
  157DOPC  H18T18919   5.060   1.275  14.143  0.9968  0.8637 -1.1036
  157DOPC   C3318920   5.817   1.457  15.714  0.5746 -0.3821 -0.1340
  157DOPC   H3X18921   5.846   1.358  15.672 -0.1736  0.3380 -2.4791
  157DOPC   H3Y18922   5.887   1.477  15.798 -1.1450 -0.8787  1.4968
  157DOPC   C3418923   5.823   1.569  15.609  0.1774 -0.1212 -0.0399
  157DOPC   H4X18924   5.798   1.663  15.662 -0.9662 -0.8173  0.6913
  157DOPC   H4Y18925   5.748   1.548  15.530 -0.1696  2.4202 -0.4730
  157DOPC   C3518926   5.961   1.581  15.537 -0.7040  0.1036 -0.3633
  157DOPC   H5X18927   6.002   1.481  15.512  2.0938  0.8049  1.0321
  157DOPC   H5Y18928   6.042   1.640  15.585 -2.1881  1.3871  0.6678
  157DOPC   C3618929   5.935   1.639  15.400 -0.2540 -0.4844 -0.7487
  157DOPC   H6X18930   5.867   1.567  15.351  0.7092 -0.2935 -2.4519
  157DOPC   H6Y18931   5.886   1.739  15.410  0.7416 -0.0849  0.4909
  157DOPC   C3718932   6.062   1.651  15.313 -0.2216  0.3144  0.6426
  157DOPC   H7X18933   6.126   1.717  15.375  0.4385  2.0744 -1.7581
  157DOPC   H7Y18934   6.110   1.552  15.301 -0.1976  0.3826  0.1590
  157DOPC   C3818935   6.030   1.715  15.176  0.0971  0.0350  0.0149
  157DOPC   H8X18936   5.950   1.659  15.124  0.7722 -0.4330 -0.5393
  157DOPC   H8Y18937   6.119   1.714  15.110 -0.1506 -0.0664 -0.3161
  157DOPC   C3918938   5.988   1.856  15.193  0.2483 -0.1274  0.5341
  157DOPC   H9X18939   6.004   1.906  15.290 -2.3190  1.6557  0.1194
  157DOPC  C31018940   5.934   1.928  15.094  0.1411 -0.0765 -0.1615
  157DOPC  H10X18941   5.922   2.035  15.118  1.1615 -0.6272  3.3333
  157DOPC  C31118942   5.902   1.880  14.959 -0.1054  0.1681  0.0372
  157DOPC  H11X18943   5.792   1.895  14.946 -0.1527  0.3308  0.5845
  157DOPC  H11Y18944   5.920   1.771  14.951  1.0978  0.4490 -1.9264
  157DOPC  C31218945   5.979   1.962  14.853 -0.7535  0.3351 -0.4498
  157DOPC  H12X18946   6.089   1.959  14.865 -0.2829  2.3126 -3.2574
  157DOPC  H12Y18947   5.949   2.069  14.857 -4.6050 -0.5908 -0.2629
  157DOPC  C31318948   5.932   1.930  14.711  0.7094  0.2863 -0.4119
  157DOPC  H13X18949   5.822   1.945  14.706  0.3895 -0.6152  2.0902
  157DOPC  H13Y18950   5.979   2.009  14.649  1.5146  1.7553  1.9220
  157DOPC  C31418951   5.990   1.797  14.660  0.5280 -0.4006  0.5184
  157DOPC  H14X18952   6.099   1.803  14.676  0.7857  0.3452 -1.2434
  157DOPC  H14Y18953   5.959   1.716  14.728  2.4433 -1.0439  0.6774
  157DOPC  C31518954   5.962   1.766  14.514  0.4537 -0.2900 -0.6653
  157DOPC  H15X18955   5.998   1.847  14.447 -1.6551  0.4126 -1.0316
  157DOPC  H15Y18956   5.855   1.767  14.482  0.7349  4.1055 -2.2935
  157DOPC  C31618957   6.046   1.641  14.474  0.4001  0.3676  0.4070
  157DOPC  H16X18958   6.153   1.670  14.484  0.2738  0.5941  1.1783
  157DOPC  H16Y18959   6.030   1.564  14.554 -1.0944 -0.5019 -0.6909
  157DOPC  C31718960   6.016   1.572  14.340 -0.8961 -0.6275  0.9372
  157DOPC  H17X18961   5.919   1.520  14.324 -0.4471 -0.6291 -2.7741
  157DOPC  H17Y18962   6.006   1.654  14.265 -0.2019 -1.1434  0.2603
  157DOPC  C31818963   6.142   1.489  14.292 -1.0703  0.1594 -0.0892
  157DOPC  H18X18964   6.123   1.410  14.216  2.6352 -1.2941  0.2761
  157DOPC  H18Y18965   6.222   1.553  14.249  0.5441 -1.7700 -0.0734
  157DOPC  H18Z18966   6.183   1.428  14.375 -0.7613  1.6675  0.9040
  158DOPC     N18967   3.804   0.217  16.749  0.4374 -0.5310 -0.3509
  158DOPC   C1218968   3.692   0.115  16.725  0.3456  0.1471  0.1459
  158DOPC  H12A18969   3.605   0.171  16.693 -0.3042 -0.1334  1.3316
  158DOPC  H12B18970   3.673   0.070  16.822  0.6445  0.6433  0.4396
  158DOPC   C1318971   3.858   0.270  16.623  0.4063 -0.4689  0.3337
  158DOPC  H13A18972   3.900   0.185  16.570 -0.2370 -1.4665  1.3929
  158DOPC  H13B18973   3.780   0.306  16.557  1.8462  0.4667 -0.9381
  158DOPC  H13C18974   3.932   0.348  16.638  1.1640 -1.1672  0.3306
  158DOPC   C1418975   3.913   0.150  16.831  1.2034 -0.5899 -0.1654
  158DOPC  H14A18976   3.979   0.217  16.885  0.8012  0.3642 -0.8233
  158DOPC  H14B18977   3.865   0.086  16.903  1.7585 -2.6989 -1.5967
  158DOPC  H14C18978   3.968   0.089  16.761  4.2018  1.0862  0.5438
  158DOPC   C1518979   3.743   0.327  16.829 -0.5708  0.4319  0.1114
  158DOPC  H15A18980   3.680   0.287  16.907  2.3504  0.0303  2.4690
  158DOPC  H15B18981   3.687   0.388  16.760  2.3224  0.5383 -2.3762
  158DOPC  H15C18982   3.816   0.397  16.867 -0.8516  0.3566  0.8054
  158DOPC   C1118983   3.720  -0.009  16.634  0.7788 -0.0691 -0.2437
  158DOPC  H11A18984   3.628  -0.061  16.599  1.5888 -0.9413 -1.1534
  158DOPC  H11B18985   3.771   0.034  16.545  1.8249  2.0885  1.3119
  158DOPC     P18986   3.758  -0.206  16.793  0.1834  0.0302 -0.2483
  158DOPC   O1318987   3.650  -0.142  16.874 -0.0435  0.5501 -0.4641
  158DOPC   O1418988   3.876  -0.261  16.862  0.3430 -0.0537  0.1588
  158DOPC   O1218989   3.811  -0.102  16.688  0.2872 -0.1448 -0.3219
  158DOPC   O1118990   3.697  -0.317  16.697 -0.1443 -0.4535  1.1407
  158DOPC    C118991   3.784  -0.407  16.627 -0.1815  0.3089 -0.0917
  158DOPC    HA18992   3.738  -0.508  16.627  0.2317  0.0926  1.5839
  158DOPC    HB18993   3.886  -0.415  16.670 -0.7760  0.9427  1.5015
  158DOPC    C218994   3.815  -0.358  16.477 -0.3183 -0.0575  0.6173
  158DOPC    HS18995   3.908  -0.298  16.486 -1.0641  0.9908  1.5940
  158DOPC   O2118996   3.702  -0.288  16.429  1.1898  0.1740  0.0485
  158DOPC   C2118997   3.730  -0.199  16.332 -0.7102 -0.0011 -0.7737
  158DOPC   O2218998   3.845  -0.166  16.299  0.1356 -0.1895 -0.1642
  158DOPC   C2218999   3.602  -0.138  16.270 -0.1359 -0.1835  0.0626
  158DOPC   H2R19000   3.624  -0.067  16.188 -2.4067  0.6653  0.1252
  158DOPC   H2S19001   3.546  -0.087  16.351 -1.6169 -1.5195 -0.0789
  158DOPC    C319002   3.850  -0.485  16.383  0.7740  0.2584  0.2788
  158DOPC    HX19003   3.766  -0.557  16.381  0.9041  0.1062 -1.9040
  158DOPC    HY19004   3.938  -0.539  16.423  0.6559 -0.3282 -0.2492
  158DOPC   O3119005   3.874  -0.445  16.244 -0.1191 -0.2181 -0.4053
  158DOPC   C3119006   3.997  -0.401  16.213  0.4237 -0.4924 -0.9245
  158DOPC   O3219007   4.091  -0.399  16.290 -0.4172 -0.0171 -0.1249
  158DOPC   C3219008   4.008  -0.380  16.058 -0.0940  0.0582 -0.5695
  158DOPC   H2X19009   4.021  -0.481  16.012  3.0776 -1.2876  2.8056
  158DOPC   H2Y19010   3.914  -0.326  16.033  0.4696  2.5932  2.2946
  158DOPC   C2319011   3.502  -0.245  16.214 -0.0850 -0.8184 -0.2697
  158DOPC   H3R19012   3.398  -0.205  16.218 -0.1937 -0.9724 -1.2277
  158DOPC   H3S19013   3.504  -0.328  16.288  1.7010 -0.3184  0.2771
  158DOPC   C2419014   3.534  -0.298  16.076 -0.3962 -0.2222 -0.4326
  158DOPC   H4R19015   3.644  -0.311  16.063 -0.1496  0.0140  1.2868
  158DOPC   H4S19016   3.498  -0.219  16.006 -0.9198 -1.4074 -1.5445
  158DOPC   C2519017   3.452  -0.414  16.033 -0.2234  0.5157 -0.4349
  158DOPC   H5R19018   3.348  -0.400  16.069  0.0192 -0.7999  0.8518
  158DOPC   H5S19019   3.482  -0.505  16.090 -0.3393  0.1218 -0.9916
  158DOPC   C2619020   3.447  -0.450  15.875 -0.2772 -0.4049 -0.4583
  158DOPC   H6R19021   3.348  -0.497  15.858 -1.6834  1.9490  0.7873
  158DOPC   H6S19022   3.535  -0.517  15.861  1.2517  1.3519  0.3225
  158DOPC   C2719023   3.455  -0.330  15.781 -0.4751 -0.3318  0.1176
  158DOPC   H7R19024   3.554  -0.279  15.781  0.1196 -1.4572 -0.5589
  158DOPC   H7S19025   3.378  -0.258  15.818  0.0867 -0.9984  2.8220
  158DOPC   C2819026   3.421  -0.371  15.636  0.2920 -0.8422 -0.1042
  158DOPC   H8R19027   3.313  -0.396  15.645  0.2947 -0.4480  1.2061
  158DOPC   H8S19028   3.468  -0.471  15.626  0.8257 -0.4761 -1.5177
  158DOPC   C2919029   3.460  -0.272  15.528  0.0942  0.5712  0.7190
  158DOPC   H9R19030   3.416  -0.173  15.546 -3.6610 -0.6589 -0.6930
  158DOPC  C21019031   3.546  -0.300  15.426  0.7357  0.3718 -0.2301
  158DOPC  H10R19032   3.544  -0.216  15.355  0.7150 -1.0710 -2.0101
  158DOPC  C21119033   3.613  -0.430  15.377  0.1134 -0.0661  0.4221
  158DOPC  H11R19034   3.598  -0.514  15.448 -0.7491 -1.0917 -0.9183
  158DOPC  H11S19035   3.722  -0.416  15.362 -0.0041 -1.3642 -2.1557
  158DOPC  C21219036   3.551  -0.479  15.246 -0.7495 -0.0935 -0.3395
  158DOPC  H12R19037   3.443  -0.494  15.267 -1.0574  1.5407 -0.5917
  158DOPC  H12S19038   3.593  -0.577  15.215  0.3117  0.6029 -1.1853
  158DOPC  C21319039   3.581  -0.390  15.132  0.9010  0.2397  0.4075
  158DOPC  H13R19040   3.687  -0.408  15.105  1.3676 -1.5911  2.9931
  158DOPC  H13S19041   3.559  -0.283  15.153  3.2073  0.8350  0.0844
  158DOPC  C21419042   3.492  -0.397  15.006  0.5617  0.5897  0.3635
  158DOPC  H14R19043   3.531  -0.323  14.934 -0.6669  1.4526  0.5587
  158DOPC  H14S19044   3.387  -0.368  15.028  0.4851  0.5735  0.0313
  158DOPC  C21519045   3.502  -0.538  14.943  0.3048  0.0698 -0.8445
  158DOPC  H15R19046   3.416  -0.596  14.984 -0.9981  0.6366 -2.6222
  158DOPC  H15S19047   3.600  -0.588  14.955  0.9836  1.5570  0.1383
  158DOPC  C21619048   3.462  -0.534  14.793 -0.6506  0.2812 -0.2409
  158DOPC  H16R19049   3.382  -0.461  14.768 -0.8131  0.5449  0.9917
  158DOPC  H16S19050   3.408  -0.624  14.756 -0.5838  0.6839 -1.3571
  158DOPC  C21719051   3.587  -0.512  14.714 -0.7855 -0.0978 -0.5164
  158DOPC  H17R19052   3.670  -0.573  14.756 -0.0285  0.3396 -1.3560
  158DOPC  H17S19053   3.626  -0.410  14.735  2.6586 -0.6939 -3.1539
  158DOPC  C21819054   3.572  -0.540  14.563 -0.5712 -0.5788  0.3159
  158DOPC  H18R19055   3.519  -0.637  14.556 -0.2634 -0.8898  1.9096
  158DOPC  H18S19056   3.674  -0.554  14.522 -1.0040 -2.2687 -0.2349
  158DOPC  H18T19057   3.513  -0.463  14.508 -0.5623 -0.5159  0.3942
  158DOPC   C3319058   4.131  -0.283  16.032  0.4964  0.3274 -0.1732
  158DOPC   H3X19059   4.130  -0.198  16.104  0.2288 -0.5350  0.8783
  158DOPC   H3Y19060   4.104  -0.235  15.936 -1.4895  2.7034  1.4311
  158DOPC   C3419061   4.265  -0.359  16.014  0.5241 -0.1876 -0.0762
  158DOPC   H4X19062   4.245  -0.429  15.930  1.4677  0.3702 -0.7823
  158DOPC   H4Y19063   4.290  -0.419  16.104 -0.8500  1.3809  1.4178
  158DOPC   C3519064   4.384  -0.272  15.972  0.8505  0.7037 -0.2460
  158DOPC   H5X19065   4.466  -0.342  15.946  0.0211 -0.0356 -0.9583
  158DOPC   H5Y19066   4.415  -0.221  16.066  0.5349 -1.1092  0.8845
  158DOPC   C3619067   4.358  -0.179  15.853  0.3231 -0.4171  0.3350
  158DOPC   H6X19068   4.268  -0.114  15.860 -1.4734 -2.7229 -0.1108
  158DOPC   H6Y19069   4.444  -0.110  15.838  0.2314 -0.6187 -1.3369
  158DOPC   C3719070   4.362  -0.260  15.718  0.1148 -0.0493 -0.4423
  158DOPC   H7X19071   4.464  -0.285  15.681 -0.9774 -0.6603 -3.2712
  158DOPC   H7Y19072   4.307  -0.352  15.745  1.2608 -0.1397  1.8597
  158DOPC   C3819073   4.292  -0.201  15.600 -0.0124  0.1357  0.0287
  158DOPC   H8X19074   4.182  -0.186  15.609 -0.0462  0.0611 -0.2372
  158DOPC   H8Y19075   4.299  -0.269  15.512  2.8392  1.7090 -1.1129
  158DOPC   C3919076   4.353  -0.070  15.552 -0.3563 -0.7829  0.0781
  158DOPC   H9X19077   4.341   0.015  15.621  0.2604 -1.2962  0.8295
  158DOPC  C31019078   4.402  -0.042  15.432 -0.9626 -0.1717  0.5856
  158DOPC  H10X19079   4.448   0.055  15.409 -0.2336 -0.3609  1.2022
  158DOPC  C31119080   4.431  -0.132  15.314 -0.0201 -0.5177 -0.2788
  158DOPC  H11X19081   4.441  -0.238  15.346  0.5296 -0.1098  0.9705
  158DOPC  H11Y19082   4.528  -0.110  15.263  0.5302 -1.1101  0.4897
  158DOPC  C31219083   4.329  -0.121  15.198  0.1336 -0.3340  0.5489
  158DOPC  H12X19084   4.226  -0.131  15.237  0.4248 -0.9452  1.1902
  158DOPC  H12Y19085   4.342  -0.210  15.133  1.8764  0.8273 -0.7677
  158DOPC  C31319086   4.350   0.009  15.120 -0.5206 -0.6227 -0.2423
  158DOPC  H13X19087   4.315   0.093  15.184  0.1154 -2.0565  2.1097
  158DOPC  H13Y19088   4.457   0.021  15.095 -0.5161 -2.7576 -1.5019
  158DOPC  C31419089   4.272   0.007  14.992  0.4411 -0.1318  0.0829
  158DOPC  H14X19090   4.164  -0.014  14.983 -0.1288  3.1808 -4.6205
  158DOPC  H14Y19091   4.279   0.106  14.941  0.3235  0.5250  1.3121
  158DOPC  C31519092   4.344  -0.096  14.899 -0.3871 -0.5210  0.6039
  158DOPC  H15X19093   4.316  -0.198  14.935 -1.6463 -0.1704  0.6789
  158DOPC  H15Y19094   4.451  -0.071  14.914 -0.5533  1.2397 -0.9125
  158DOPC  C31619095   4.314  -0.099  14.751  0.1468 -0.2856  0.3281
  158DOPC  H16X19096   4.205  -0.113  14.737  0.2778 -2.2545  1.0912
  158DOPC  H16Y19097   4.350  -0.003  14.706 -0.3763 -0.8217 -1.3113
  158DOPC  C31719098   4.389  -0.203  14.668  0.5208 -0.0690 -0.0798
  158DOPC  H17X19099   4.375  -0.185  14.560 -2.9902 -1.5698 -0.0234
  158DOPC  H17Y19100   4.497  -0.196  14.693  1.2974 -2.1462 -2.4262
  158DOPC  C31819101   4.349  -0.351  14.693 -0.8734  0.6226  1.0095
  158DOPC  H18X19102   4.373  -0.380  14.798  2.5406  2.5706  0.9312
  158DOPC  H18Y19103   4.241  -0.370  14.683 -0.7676  0.6557 -0.3246
  158DOPC  H18Z19104   4.399  -0.413  14.615 -4.4324 -0.3987 -0.6560
  159DOPC     N19105   6.375   2.886  17.140  0.0307 -0.4384 -0.4759
  159DOPC   C1219106   6.384   2.907  16.990  0.0355  0.0585 -0.5231
  159DOPC  H12A19107   6.469   2.967  16.962  0.1639 -0.4713 -1.3127
  159DOPC  H12B19108   6.302   2.970  16.957  0.1653  0.3070 -0.3696
  159DOPC   C1319109   6.503   2.835  17.197 -0.0246 -0.1229 -0.6782
  159DOPC  H13A19110   6.589   2.890  17.162  1.7995  0.0682  3.4510
  159DOPC  H13B19111   6.517   2.839  17.304 -0.3778  0.8339 -0.6600
  159DOPC  H13C19112   6.521   2.733  17.164 -1.1376 -0.2277 -0.9891
  159DOPC   C1419113   6.263   2.793  17.173 -0.6232  0.4010 -0.0265
  159DOPC  H14A19114   6.279   2.703  17.115 -1.2959  0.6789 -0.6548
  159DOPC  H14B19115   6.265   2.779  17.280 -2.5813 -0.7207 -0.0925
  159DOPC  H14C19116   6.170   2.843  17.155 -1.1415 -0.1528  1.0181
  159DOPC   C1519117   6.352   3.020  17.204 -0.5396 -0.2717 -0.7083
  159DOPC  H15A19118   6.336   3.011  17.310 -0.5473  2.1134 -0.4497
  159DOPC  H15B19119   6.273   3.076  17.155 -1.4954  0.1143  1.1629
  159DOPC  H15C19120   6.440   3.082  17.196  1.2795 -2.3423  1.5620
  159DOPC   C1119121   6.399   2.775  16.913  0.9270 -0.3130 -0.4752
  159DOPC  H11A19122   6.439   2.818  16.819  1.4058  2.1439  0.7695
  159DOPC  H11B19123   6.465   2.699  16.959 -0.0180 -0.6354  0.4080
  159DOPC     P19124   6.145   2.777  16.812 -0.1624 -0.1452 -0.0834
  159DOPC   O1319125   6.089   2.897  16.884 -0.3601  0.4908  0.2268
  159DOPC   O1419126   6.049   2.667  16.781  0.2937  0.2399  0.1917
  159DOPC   O1219127   6.268   2.719  16.892  0.4232  0.1249  0.3985
  159DOPC   O1119128   6.216   2.823  16.683 -0.3884 -0.1887 -0.6620
  159DOPC    C119129   6.238   2.959  16.640  0.0806 -0.5033 -0.2777
  159DOPC    HA19130   6.346   2.986  16.645 -0.3684  1.7011 -1.3935
  159DOPC    HB19131   6.183   3.037  16.697  0.4521 -0.1891 -0.3444
  159DOPC    C219132   6.214   2.980  16.487 -0.3799 -0.1430 -0.4430
  159DOPC    HS19133   6.179   3.083  16.464  0.1985  0.7083  2.1393
  159DOPC   O2119134   6.122   2.891  16.430  0.0402  0.0342 -0.4647
  159DOPC   C2119135   5.997   2.915  16.467 -0.6230  0.7598  0.3376
  159DOPC   O2219136   5.962   3.005  16.535  0.5113  0.7079  0.3133
  159DOPC   C2219137   5.916   2.805  16.408 -0.4504 -0.2235  0.4306
  159DOPC   H2R19138   5.834   2.768  16.474 -1.3853 -0.8571 -1.0289
  159DOPC   H2S19139   5.974   2.714  16.382  1.2822  0.9782 -0.0958
  159DOPC    C319140   6.350   2.963  16.407 -0.0724  0.5270  0.0044
  159DOPC    HX19141   6.391   2.861  16.418  0.1319  0.6583  0.5170
  159DOPC    HY19142   6.416   3.045  16.444 -0.3402  1.4004 -1.3885
  159DOPC   O3119143   6.327   3.006  16.276 -0.3230 -0.0026  0.2829
  159DOPC   C3119144   6.360   2.921  16.180  0.7977  0.0840  0.4795
  159DOPC   O3219145   6.403   2.809  16.198  0.2511 -0.1217  0.8124
  159DOPC   C3219146   6.346   2.979  16.038 -0.1934  0.2722 -0.0979
  159DOPC   H2X19147   6.243   2.942  16.017  0.6191 -0.3232 -3.7309
  159DOPC   H2Y19148   6.362   3.088  16.033 -0.5773  0.2852 -1.8801
  159DOPC   C2319149   5.837   2.849  16.282 -0.6228  0.1524  0.6039
  159DOPC   H3R19150   5.769   2.934  16.301 -0.3439  0.9523 -1.7010
  159DOPC   H3S19151   5.774   2.766  16.243  1.9553 -2.1992  1.0985
  159DOPC   C2419152   5.927   2.879  16.165 -0.0557 -0.1382  0.3011
  159DOPC   H4R19153   6.007   2.802  16.158 -0.6454 -0.6731 -0.6713
  159DOPC   H4S19154   5.985   2.972  16.183  1.8140 -1.4741  1.5717
  159DOPC   C2519155   5.851   2.878  16.028  0.2055 -0.8817 -0.5677
  159DOPC   H5R19156   5.758   2.937  16.041 -0.7211 -1.8482 -2.4098
  159DOPC   H5S19157   5.818   2.774  16.004  0.7213 -1.0033 -0.7516
  159DOPC   C2619158   5.938   2.924  15.912 -0.0297  0.2238  0.1740
  159DOPC   H6R19159   6.029   2.862  15.895  0.6940  1.4069 -0.3742
  159DOPC   H6S19160   5.973   3.022  15.951  1.5280  0.0232 -0.6252
  159DOPC   C2719161   5.849   2.934  15.784 -0.4710 -0.0628 -0.1071
  159DOPC   H7R19162   5.787   3.024  15.801  0.8266  0.5258  1.7341
  159DOPC   H7S19163   5.785   2.843  15.788  0.2533 -0.7423 -2.2909
  159DOPC   C2819164   5.926   2.945  15.648  0.0404 -0.3127  0.5214
  159DOPC   H8R19165   5.853   2.958  15.565  0.6403 -2.8574 -0.5144
  159DOPC   H8S19166   5.967   2.843  15.629  0.5584 -0.0780  0.3565
  159DOPC   C2919167   6.019   3.060  15.648 -0.6512 -0.0891  0.1470
  159DOPC   H9R19168   5.984   3.149  15.703  0.9033  0.7282 -0.1119
  159DOPC  C21019169   6.134   3.063  15.573  0.4682 -0.2364  0.2098
  159DOPC  H10R19170   6.200   3.151  15.584 -0.2044  0.2189  0.7013
  159DOPC  C21119171   6.182   2.947  15.478  1.0788  0.3880  0.5904
  159DOPC  H11R19172   6.115   2.859  15.479  1.8697 -0.2481 -0.3100
  159DOPC  H11S19173   6.285   2.910  15.499  0.5454 -2.1331 -0.8436
  159DOPC  C21219174   6.185   3.007  15.339 -0.2131 -0.0865  0.1232
  159DOPC  H12R19175   6.252   3.095  15.352  0.7838 -0.8812  0.4950
  159DOPC  H12S19176   6.080   3.024  15.307 -0.0336 -3.5009 -2.9648
  159DOPC  C21319177   6.240   2.910  15.235  0.2541 -0.9549  0.3118
  159DOPC  H13R19178   6.194   2.811  15.252  0.3353 -0.6568  2.6372
  159DOPC  H13S19179   6.351   2.911  15.238  0.3803  3.5372  2.6445
  159DOPC  C21419180   6.208   2.949  15.084 -0.4287 -0.0977 -0.1073
  159DOPC  H14R19181   6.259   3.047  15.066 -1.7471  0.7184  0.4265
  159DOPC  H14S19182   6.099   2.968  15.078 -0.2813  0.6222 -0.7243
  159DOPC  C21519183   6.267   2.856  14.988  0.3585  0.1826 -0.1057
  159DOPC  H15R19184   6.227   2.755  15.008  0.9435 -0.3007 -1.2777
  159DOPC  H15S19185   6.375   2.849  15.008  0.2129  2.5289  1.9141
  159DOPC  C21619186   6.238   2.892  14.841  0.1316 -0.1341 -0.3962
  159DOPC  H16R19187   6.266   2.999  14.838 -1.4645  0.2894 -1.3880
  159DOPC  H16S19188   6.131   2.889  14.810 -0.0319  1.2682 -0.0253
  159DOPC  C21719189   6.330   2.817  14.747  0.4450  0.1380  0.3922
  159DOPC  H17R19190   6.298   2.713  14.771 -1.1686  0.8948  1.7598
  159DOPC  H17S19191   6.440   2.827  14.760  0.5052  0.3747 -0.2655
  159DOPC  C21819192   6.324   2.845  14.602 -0.3384  0.1315  1.0662
  159DOPC  H18R19193   6.376   2.775  14.532 -0.1910 -1.1864  2.4429
  159DOPC  H18S19194   6.367   2.942  14.571 -0.0526 -0.3089  0.0206
  159DOPC  H18T19195   6.219   2.837  14.568 -0.1256  0.6765  0.2534
  159DOPC   C3319196   6.447   2.921  15.934  0.5037 -0.4326 -0.8038
  159DOPC   H3X19197   6.444   2.813  15.910  1.4542 -0.4038 -1.1142
  159DOPC   H3Y19198   6.548   2.945  15.974 -0.7091  0.4371  1.9326
  159DOPC   C3419199   6.421   3.003  15.805  0.1575  0.4139 -0.9360
  159DOPC   H4X19200   6.407   3.112  15.823 -0.6603  0.2983 -0.8358
  159DOPC   H4Y19201   6.320   2.971  15.771 -0.0485  0.6449 -0.5496
  159DOPC   C3519202   6.521   2.986  15.693  0.7925 -0.2289  0.0922
  159DOPC   H5X19203   6.481   3.023  15.596  0.6974 -1.1628 -0.2333
  159DOPC   H5Y19204   6.535   2.879  15.667 -0.0070  0.4307 -3.6978
  159DOPC   C3619205   6.650   3.062  15.720 -0.3179  0.1084  0.9974
  159DOPC   H6X19206   6.642   3.168  15.751  2.1773  0.6415  0.0468
  159DOPC   H6Y19207   6.701   3.006  15.801  1.0117  1.0938  0.8687
  159DOPC   C3719208   6.729   3.060  15.583 -0.3240 -0.1463 -0.7112
  159DOPC   H7X19209   6.822   3.116  15.605 -0.9510  0.8454 -0.4997
  159DOPC   H7Y19210   6.760   2.959  15.550 -0.1484  0.7307 -3.4868
  159DOPC   C3819211   6.676   3.143  15.469  0.0769 -0.4026  0.0833
  159DOPC   H8X19212   6.659   3.245  15.507  1.5235 -0.7960  1.9396
  159DOPC   H8Y19213   6.577   3.104  15.438  0.3640  1.2324 -3.3362
  159DOPC   C3919214   6.766   3.155  15.346  0.0215  0.9021 -0.1356
  159DOPC   H9X19215   6.866   3.189  15.377 -1.0516  1.9148  2.5397
  159DOPC  C31019216   6.738   3.146  15.219 -0.0045  0.9038  0.0468
  159DOPC  H10X19217   6.816   3.155  15.142 -2.3111  0.7532 -2.4759
  159DOPC  C31119218   6.600   3.110  15.171 -0.3113 -0.8305 -0.2906
  159DOPC  H11X19219   6.523   3.126  15.250 -0.6751  1.5909 -1.0429
  159DOPC  H11Y19220   6.590   3.008  15.129  1.8126 -0.2753 -2.3323
  159DOPC  C31219221   6.550   3.225  15.071  0.7324 -0.0545  0.6208
  159DOPC  H12X19222   6.545   3.319  15.130 -0.4040  0.8139 -0.7824
  159DOPC  H12Y19223   6.442   3.201  15.061  0.6737 -0.5161  2.0877
  159DOPC  C31319224   6.611   3.240  14.928 -0.5578  1.0183 -0.5097
  159DOPC  H13X19225   6.561   3.321  14.871 -2.2030  0.7444  0.4825
  159DOPC  H13Y19226   6.711   3.271  14.964  0.0804 -0.6258 -0.7510
  159DOPC  C31419227   6.628   3.107  14.844  0.3581 -0.4659 -1.1625
  159DOPC  H14X19228   6.682   3.026  14.897 -0.7579  0.2625  1.2198
  159DOPC  H14Y19229   6.525   3.068  14.830  0.6030 -2.1269  0.9916
  159DOPC  C31519230   6.695   3.145  14.716 -0.4287  0.5435  0.1736
  159DOPC  H15X19231   6.739   3.049  14.684 -1.1685  0.4427 -0.5860
  159DOPC  H15Y19232   6.775   3.217  14.744 -1.1555  1.2756  0.4256
  159DOPC  C31619233   6.613   3.191  14.593 -0.3070  0.1643  0.4161
  159DOPC  H16X19234   6.554   3.102  14.560 -0.7563  1.2420 -1.8681
  159DOPC  H16Y19235   6.541   3.272  14.616 -0.1138  1.3088 -2.5900
  159DOPC  C31719236   6.700   3.248  14.482 -0.2970 -0.2154 -0.0255
  159DOPC  H17X19237   6.749   3.339  14.524 -1.6425  1.4224 -1.8128
  159DOPC  H17Y19238   6.773   3.168  14.461 -0.7727 -0.6642  0.0118
  159DOPC  C31819239   6.612   3.283  14.363 -0.6588  0.4127 -0.7640
  159DOPC  H18X19240   6.551   3.373  14.386  0.3251  1.1970 -1.1955
  159DOPC  H18Y19241   6.689   3.310  14.288  0.2432  4.2163  1.2872
  159DOPC  H18Z19242   6.556   3.193  14.329  0.7714 -0.1124 -1.7837
  160DOPC     N19243   6.129   5.217  16.741 -0.3391 -0.0801 -0.5946
  160DOPC   C1219244   6.145   5.208  16.589  0.1236  1.3138 -0.5562
  160DOPC  H12A19245   6.077   5.131  16.557  0.3269  0.5092  0.8389
  160DOPC  H12B19246   6.243   5.173  16.562 -0.2611  1.4016 -2.1270
  160DOPC   C1319247   6.151   5.078  16.790  0.1015 -0.1934 -0.1754
  160DOPC  H13A19248   6.107   5.001  16.727 -1.0749 -1.0502  1.5953
  160DOPC  H13B19249   6.257   5.066  16.776  0.1336 -0.2755  0.1371
  160DOPC  H13C19250   6.109   5.064  16.889  1.6860  0.8350  0.6768
  160DOPC   C1419251   5.989   5.257  16.781  0.1282  0.1173 -0.7093
  160DOPC  H14A19252   5.979   5.277  16.886 -0.8467  2.5415 -1.1840
  160DOPC  H14B19253   5.951   5.345  16.730  1.6410  1.6690  0.6868
  160DOPC  H14C19254   5.925   5.178  16.744  1.3013 -1.3358  0.2751
  160DOPC   C1519255   6.223   5.316  16.800 -0.2654  0.0693  0.2719
  160DOPC  H15A19256   6.210   5.327  16.907  0.7544  0.7681  0.3445
  160DOPC  H15B19257   6.225   5.411  16.748 -1.4496 -0.6162 -1.0666
  160DOPC  H15C19258   6.323   5.278  16.784 -1.1103 -1.3787 -1.9254
  160DOPC   C1119259   6.114   5.330  16.500 -0.2945  0.0963 -0.1674
  160DOPC  H11A19260   6.096   5.299  16.394  1.9947 -0.4296 -0.4514
  160DOPC  H11B19261   6.023   5.379  16.541 -0.5212  0.1154 -0.6904
  160DOPC     P19262   6.365   5.412  16.457 -0.4581  0.0005  0.3478
  160DOPC   O1319263   6.424   5.279  16.497  0.0245 -0.3325  0.8954
  160DOPC   O1419264   6.442   5.535  16.488  0.1521  0.6019 -0.3527
  160DOPC   O1219265   6.222   5.416  16.521  0.3864 -0.4041 -0.5526
  160DOPC   O1119266   6.332   5.419  16.304 -0.3951 -0.1369 -0.2621
  160DOPC    C119267   6.240   5.512  16.254  0.0465 -0.2789 -0.8265
  160DOPC    HA19268   6.198   5.590  16.322 -0.1156 -1.1825  0.1361
  160DOPC    HB19269   6.150   5.451  16.231 -2.3336  2.2967  1.0266
  160DOPC    C219270   6.281   5.581  16.121  0.3848  1.1730  0.3838
  160DOPC    HS19271   6.186   5.633  16.095 -0.3719 -0.6225 -0.5952
  160DOPC   O2119272   6.315   5.479  16.025 -0.0697 -0.3097  0.3185
  160DOPC   C2119273   6.220   5.418  15.959 -0.2388  0.0897  0.1696
  160DOPC   O2219274   6.099   5.428  15.972  0.4913 -0.1720 -0.3837
  160DOPC   C2219275   6.287   5.334  15.859 -0.2673  0.3666  0.5514
  160DOPC   H2R19276   6.239   5.236  15.879 -3.9107  2.1704  1.4200
  160DOPC   H2S19277   6.395   5.313  15.875 -0.3435 -4.3339 -2.9287
  160DOPC    C319278   6.397   5.688  16.143 -0.2751 -0.2168  0.2743
  160DOPC    HX19279   6.475   5.647  16.211 -0.8748  0.0759  1.1499
  160DOPC    HY19280   6.346   5.771  16.197  2.9813  1.4443  1.1128
  160DOPC   O3119281   6.449   5.744  16.020 -0.0264  0.2887 -0.2066
  160DOPC   C3119282   6.577   5.714  15.999  0.5230  0.1893 -0.5563
  160DOPC   O3219283   6.649   5.637  16.060 -0.2060 -0.5659 -0.4423
  160DOPC   C3219284   6.625   5.800  15.880 -0.2387  0.6482 -0.3775
  160DOPC   H2X19285   6.589   5.903  15.901  0.4951  1.1255 -1.3613
  160DOPC   H2Y19286   6.735   5.800  15.895 -0.5657  0.9676  2.4666
  160DOPC   C2319287   6.249   5.373  15.712 -0.1466  0.9576  0.3064
  160DOPC   H3R19288   6.142   5.346  15.698 -0.6300  1.9659  1.7733
  160DOPC   H3S19289   6.297   5.302  15.642 -1.0804 -2.3113  2.7544
  160DOPC   C2419290   6.298   5.514  15.682  0.0667 -0.1597 -0.3978
  160DOPC   H4R19291   6.394   5.489  15.631  0.6428  0.7074  0.2257
  160DOPC   H4S19292   6.320   5.570  15.776 -0.9155 -0.3684 -0.0290
  160DOPC   C2519293   6.223   5.587  15.574 -1.0166  0.4502 -0.0996
  160DOPC   H5R19294   6.260   5.692  15.565  0.5381 -0.1356 -1.1748
  160DOPC   H5S19295   6.113   5.583  15.587 -1.2042 -2.6735 -1.8372
  160DOPC   C2619296   6.247   5.518  15.438 -0.6051 -0.6178 -0.2377
  160DOPC   H6R19297   6.245   5.407  15.437 -2.3503 -0.6765  1.9064
  160DOPC   H6S19298   6.354   5.541  15.415 -0.2116 -2.0129  0.0659
  160DOPC   C2719299   6.157   5.568  15.321 -0.1888 -0.5604 -0.4739
  160DOPC   H7R19300   6.118   5.664  15.362 -0.1016 -0.8159  0.2300
  160DOPC   H7S19301   6.079   5.491  15.305 -1.7256  1.1947 -1.9557
  160DOPC   C2819302   6.244   5.587  15.190 -0.3092 -0.1659  0.1305
  160DOPC   H8R19303   6.336   5.644  15.216 -0.2588  1.4958 -3.1704
  160DOPC   H8S19304   6.199   5.643  15.105  0.2984  0.7603  0.4143
  160DOPC   C2919305   6.274   5.444  15.143  0.7180 -0.3448  0.5178
  160DOPC   H9R19306   6.243   5.365  15.214 -1.5290 -1.1957 -1.2513
  160DOPC  C21019307   6.346   5.410  15.036 -0.5767 -0.4057  0.4049
  160DOPC  H10R19308   6.371   5.304  15.017  0.7751  0.0193 -0.3554
  160DOPC  C21119309   6.415   5.504  14.933  0.2977  0.1295  0.1673
  160DOPC  H11R19310   6.524   5.485  14.939 -0.1107 -2.5384  0.6503
  160DOPC  H11S19311   6.394   5.611  14.952  1.0473 -0.0294  2.1210
  160DOPC  C21219312   6.357   5.488  14.792  0.0407  0.6153  0.0864
  160DOPC  H12R19313   6.253   5.527  14.794 -0.5593 -0.7399 -1.6941
  160DOPC  H12S19314   6.355   5.383  14.756 -0.6289  0.3734  0.8164
  160DOPC  C21319315   6.445   5.553  14.688  0.5146  0.1946  0.4327
  160DOPC  H13R19316   6.543   5.508  14.715 -0.7699 -2.2849  1.1941
  160DOPC  H13S19317   6.446   5.661  14.715 -0.8160  0.9744 -2.2048
  160DOPC  C21419318   6.395   5.518  14.546  0.4263 -0.2296 -0.1698
  160DOPC  H14R19319   6.297   5.570  14.529  0.4642 -0.0723  0.0921
  160DOPC  H14S19320   6.384   5.408  14.540  0.3220 -0.3169  1.2522
  160DOPC  C21519321   6.486   5.577  14.441  0.0877  0.5651  0.0841
  160DOPC  H15R19322   6.586   5.529  14.453 -0.2816 -0.1902  0.2305
  160DOPC  H15S19323   6.481   5.688  14.442  0.8296  0.6060 -0.4484
  160DOPC  C21619324   6.438   5.546  14.304  0.2479  0.5865  0.8172
  160DOPC  H16R19325   6.348   5.605  14.276 -0.6464 -1.6642 -1.4370
  160DOPC  H16S19326   6.405   5.442  14.286 -1.0899  0.7401  2.1787
  160DOPC  C21719327   6.543   5.588  14.197  0.0589  0.0067 -0.3862
  160DOPC  H17R19328   6.499   5.555  14.101 -0.7431 -1.9380  0.5773
  160DOPC  H17S19329   6.636   5.528  14.214  1.2168  1.6249 -0.7929
  160DOPC  C21819330   6.578   5.731  14.199  0.1344 -0.3625  0.3069
  160DOPC  H18R19331   6.502   5.808  14.173  1.2114  0.3204 -0.9695
  160DOPC  H18S19332   6.645   5.741  14.111 -2.0676 -1.7776 -1.6649
  160DOPC  H18T19333   6.632   5.760  14.291  0.6582  0.4740 -0.2464
  160DOPC   C3319334   6.585   5.744  15.745  0.0134  0.2690  0.3748
  160DOPC   H3X19335   6.478   5.768  15.728  0.4016  1.0202 -1.1730
  160DOPC   H3Y19336   6.603   5.634  15.736  0.3075  0.2728  0.8606
  160DOPC   C3419337   6.661   5.811  15.637 -0.1433  0.0517  0.7769
  160DOPC   H4X19338   6.770   5.791  15.652  0.2489 -1.0242 -2.6378
  160DOPC   H4Y19339   6.640   5.920  15.646 -2.6134 -0.2402 -0.6201
  160DOPC   C3519340   6.616   5.778  15.495  0.6936  0.1296  0.6164
  160DOPC   H5X19341   6.526   5.843  15.488  1.2453  0.9272  0.7387
  160DOPC   H5Y19342   6.590   5.671  15.481  2.0492 -0.2861  1.0409
  160DOPC   C3619343   6.714   5.814  15.383  0.0731 -0.7642 -0.1866
  160DOPC   H6X19344   6.760   5.911  15.413  1.8170 -1.4394 -0.5463
  160DOPC   H6Y19345   6.797   5.740  15.375  1.0958  0.1212  1.5864
  160DOPC   C3719346   6.642   5.827  15.248  0.3948  0.2377 -0.3268
  160DOPC   H7X19347   6.593   5.729  15.230 -0.8548  0.7018  0.4284
  160DOPC   H7Y19348   6.562   5.904  15.254  0.5634  0.5279 -1.6103
  160DOPC   C3819349   6.739   5.853  15.129 -0.2669 -0.4382 -0.0629
  160DOPC   H8X19350   6.817   5.774  15.142 -0.0213 -0.6825 -2.5668
  160DOPC   H8Y19351   6.794   5.949  15.139 -0.9240  0.0623 -1.1027
  160DOPC   C3919352   6.672   5.838  14.993 -0.0099  0.1101 -0.0920
  160DOPC   H9X19353   6.592   5.909  14.965  0.9641  0.9388 -0.8586
  160DOPC  C31019354   6.690   5.739  14.907 -0.4190 -0.1322 -0.2637
  160DOPC  H10X19355   6.649   5.753  14.806 -1.0172 -1.0090 -0.1611
  160DOPC  C31119356   6.783   5.622  14.918  0.7206  0.0808  0.0833
  160DOPC  H11X19357   6.731   5.525  14.929 -1.4884  0.7940 -2.8774
  160DOPC  H11Y19358   6.864   5.644  14.991  0.3114 -1.7098  1.1316
  160DOPC  C31219359   6.861   5.623  14.785  0.4254  0.6107 -0.3935
  160DOPC  H12X19360   6.925   5.714  14.784  0.8638  0.3341  0.8725
  160DOPC  H12Y19361   6.787   5.611  14.703 -1.1114 -0.2850  1.0867
  160DOPC  C31319362   6.964   5.506  14.798 -0.3960  0.2283 -0.1221
  160DOPC  H13X19363   7.050   5.528  14.865 -1.3779  0.6587  1.0360
  160DOPC  H13Y19364   6.912   5.416  14.838 -1.2826  0.0488 -1.5922
  160DOPC  C31419365   7.022   5.457  14.662  0.0141 -0.2110 -0.3622
  160DOPC  H14X19366   7.015   5.347  14.652  0.4960 -0.1958 -0.9142
  160DOPC  H14Y19367   6.945   5.500  14.595 -1.6153  0.5838  1.8779
  160DOPC  C31519368   7.156   5.520  14.636  0.1821  1.1256  0.1960
  160DOPC  H15X19369   7.223   5.456  14.697 -0.7293 -1.5199 -1.3830
  160DOPC  H15Y19370   7.166   5.628  14.657 -2.4546  1.1719  1.6414
  160DOPC  C31619371   7.214   5.496  14.491 -0.4087 -0.4670 -0.0201
  160DOPC  H16X19372   7.147   5.547  14.417  0.6039 -1.8186 -1.9593
  160DOPC  H16Y19373   7.318   5.533  14.494 -0.9298  1.0699 -0.0062
  160DOPC  C31719374   7.224   5.346  14.458 -0.1424 -0.1146  0.2840
  160DOPC  H17X19375   7.125   5.297  14.465  0.8751 -2.3251  0.0087
  160DOPC  H17Y19376   7.253   5.339  14.351 -2.5778 -1.6353 -0.3466
  160DOPC  C31819377   7.317   5.256  14.538 -0.6458 -0.4929  1.2657
  160DOPC  H18X19378   7.283   5.230  14.640 -1.0361  0.3594  1.3645
  160DOPC  H18Y19379   7.334   5.158  14.488  2.2643 -0.7779  2.6078
  160DOPC  H18Z19380   7.415   5.310  14.539 -1.4604  1.0786  0.2695
  161DOPC     N19381   3.341   0.643  16.731  0.0123  0.7404  0.1507
  161DOPC   C1219382   3.414   0.522  16.797  0.8575 -0.6452 -0.1060
  161DOPC  H12A19383   3.485   0.562  16.867 -0.6233  1.5358  0.2374
  161DOPC  H12B19384   3.471   0.479  16.716 -0.8380  0.4241 -1.9569
  161DOPC   C1319385   3.442   0.725  16.660 -0.0372 -0.4570  0.0342
  161DOPC  H13A19386   3.390   0.796  16.598 -0.2020 -1.6865 -1.2997
  161DOPC  H13B19387   3.516   0.767  16.728 -1.8560 -0.6619  2.2653
  161DOPC  H13C19388   3.498   0.662  16.593  0.2308  1.3019 -1.4788
  161DOPC   C1419389   3.275   0.719  16.845  0.1104 -0.3723  0.4767
  161DOPC  H14A19390   3.234   0.806  16.796  0.0186 -0.3119  0.6626
  161DOPC  H14B19391   3.196   0.664  16.895  0.1604  0.3050  1.3282
  161DOPC  H14C19392   3.343   0.745  16.924  1.0825  1.2923 -0.8386
  161DOPC   C1519393   3.240   0.596  16.630  0.2156 -0.3518 -0.6761
  161DOPC  H15A19394   3.158   0.663  16.611 -1.1403 -1.4073  1.1384
  161DOPC  H15B19395   3.189   0.507  16.662  1.2354 -0.8414 -0.3642
  161DOPC  H15C19396   3.283   0.573  16.534 -0.2363  0.0660 -0.9832
  161DOPC   C1119397   3.337   0.403  16.868 -1.0351 -0.2535 -0.0915
  161DOPC  H11A19398   3.414   0.337  16.913  0.2971  0.2090 -1.6146
  161DOPC  H11B19399   3.268   0.448  16.943 -2.6481  0.1171 -1.7320
  161DOPC     P19400   3.325   0.208  16.700 -0.8667 -0.0490 -0.5039
  161DOPC   O1319401   3.340   0.098  16.797  0.3429  0.3159 -0.0428
  161DOPC   O1419402   3.438   0.249  16.616  0.0435  0.2196  0.3206
  161DOPC   O1219403   3.254   0.331  16.774 -0.0253 -0.7741 -0.0424
  161DOPC   O1119404   3.201   0.167  16.610 -0.5017  0.3346  0.6838
  161DOPC    C119405   3.153   0.246  16.496 -0.7209  0.1650  0.0419
  161DOPC    HA19406   3.198   0.347  16.499 -1.2602  0.4750 -1.5492
  161DOPC    HB19407   3.047   0.263  16.524 -0.7703 -0.2305  0.1036
  161DOPC    C219408   3.186   0.191  16.354  0.0258 -0.1085 -0.0411
  161DOPC    HS19409   3.177   0.281  16.289  0.6428 -0.0670 -0.0781
  161DOPC   O2119410   3.085   0.100  16.306  0.5474 -0.5235 -0.4565
  161DOPC   C2119411   3.035   0.107  16.178 -0.6049  0.0396  0.0917
  161DOPC   O2219412   3.062   0.190  16.096 -0.1248 -0.3858 -0.8520
  161DOPC   C2219413   2.941  -0.007  16.146  0.7729 -0.1324  0.3195
  161DOPC   H2R19414   2.875   0.042  16.071  1.4906 -2.1802 -1.7733
  161DOPC   H2S19415   2.873  -0.023  16.232 -1.7407 -2.6756 -1.9437
  161DOPC    C319416   3.329   0.127  16.341  0.1381 -0.3389  0.3981
  161DOPC    HX19417   3.336   0.036  16.404  0.1388 -0.4872  0.1806
  161DOPC    HY19418   3.400   0.207  16.372 -0.0546  1.1108 -2.5744
  161DOPC   O3119419   3.352   0.089  16.205  0.0550  0.1901  0.3505
  161DOPC   C3119420   3.429   0.162  16.125 -0.4629  0.0887 -0.0152
  161DOPC   O3219421   3.486   0.265  16.160 -0.2267  0.3291  0.1173
  161DOPC   C3219422   3.442   0.085  15.993 -0.0832 -0.4552  0.5445
  161DOPC   H2X19423   3.542   0.037  15.985  0.5935  0.7506  1.4811
  161DOPC   H2Y19424   3.359   0.010  15.995 -0.2046 -0.4205 -1.4110
  161DOPC   C2319425   3.010  -0.128  16.089 -0.1226  0.1971 -0.2382
  161DOPC   H3R19426   2.932  -0.206  16.074 -1.1244  0.6491  2.1369
  161DOPC   H3S19427   3.079  -0.151  16.172  0.9153  0.1781 -1.0919
  161DOPC   C2419428   3.095  -0.107  15.965 -0.4938  0.5232  0.4781
  161DOPC   H4R19429   3.170  -0.189  15.959 -2.0156 -0.8176 -1.5827
  161DOPC   H4S19430   3.142  -0.007  15.962 -3.5880  2.0645 -0.2522
  161DOPC   C2519431   3.010  -0.127  15.841 -0.1971 -0.4627  0.2592
  161DOPC   H5R19432   2.922  -0.059  15.847  0.6099  0.5231  1.1124
  161DOPC   H5S19433   2.978  -0.233  15.852  0.4670 -0.8559 -1.3861
  161DOPC   C2619434   3.076  -0.103  15.703  0.2516 -0.2754 -0.2363
  161DOPC   H6R19435   3.157  -0.179  15.690  1.3819  1.1650 -2.2938
  161DOPC   H6S19436   3.112   0.002  15.710 -1.0708  0.0640  2.8724
  161DOPC   C2719437   2.972  -0.122  15.584  0.2891  0.4374 -0.6434
  161DOPC   H7R19438   2.891  -0.053  15.617  0.9994  0.3371  1.5025
  161DOPC   H7S19439   2.936  -0.226  15.599  1.7032  0.1426  1.1397
  161DOPC   C2819440   3.030  -0.096  15.440  0.4209 -0.7636 -0.0255
  161DOPC   H8R19441   3.072   0.007  15.442 -1.7706  0.2455 -1.5376
  161DOPC   H8S19442   2.933  -0.099  15.387  0.9147 -2.1148 -0.9076
  161DOPC   C2919443   3.130  -0.189  15.391 -0.6653  0.5769  0.2405
  161DOPC   H9R19444   3.199  -0.223  15.470 -0.3678 -0.2280 -0.3550
  161DOPC  C21019445   3.125  -0.254  15.279 -0.5155  0.1096  0.4185
  161DOPC  H10R19446   3.198  -0.333  15.256  0.0369  1.2877 -2.2578
  161DOPC  C21119447   3.031  -0.234  15.163 -0.2847  0.4862  0.1965
  161DOPC  H11R19448   2.951  -0.161  15.186 -2.6477 -1.6288 -0.8848
  161DOPC  H11S19449   2.980  -0.325  15.126 -0.4229  1.4874 -2.2641
  161DOPC  C21219450   3.099  -0.168  15.041  0.3789 -0.3390  0.2561
  161DOPC  H12R19451   3.184  -0.226  15.001  0.4423  0.2808 -0.5246
  161DOPC  H12S19452   3.144  -0.069  15.067  0.9225 -0.9635  1.8561
  161DOPC  C21319453   3.010  -0.156  14.916 -0.1107 -0.6706 -0.2557
  161DOPC  H13R19454   3.065  -0.100  14.837  1.8958 -0.3581  1.2982
  161DOPC  H13S19455   2.924  -0.093  14.950  0.8637  0.2608  0.5593
  161DOPC  C21419456   2.964  -0.285  14.842  0.1040 -0.0162 -0.1489
  161DOPC  H14R19457   2.895  -0.339  14.911  1.1610  1.1264  1.9273
  161DOPC  H14S19458   3.050  -0.353  14.825 -0.9714 -1.5771  0.4416
  161DOPC  C21519459   2.902  -0.255  14.705  0.4139  0.2294 -0.9123
  161DOPC  H15R19460   2.972  -0.190  14.648  0.4152 -0.9487 -2.3185
  161DOPC  H15S19461   2.807  -0.199  14.718  0.1978 -0.4386  0.5252
  161DOPC  C21619462   2.876  -0.376  14.623  0.1940  0.1032 -0.1205
  161DOPC  H16R19463   2.936  -0.463  14.655 -2.1988 -1.0451  1.5508
  161DOPC  H16S19464   2.891  -0.351  14.516 -0.6492 -0.1710 -0.3141
  161DOPC  C21719465   2.732  -0.428  14.620 -0.0837 -0.1821  0.2182
  161DOPC  H17R19466   2.665  -0.345  14.590  1.3759  0.4199 -1.5917
  161DOPC  H17S19467   2.705  -0.468  14.720  0.1537 -2.2194 -0.4795
  161DOPC  C21819468   2.727  -0.537  14.518  0.2288  1.1275 -0.4471
  161DOPC  H18R19469   2.782  -0.515  14.425 -1.1884 -3.7790 -2.7750
  161DOPC  H18S19470   2.625  -0.570  14.487  0.4775  0.7577 -0.8761
  161DOPC  H18T19471   2.786  -0.627  14.547  1.5178  1.4301 -2.0484
  161DOPC   C3319472   3.418   0.179  15.877 -0.0794  0.4304  0.3419
  161DOPC   H3X19473   3.486   0.266  15.867 -2.2576  2.4561  2.0105
  161DOPC   H3Y19474   3.317   0.225  15.867  0.3088  1.3475  0.4850
  161DOPC   C3419475   3.437   0.091  15.753 -0.4092 -0.1043 -0.0225
  161DOPC   H4X19476   3.368   0.004  15.755 -1.1547  0.4789  0.7212
  161DOPC   H4Y19477   3.538   0.046  15.761 -1.1635 -1.7632  0.6858
  161DOPC   C3519478   3.417   0.172  15.621  0.1245  0.0695 -0.2542
  161DOPC   H5X19479   3.479   0.264  15.622 -0.0518  0.1977  0.9626
  161DOPC   H5Y19480   3.310   0.196  15.609 -0.2757 -1.7767 -0.7472
  161DOPC   C3619481   3.436   0.085  15.497  0.0496  0.4952  0.6134
  161DOPC   H6X19482   3.536   0.037  15.485  0.8527  2.2522 -0.1085
  161DOPC   H6Y19483   3.362   0.003  15.492 -0.6729  1.2279 -1.8057
  161DOPC   C3719484   3.392   0.163  15.366  1.0191 -0.1428 -0.9061
  161DOPC   H7X19485   3.296   0.215  15.389 -0.2410 -1.5083 -2.7299
  161DOPC   H7Y19486   3.468   0.240  15.342  1.4903 -0.5113 -0.6111
  161DOPC   C3819487   3.374   0.083  15.248  0.3155  0.4276 -0.1246
  161DOPC   H8X19488   3.313  -0.004  15.279 -0.1196  1.2470  1.3889
  161DOPC   H8Y19489   3.471   0.030  15.239  0.4188  0.4641  0.7388
  161DOPC   C3919490   3.325   0.163  15.124  0.1947  0.3914 -0.6963
  161DOPC   H9X19491   3.230   0.218  15.133 -0.3635 -0.5083 -0.9784
  161DOPC  C31019492   3.394   0.174  15.012 -0.3017 -0.7739 -0.1155
  161DOPC  H10X19493   3.355   0.241  14.934 -0.4068 -0.6432  0.0479
  161DOPC  C31119494   3.530   0.115  14.979  0.3368 -0.1189 -0.1608
  161DOPC  H11X19495   3.588   0.088  15.070 -0.7397 -1.7589  0.0752
  161DOPC  H11Y19496   3.597   0.186  14.925 -0.1957 -0.5722 -1.4549
  161DOPC  C31219497   3.515  -0.014  14.897  0.3260  1.1941  0.0750
  161DOPC  H12X19498   3.464  -0.096  14.953  1.4897  1.1604  1.1302
  161DOPC  H12Y19499   3.616  -0.052  14.871 -0.5284 -0.7024 -0.6001
  161DOPC  C31319500   3.455  -0.001  14.761  0.1412  1.0480 -0.2885
  161DOPC  H13X19501   3.357   0.047  14.782  0.0675  0.2308  1.4468
  161DOPC  H13Y19502   3.512   0.068  14.695  0.5098  0.6278 -0.4161
  161DOPC  C31419503   3.411  -0.135  14.703  0.0626  0.5834  0.8383
  161DOPC  H14X19504   3.496  -0.195  14.663 -0.5030 -0.0673  0.6000
  161DOPC  H14Y19505   3.343  -0.186  14.774 -2.4571  2.7869  0.1661
  161DOPC  C31519506   3.331  -0.108  14.573  0.3960  0.0885  1.0480
  161DOPC  H15X19507   3.259  -0.027  14.597 -2.0428 -1.4147 -0.6424
  161DOPC  H15Y19508   3.287  -0.205  14.539  0.3878  0.1215  0.9654
  161DOPC  C31619509   3.411  -0.060  14.448  0.5741 -0.0202  1.1776
  161DOPC  H16X19510   3.474   0.020  14.494  0.3118  0.2247  1.1153
  161DOPC  H16Y19511   3.477  -0.132  14.394  1.7952  2.1927 -0.4654
  161DOPC  C31719512   3.315   0.010  14.342 -0.1301  0.4690 -0.3879
  161DOPC  H17X19513   3.252  -0.063  14.286 -0.0216  0.1513 -0.0987
  161DOPC  H17Y19514   3.242   0.073  14.397 -0.8995 -2.1672  1.8585
  161DOPC  C31819515   3.406   0.066  14.231  0.1072 -0.2881 -0.1309
  161DOPC  H18X19516   3.459  -0.017  14.180  1.2260  0.2547  0.1045
  161DOPC  H18Y19517   3.352   0.126  14.154  1.4590  1.1305 -0.0316
  161DOPC  H18Z19518   3.479   0.132  14.282  0.9587  1.2129 -3.0674
  162DOPC     N19519   0.022   5.691  16.412  0.3039  0.2034 -0.2984
  162DOPC   C1219520   0.113   5.783  16.328 -0.6615 -0.7134  0.0277
  162DOPC  H12A19521   0.148   5.731  16.241 -0.1113  1.1392 -0.9077
  162DOPC  H12B19522   0.206   5.797  16.382 -0.6574  0.5603 -0.2772
  162DOPC   C1319523  -0.116   5.673  16.358  0.1242 -0.0096  0.2799
  162DOPC  H13A19524  -0.111   5.627  16.261 -0.8242 -0.5828  0.4874
  162DOPC  H13B19525  -0.174   5.620  16.432 -0.2597  0.2571  0.1799
  162DOPC  H13C19526  -0.167   5.765  16.335 -1.5709 -1.0628 -0.3399
  162DOPC   C1419527   0.016   5.747  16.551 -0.3727  0.6547 -0.6022
  162DOPC  H14A19528  -0.051   5.688  16.611 -0.1348 -0.0368 -1.0009
  162DOPC  H14B19529   0.108   5.743  16.608 -0.4917 -0.3997 -0.4630
  162DOPC  H14C19530  -0.022   5.848  16.553 -0.2867  0.6942  1.9348
  162DOPC   C1519531   0.082   5.554  16.429 -0.2977 -0.1419  0.6898
  162DOPC  H15A19532   0.184   5.570  16.460  0.3850 -3.5509  0.5566
  162DOPC  H15B19533   0.073   5.502  16.335  1.1111 -0.6816  0.8207
  162DOPC  H15C19534   0.036   5.490  16.502  1.3602 -0.2012  1.7295
  162DOPC   C1119535   0.049   5.920  16.302  0.3700 -0.6829  0.1894
  162DOPC  H11A19536   0.125   5.967  16.237  0.8230 -0.8602  0.5875
  162DOPC  H11B19537  -0.042   5.907  16.240 -0.5048 -0.2895  1.3402
  162DOPC     P19538   0.065   6.133  16.455 -0.3899  0.0454 -0.4295
  162DOPC   O1319539   0.199   6.115  16.525  0.0010 -0.3982  0.5659
  162DOPC   O1419540  -0.045   6.202  16.531  0.4036  0.4163  0.3795
  162DOPC   O1219541   0.012   6.000  16.412  0.5148  0.1515 -0.3085
  162DOPC   O1119542   0.090   6.223  16.320 -0.5042  0.2030 -0.0776
  162DOPC    C119543  -0.021   6.247  16.237  0.0622 -0.1072 -0.7748
  162DOPC    HA19544  -0.089   6.324  16.279 -1.8424 -1.3032 -1.5686
  162DOPC    HB19545  -0.073   6.152  16.218  1.8083 -1.3364  0.2786
  162DOPC    C219546   0.031   6.302  16.097 -0.1621  0.1195  0.3342
  162DOPC    HS19547  -0.062   6.300  16.037 -0.3595 -0.0609  0.6448
  162DOPC   O2119548   0.129   6.208  16.048  0.0588 -0.0501  0.6249
  162DOPC   C2119549   0.084   6.091  15.995  0.0302  0.3039  0.8503
  162DOPC   O2219550  -0.030   6.054  15.988 -0.6322 -0.1234  0.1730
  162DOPC   C2219551   0.202   6.017  15.935  0.0642  0.0478 -0.1139
  162DOPC   H2R19552   0.201   5.911  15.967  4.4535 -0.3097 -0.6751
  162DOPC   H2S19553   0.297   6.055  15.978  0.2390 -1.2150  0.6587
  162DOPC    C319554   0.094   6.445  16.095 -0.2036 -0.6421  0.7373
  162DOPC    HX19555   0.191   6.447  16.151 -0.8772  0.4114  1.9289
  162DOPC    HY19556   0.023   6.511  16.150  0.2843  0.9645 -0.4810
  162DOPC   O3119557   0.093   6.482  15.957 -0.2722 -0.5528  0.3138
  162DOPC   C3119558   0.209   6.491  15.893  0.9935 -0.1617 -0.2397
  162DOPC   O3219559   0.317   6.481  15.949 -0.1019  0.3207 -0.6149
  162DOPC   C3219560   0.197   6.504  15.742 -0.0949 -0.5720 -0.1988
  162DOPC   H2X19561   0.096   6.473  15.709  0.8828 -1.4676 -2.5465
  162DOPC   H2Y19562   0.193   6.614  15.722  1.0114 -0.4481  0.1929
  162DOPC   C2319563   0.193   6.022  15.786 -0.1054  1.0418  0.2889
  162DOPC   H3R19564   0.214   6.125  15.752 -0.0288  0.4436 -1.6010
  162DOPC   H3S19565   0.096   6.002  15.735  0.5494 -3.1116  0.2724
  162DOPC   C2419566   0.290   5.924  15.714 -0.1104  0.6353 -1.3474
  162DOPC   H4R19567   0.244   5.827  15.739 -1.0671  1.3372 -0.2680
  162DOPC   H4S19568   0.388   5.920  15.767 -1.1573  1.1248  0.7554
  162DOPC   C2519569   0.304   5.943  15.565  0.3857 -0.7606 -0.4351
  162DOPC   H5R19570   0.357   6.040  15.552 -1.9877  0.6376 -0.2278
  162DOPC   H5S19571   0.204   5.962  15.521 -1.0397 -1.1241  2.3723
  162DOPC   C2619572   0.372   5.822  15.498 -0.4151  0.1574 -0.1793
  162DOPC   H6R19573   0.315   5.727  15.506  0.2720 -0.4470 -1.9804
  162DOPC   H6S19574   0.464   5.786  15.549 -0.3028 -1.7935 -1.6350
  162DOPC   C2719575   0.387   5.837  15.344  0.2749 -0.1999 -0.4704
  162DOPC   H7R19576   0.471   5.908  15.331 -2.0620  2.6940 -1.0992
  162DOPC   H7S19577   0.295   5.874  15.293  1.2409 -0.1337 -2.2495
  162DOPC   C2819578   0.433   5.715  15.267 -0.2867 -0.0221  0.0553
  162DOPC   H8R19579   0.370   5.633  15.308 -0.2582  0.2404  0.6380
  162DOPC   H8S19580   0.536   5.701  15.307 -0.4873  0.8521  0.9099
  162DOPC   C2919581   0.425   5.721  15.116  0.4524  0.6442 -0.2765
  162DOPC   H9R19582   0.329   5.684  15.077  0.3674  0.2118  0.3243
  162DOPC  C21019583   0.515   5.765  15.032 -0.1597 -0.4140 -0.3751
  162DOPC  H10R19584   0.506   5.770  14.922 -0.1310  0.0907 -0.3582
  162DOPC  C21119585   0.644   5.825  15.081 -0.1857  0.0864 -0.5386
  162DOPC  H11R19586   0.719   5.745  15.092 -0.6150 -0.2499 -0.0493
  162DOPC  H11S19587   0.638   5.878  15.178  0.2417 -0.3896 -0.2528
  162DOPC  C21219588   0.702   5.921  14.970  0.5949 -0.8419 -0.7774
  162DOPC  H12R19589   0.776   5.987  15.021 -0.0036 -0.9796  0.2977
  162DOPC  H12S19590   0.627   5.995  14.934 -0.5360 -1.1492  0.8718
  162DOPC  C21319591   0.784   5.855  14.860 -0.0499  0.5584 -0.3397
  162DOPC  H13R19592   0.718   5.788  14.800 -0.1063  0.4342 -0.1403
  162DOPC  H13S19593   0.852   5.780  14.906 -2.3697 -0.5489  1.5120
  162DOPC  C21419594   0.842   5.963  14.766 -0.2072 -0.1629 -0.2286
  162DOPC  H14R19595   0.903   6.040  14.818 -0.8551  0.9238 -1.0520
  162DOPC  H14S19596   0.753   6.019  14.730 -1.1123 -0.0185  2.0866
  162DOPC  C21519597   0.922   5.921  14.641  0.1649  0.5369 -0.4054
  162DOPC  H15R19598   0.852   5.876  14.568 -0.6924  0.7292  0.2797
  162DOPC  H15S19599   0.995   5.843  14.672  0.0231  0.5952  0.0934
  162DOPC  C21619600   0.994   6.031  14.561 -0.6440  0.6446  0.3103
  162DOPC  H16R19601   1.069   5.995  14.487  0.2305  2.8366  0.0412
  162DOPC  H16S19602   1.056   6.087  14.635 -2.4175 -0.2675  2.5924
  162DOPC  C21719603   0.895   6.122  14.494 -0.2540 -0.2418 -0.4890
  162DOPC  H17R19604   0.807   6.136  14.561  0.3314 -2.2908  0.7997
  162DOPC  H17S19605   0.854   6.072  14.404 -1.3259 -0.3997  0.0700
  162DOPC  C21819606   0.963   6.261  14.461 -0.2553  0.5113 -0.7577
  162DOPC  H18R19607   0.995   6.312  14.554 -0.7861 -0.0485 -0.2626
  162DOPC  H18S19608   0.898   6.324  14.397  0.8986  0.5345 -1.9581
  162DOPC  H18T19609   1.053   6.244  14.398  0.7329 -0.7497  0.8896
  162DOPC   C3319610   0.301   6.417  15.673 -0.1493  0.6786  0.9743
  162DOPC   H3X19611   0.297   6.310  15.703  1.4427  0.3147  0.0260
  162DOPC   H3Y19612   0.404   6.459  15.672  0.4155 -0.6024 -0.9569
  162DOPC   C3419613   0.280   6.420  15.515 -0.3535 -0.7863  0.2898
  162DOPC   H4X19614   0.177   6.383  15.498 -0.9493  0.9274 -0.0354
  162DOPC   H4Y19615   0.355   6.359  15.460 -0.4952 -0.1009 -0.6789
  162DOPC   C3519616   0.294   6.564  15.466 -0.1392  0.4245  1.0574
  162DOPC   H5X19617   0.399   6.601  15.465  0.3354 -0.8679  1.3049
  162DOPC   H5Y19618   0.232   6.631  15.530 -2.4157 -0.0606 -0.4973
  162DOPC   C3619619   0.239   6.561  15.320  0.1422 -0.0489 -0.7056
  162DOPC   H6X19620   0.294   6.486  15.260 -1.0535 -0.3608 -1.4376
  162DOPC   H6Y19621   0.134   6.525  15.317  1.1108 -3.8771  2.4110
  162DOPC   C3719622   0.244   6.702  15.251  0.1678 -0.5127  0.2062
  162DOPC   H7X19623   0.176   6.771  15.305  0.0223  2.3849 -3.2569
  162DOPC   H7Y19624   0.344   6.750  15.255  0.1547 -0.2596 -1.5835
  162DOPC   C3819625   0.199   6.696  15.108 -0.4190 -0.1664  0.5992
  162DOPC   H8X19626   0.179   6.800  15.076 -0.9821 -0.2192  0.7588
  162DOPC   H8Y19627   0.104   6.638  15.105 -0.9135  0.6590 -0.5963
  162DOPC   C3919628   0.303   6.643  15.022  0.4781  0.2196 -0.5490
  162DOPC   H9X19629   0.367   6.564  15.066 -0.2127  0.7393  1.5279
  162DOPC  C31019630   0.316   6.675  14.893  0.0829 -0.0848  0.3481
  162DOPC  H10X19631   0.389   6.616  14.837 -0.3535  0.4742 -0.8506
  162DOPC  C31119632   0.246   6.783  14.813 -0.2912 -0.1743 -0.5963
  162DOPC  H11X19633   0.318   6.866  14.797  1.4410 -1.6179 -0.5729
  162DOPC  H11Y19634   0.166   6.836  14.868  1.9736  1.9509  0.8478
  162DOPC  C31219635   0.180   6.736  14.681  0.5311  0.1544 -0.5149
  162DOPC  H12X19636   0.264   6.712  14.612  2.1728 -1.9726  2.0394
  162DOPC  H12Y19637   0.119   6.807  14.621 -1.8755 -1.2824  0.0607
  162DOPC  C31319638   0.093   6.616  14.691  1.1877 -0.3694 -0.4363
  162DOPC  H13X19639   0.147   6.541  14.754 -1.1161 -0.4905  1.5771
  162DOPC  H13Y19640   0.001   6.635  14.751  1.3581  1.0870 -0.6055
  162DOPC  C31419641   0.060   6.551  14.553  0.7934  0.0186 -0.1852
  162DOPC  H14X19642   0.059   6.626  14.471 -0.1453  0.0790 -0.1196
  162DOPC  H14Y19643   0.146   6.484  14.531  1.1313  0.0588  0.9913
  162DOPC  C31519644  -0.073   6.483  14.556 -0.3083  0.4855 -0.3023
  162DOPC  H15X19645  -0.154   6.548  14.596 -0.5287 -0.9172  1.6854
  162DOPC  H15Y19646  -0.075   6.396  14.626 -3.0982  0.3297 -0.4435
  162DOPC  C31619647  -0.115   6.434  14.415 -0.0493  0.0287 -0.2176
  162DOPC  H16X19648  -0.163   6.505  14.344  0.5192  1.3377  0.6612
  162DOPC  H16Y19649  -0.023   6.405  14.361 -1.7302 -0.9414 -2.7217
  162DOPC  C31719650  -0.207   6.310  14.415  0.2121 -0.1669  1.0886
  162DOPC  H17X19651  -0.226   6.292  14.307  0.7992  1.6500  0.6523
  162DOPC  H17Y19652  -0.145   6.227  14.457 -2.5596 -2.5745  0.7287
  162DOPC  C31819653  -0.344   6.329  14.483 -0.3400  0.1134  0.3506
  162DOPC  H18X19654  -0.398   6.418  14.444 -1.0576  0.2112  1.4893
  162DOPC  H18Y19655  -0.407   6.237  14.471  0.1320  0.1492 -3.9743
  162DOPC  H18Z19656  -0.319   6.354  14.588  0.7686  2.6334 -0.4486
  163DOPC     N19657   6.740   3.347  17.002  0.1574  0.0040  0.3158
  163DOPC   C1219658   6.704   3.436  16.886  0.1142 -0.1595  0.2097
  163DOPC  H12A19659   6.798   3.449  16.834 -0.5589 -0.5011 -1.1408
  163DOPC  H12B19660   6.678   3.536  16.918  0.4881  0.6172 -1.7883
  163DOPC   C1319661   6.777   3.209  16.955  0.1205 -0.7937 -0.2663
  163DOPC  H13A19662   6.813   3.141  17.031 -0.0033 -1.2028 -0.5705
  163DOPC  H13B19663   6.696   3.169  16.896 -1.6267  1.1634  0.6735
  163DOPC  H13C19664   6.857   3.223  16.884  0.4101 -2.2898 -0.2650
  163DOPC   C1419665   6.613   3.339  17.088 -0.4633  0.3751  0.9743
  163DOPC  H14A19666   6.537   3.289  17.030  0.5260 -0.8460  0.6717
  163DOPC  H14B19667   6.640   3.281  17.175 -1.2197  2.1181  2.4182
  163DOPC  H14C19668   6.579   3.435  17.125  1.0325 -0.4353  4.8467
  163DOPC   C1519669   6.847   3.412  17.080 -0.3902  0.1183 -0.4924
  163DOPC  H15A19670   6.888   3.340  17.149 -2.4063 -0.0743  0.5886
  163DOPC  H15B19671   6.811   3.493  17.141  3.0562  0.9050  0.6931
  163DOPC  H15C19672   6.931   3.456  17.029  0.3860 -0.5170  0.1927
  163DOPC   C1119673   6.600   3.376  16.780  0.2013  0.5462  0.5414
  163DOPC  H11A19674   6.608   3.443  16.692 -3.4010  1.2792  0.6355
  163DOPC  H11B19675   6.630   3.275  16.745  0.4118  0.0711  2.0382
  163DOPC     P19676   6.366   3.279  16.810 -0.1023  0.1666  0.2339
  163DOPC   O1319677   6.233   3.308  16.867  0.2040 -0.1953  0.1083
  163DOPC   O1419678   6.429   3.151  16.846 -0.1421  0.2851  0.2368
  163DOPC   O1219679   6.470   3.390  16.838 -0.0578  0.7627  0.3235
  163DOPC   O1119680   6.363   3.287  16.652  0.3085  1.0025 -0.1429
  163DOPC    C119681   6.278   3.377  16.583 -0.5166  0.0895  0.4531
  163DOPC    HA19682   6.270   3.475  16.634 -0.1637  0.0575  0.5748
  163DOPC    HB19683   6.184   3.321  16.563 -1.2484  1.6973 -0.8714
  163DOPC    C219684   6.332   3.405  16.433  0.0625  0.4007 -0.1080
  163DOPC    HS19685   6.324   3.512  16.406 -0.6541  0.1555 -0.9059
  163DOPC   O2119686   6.266   3.324  16.331 -0.0473 -0.3644 -0.4796
  163DOPC   C2119687   6.149   3.367  16.286  0.1366 -0.0010 -0.1297
  163DOPC   O2219688   6.098   3.476  16.313 -0.2951 -0.0881  0.0539
  163DOPC   C2219689   6.082   3.257  16.197 -0.2455 -0.0098 -0.4002
  163DOPC   H2R19690   6.020   3.204  16.273 -0.1245  1.3960  0.7368
  163DOPC   H2S19691   6.155   3.182  16.160 -1.7779 -1.3001 -0.9344
  163DOPC    C319692   6.484   3.382  16.431  0.4904  0.4731 -0.2381
  163DOPC    HX19693   6.508   3.274  16.440  0.2107  0.3158 -1.2526
  163DOPC    HY19694   6.531   3.425  16.522 -1.4546  1.0942  0.5268
  163DOPC   O3119695   6.538   3.441  16.310  0.1308  0.3867 -0.2628
  163DOPC   C3119696   6.581   3.354  16.212  0.3067  0.4428 -0.3443
  163DOPC   O3219697   6.610   3.241  16.227 -0.2227  0.6221 -0.2873
  163DOPC   C3219698   6.574   3.435  16.091  0.5998 -0.0781  0.7821
  163DOPC   H2X19699   6.543   3.539  16.110 -0.6921 -0.4769  0.9701
  163DOPC   H2Y19700   6.677   3.451  16.052 -0.0090  3.8747  0.3857
  163DOPC   C2319701   5.987   3.309  16.091 -0.0964 -0.1643 -0.3833
  163DOPC   H3R19702   5.941   3.402  16.132  0.0198  0.2098 -1.0852
  163DOPC   H3S19703   5.914   3.229  16.069 -2.1576  1.8395 -1.3154
  163DOPC   C2419704   6.050   3.346  15.960 -0.7839 -0.3638  0.0443
  163DOPC   H4R19705   6.103   3.260  15.915 -0.8546  1.0528 -3.0132
  163DOPC   H4S19706   6.134   3.420  15.963  0.2360 -1.3979 -1.3430
  163DOPC   C2519707   5.946   3.403  15.864 -0.3402  0.6400  0.0099
  163DOPC   H5R19708   5.884   3.488  15.901 -1.1574 -0.1580  0.4844
  163DOPC   H5S19709   5.869   3.325  15.848  1.2998 -1.2924  1.1315
  163DOPC   C2619710   6.010   3.439  15.727 -0.5564  0.0601 -0.0302
  163DOPC   H6R19711   6.052   3.345  15.684 -1.1554 -0.0054 -0.4761
  163DOPC   H6S19712   6.091   3.513  15.739 -2.2169  2.0052 -0.3559
  163DOPC   C2719713   5.913   3.507  15.622 -0.2900  0.4107  0.6608
  163DOPC   H7R19714   5.969   3.576  15.556 -0.8390  0.3304  0.1007
  163DOPC   H7S19715   5.838   3.559  15.685 -1.0187 -2.2168  2.0996
  163DOPC   C2819716   5.830   3.420  15.522 -0.0368  1.0958  0.5701
  163DOPC   H8R19717   5.772   3.490  15.458 -0.9668 -0.4749 -0.3963
  163DOPC   H8S19718   5.761   3.356  15.582 -0.6311 -0.9101 -2.0184
  163DOPC   C2919719   5.917   3.327  15.436 -0.1872 -0.0163  0.7580
  163DOPC   H9R19720   5.998   3.281  15.495  3.2358  2.6174 -1.4973
  163DOPC  C21019721   5.900   3.307  15.308 -0.2946  0.2118 -0.2009
  163DOPC  H10R19722   5.970   3.243  15.252 -0.5604  0.8116 -1.2586
  163DOPC  C21119723   5.800   3.376  15.220  0.3773  0.4926 -0.3941
  163DOPC  H11R19724   5.771   3.474  15.263  1.3963 -0.4673  2.7418
  163DOPC  H11S19725   5.703   3.321  15.220  0.3136  0.5952 -1.0142
  163DOPC  C21219726   5.852   3.384  15.076  0.3035 -0.6077  0.3287
  163DOPC  H12R19727   5.960   3.407  15.067  0.3692 -0.7494  0.7220
  163DOPC  H12S19728   5.784   3.443  15.011 -1.4468 -1.2056  1.5355
  163DOPC  C21319729   5.839   3.249  15.008 -0.1927 -0.1473 -0.4993
  163DOPC  H13R19730   5.735   3.213  15.021  0.0978 -0.8215  0.0098
  163DOPC  H13S19731   5.906   3.176  15.057 -0.0223  1.3102  1.5788
  163DOPC  C21419732   5.858   3.253  14.855 -0.6317 -0.7685  0.5189
  163DOPC  H14R19733   5.819   3.344  14.804  1.6284 -1.1459 -2.1074
  163DOPC  H14S19734   5.818   3.162  14.806 -1.1702 -0.3640  0.2069
  163DOPC  C21519735   6.005   3.254  14.811  0.1985 -0.0417 -0.2867
  163DOPC  H15R19736   6.061   3.182  14.875 -0.5981  0.9047  1.5375
  163DOPC  H15S19737   6.050   3.355  14.821  1.9508 -0.8293  0.3621
  163DOPC  C21619738   6.021   3.204  14.668  0.4628 -0.0487  0.3432
  163DOPC  H16R19739   5.948   3.261  14.606  0.9739  1.2964  0.9279
  163DOPC  H16S19740   6.001   3.096  14.658 -0.6267  0.1832 -0.1168
  163DOPC  C21719741   6.163   3.240  14.637 -0.2665  0.6283  0.1408
  163DOPC  H17R19742   6.234   3.190  14.707  0.4507  2.0822  0.4981
  163DOPC  H17S19743   6.181   3.345  14.668 -1.6827  0.9077  0.0822
  163DOPC  C21819744   6.200   3.226  14.496 -0.5755 -0.4394  0.0420
  163DOPC  H18R19745   6.309   3.237  14.478 -0.5502 -2.1124 -1.0484
  163DOPC  H18S19746   6.158   3.307  14.432  0.1701  0.4595  0.6591
  163DOPC  H18T19747   6.170   3.140  14.433  1.9197  0.3303 -2.3737
  163DOPC   C3319748   6.499   3.374  15.964  0.1213 -0.0761  0.1310
  163DOPC   H3X19749   6.410   3.314  15.992 -0.0878  0.8859  1.6076
  163DOPC   H3Y19750   6.565   3.296  15.921 -1.7645 -1.1693 -0.9399
  163DOPC   C3419751   6.481   3.474  15.852 -0.1480 -0.0422  0.0301
  163DOPC   H4X19752   6.582   3.504  15.817 -0.3414  0.7819  0.1496
  163DOPC   H4Y19753   6.432   3.563  15.898 -0.7013  0.0148 -0.6490
  163DOPC   C3519754   6.412   3.408  15.736 -0.4603  0.9630  0.2230
  163DOPC   H5X19755   6.303   3.414  15.756 -0.4421  1.1057  0.2811
  163DOPC   H5Y19756   6.447   3.303  15.723 -0.0286  1.0923  0.3155
  163DOPC   C3619757   6.437   3.488  15.602  0.1497  0.3380  0.3197
  163DOPC   H6X19758   6.405   3.591  15.629 -1.4749 -0.5850  2.2177
  163DOPC   H6Y19759   6.546   3.495  15.585 -0.1729 -0.3000 -2.3687
  163DOPC   C3719760   6.364   3.425  15.477 -0.0156 -0.5360 -0.2704
  163DOPC   H7X19761   6.402   3.322  15.458 -1.6078 -1.6567  2.0913
  163DOPC   H7Y19762   6.259   3.425  15.512  0.6131  0.3355  1.7543
  163DOPC   C3819763   6.378   3.518  15.354 -0.2277  0.3289  0.1103
  163DOPC   H8X19764   6.485   3.519  15.324 -0.6502 -2.0340 -1.8098
  163DOPC   H8Y19765   6.348   3.618  15.392  0.4837 -0.4915  3.1336
  163DOPC   C3919766   6.280   3.478  15.240 -1.4717  0.5303 -0.0531
  163DOPC   H9X19767   6.213   3.396  15.271 -1.6894  0.9526  0.6158
  163DOPC  C31019768   6.262   3.536  15.125 -0.7140 -0.3905  0.3965
  163DOPC  H10X19769   6.192   3.501  15.047  1.3918 -1.4403 -1.1407
  163DOPC  C31119770   6.339   3.655  15.070  0.0790  0.1700 -0.5630
  163DOPC  H11X19771   6.413   3.694  15.143  1.1988  0.1868 -1.6590
  163DOPC  H11Y19772   6.263   3.735  15.064 -0.0018  0.4404  2.6643
  163DOPC  C31219773   6.420   3.634  14.941  0.1934  0.3569  0.6632
  163DOPC  H12X19774   6.496   3.555  14.960 -1.6512 -1.3671  1.2014
  163DOPC  H12Y19775   6.468   3.728  14.907 -0.5732  0.3568 -0.5176
  163DOPC  C31319776   6.327   3.596  14.820  1.0254  0.1794  0.2213
  163DOPC  H13X19777   6.266   3.513  14.861  1.0878  0.2846  0.5294
  163DOPC  H13Y19778   6.250   3.673  14.795 -0.2267 -1.4555 -1.1637
  163DOPC  C31419779   6.408   3.550  14.697  0.3994  1.1288 -0.1172
  163DOPC  H14X19780   6.502   3.496  14.724 -0.7055 -1.4786 -1.1276
  163DOPC  H14Y19781   6.350   3.481  14.632  0.5606 -1.9044  2.6971
  163DOPC  C31519782   6.460   3.666  14.614 -0.1094  0.3520  0.0474
  163DOPC  H15X19783   6.530   3.721  14.680 -0.1991  1.1507 -0.5104
  163DOPC  H15Y19784   6.373   3.732  14.596 -0.4621  0.0685  0.7017
  163DOPC  C31619785   6.512   3.627  14.481 -0.7345  0.6561  0.9816
  163DOPC  H16X19786   6.589   3.546  14.481 -1.8299 -0.5563 -2.4661
  163DOPC  H16Y19787   6.420   3.594  14.428 -0.0456  2.1009 -1.2833
  163DOPC  C31719788   6.570   3.743  14.403 -0.0573 -0.0606  0.7768
  163DOPC  H17X19789   6.486   3.812  14.378 -1.9345 -3.4333 -3.3515
  163DOPC  H17Y19790   6.642   3.797  14.469  0.8000  0.6436 -0.6881
  163DOPC  C31819791   6.632   3.697  14.267 -0.5029 -0.7555 -0.0623
  163DOPC  H18X19792   6.540   3.678  14.207 -0.3432 -0.4701 -0.4012
  163DOPC  H18Y19793   6.673   3.788  14.217 -1.1319  0.7102  1.9724
  163DOPC  H18Z19794   6.701   3.611  14.278 -0.0678 -0.4133 -0.1028
  164DOPC     N19795   0.887   2.148  16.889 -0.6271 -0.3433  0.8288
  164DOPC   C1219796   0.904   2.194  16.739 -0.7995 -0.1241 -0.4801
  164DOPC  H12A19797   0.895   2.301  16.737  0.4577  0.0244  0.7892
  164DOPC  H12B19798   0.815   2.166  16.684 -0.8358  0.2868 -0.6310
  164DOPC   C1319799   0.918   1.998  16.910 -0.0602 -0.0198  0.1442
  164DOPC  H13A19800   0.991   1.966  16.838 -0.2367  0.2958 -0.1753
  164DOPC  H13B19801   0.944   1.990  17.014 -0.9927  1.3209  0.4999
  164DOPC  H13C19802   0.830   1.939  16.889  0.1209 -0.2959  0.1539
  164DOPC   C1419803   0.753   2.184  16.926  0.1879 -0.0458  0.5202
  164DOPC  H14A19804   0.680   2.114  16.887  0.3990 -0.3811  0.7172
  164DOPC  H14B19805   0.745   2.183  17.034  1.3711 -3.2638  0.6914
  164DOPC  H14C19806   0.705   2.273  16.887  2.0716  0.3563 -1.0283
  164DOPC   C1519807   0.976   2.229  16.982  0.5241 -0.5684 -0.3601
  164DOPC  H15A19808   0.969   2.334  16.956 -0.0993 -0.4943  0.0842
  164DOPC  H15B19809   1.080   2.206  16.972  0.6784 -0.8720  1.5149
  164DOPC  H15C19810   0.947   2.216  17.085 -1.7980  0.8318 -0.7498
  164DOPC   C1119811   1.029   2.157  16.656 -0.2399 -0.0571 -0.4291
  164DOPC  H11A19812   1.019   2.046  16.658  0.1033 -0.0822  0.4333
  164DOPC  H11B19813   1.012   2.187  16.551  0.6087  1.4076 -0.1715
  164DOPC     P19814   1.187   2.358  16.700  0.1974 -0.3087  0.4049
  164DOPC   O1319815   1.257   2.390  16.825 -0.7073  0.2647  0.2451
  164DOPC   O1419816   1.077   2.450  16.657  0.9877 -0.0068 -0.0177
  164DOPC   O1219817   1.145   2.202  16.709 -0.4019 -0.7851 -0.0248
  164DOPC   O1119818   1.301   2.353  16.587 -0.4544  0.4461 -0.0752
  164DOPC    C119819   1.426   2.285  16.610 -0.0184  0.2481 -0.0349
  164DOPC    HA19820   1.413   2.215  16.695  0.7994 -0.3316 -0.3862
  164DOPC    HB19821   1.509   2.357  16.626  0.5279  0.6111 -3.6324
  164DOPC    C219822   1.464   2.193  16.490 -0.5990  0.0710  0.7380
  164DOPC    HS19823   1.552   2.134  16.523 -0.0172  1.3913  1.5852
  164DOPC   O2119824   1.491   2.263  16.358 -0.0288  0.4009  0.0985
  164DOPC   C2119825   1.561   2.187  16.272 -0.2490  0.2946  0.0135
  164DOPC   O2219826   1.613   2.077  16.300  0.3248  0.3420  0.2630
  164DOPC   C2219827   1.554   2.250  16.136  0.8106 -0.4088 -0.1296
  164DOPC   H2R19828   1.639   2.322  16.128  1.1241 -0.6936  0.5506
  164DOPC   H2S19829   1.460   2.309  16.132 -0.2086 -1.8154  1.7215
  164DOPC    C319830   1.350   2.091  16.471 -0.7761 -0.2302 -0.3694
  164DOPC    HX19831   1.270   2.160  16.435 -1.8906  0.2605  2.7347
  164DOPC    HY19832   1.309   2.052  16.567 -0.1829 -2.2380 -0.8810
  164DOPC   O3119833   1.375   1.991  16.378  0.7238  0.0004  0.0773
  164DOPC   C3119834   1.266   1.945  16.325  0.8553  0.0446  0.6826
  164DOPC   O3219835   1.148   1.968  16.352  0.8472 -0.1856  0.4817
  164DOPC   C3219836   1.307   1.855  16.210 -0.4098 -0.0409  0.1391
  164DOPC   H2X19837   1.410   1.874  16.176 -0.7705  0.1921 -0.8403
  164DOPC   H2Y19838   1.293   1.749  16.239  0.2247 -0.3682 -0.7468
  164DOPC   C2319839   1.561   2.147  16.020  0.4318  0.0501  0.7810
  164DOPC   H3R19840   1.476   2.076  16.023  2.3231 -2.4279 -0.6142
  164DOPC   H3S19841   1.663   2.103  16.016  0.3581 -0.0651  0.0946
  164DOPC   C2419842   1.562   2.228  15.885  0.2227 -0.4132 -0.4929
  164DOPC   H4R19843   1.637   2.308  15.868  1.3256 -1.6803 -1.8911
  164DOPC   H4S19844   1.470   2.290  15.881  0.2801 -0.3566 -1.1707
  164DOPC   C2519845   1.552   2.135  15.760 -0.8473  0.6205  0.1197
  164DOPC   H5R19846   1.635   2.062  15.776 -2.0654 -0.6982  0.7410
  164DOPC   H5S19847   1.588   2.195  15.674  1.4384  0.3268  0.7819
  164DOPC   C2619848   1.422   2.053  15.740  0.2035  0.3237 -0.1589
  164DOPC   H6R19849   1.342   2.127  15.718 -0.8702 -1.3409 -2.2533
  164DOPC   H6S19850   1.394   2.009  15.838 -0.2124  1.1844  0.1170
  164DOPC   C2719851   1.419   1.943  15.623 -0.1148 -0.6924 -0.2383
  164DOPC   H7R19852   1.331   1.876  15.614 -1.5631  1.0787  0.2082
  164DOPC   H7S19853   1.507   1.878  15.644 -0.2275 -0.3456  1.4026
  164DOPC   C2819854   1.459   2.006  15.484  0.1537  0.4185 -0.4985
  164DOPC   H8R19855   1.439   1.924  15.412 -2.6600 -0.6226  1.3346
  164DOPC   H8S19856   1.563   2.045  15.482 -0.1366  1.4243  1.4223
  164DOPC   C2919857   1.370   2.128  15.459  0.7846  0.2927  0.6197
  164DOPC   H9R19858   1.343   2.198  15.540 -0.0492  0.5948  0.0988
  164DOPC  C21019859   1.304   2.157  15.346  0.0441  1.0670  0.3676
  164DOPC  H10R19860   1.252   2.251  15.322  1.4280  1.3434 -1.7029
  164DOPC  C21119861   1.294   2.061  15.225  0.3941  0.2745  0.4665
  164DOPC  H11R19862   1.194   2.053  15.176  1.1198  0.6611 -1.1546
  164DOPC  H11S19863   1.310   1.955  15.253 -0.7681 -1.3458 -4.1038
  164DOPC  C21219864   1.405   2.104  15.120  0.4306  0.5119  0.0105
  164DOPC  H12R19865   1.505   2.079  15.162  0.7921 -0.4022 -1.3409
  164DOPC  H12S19866   1.397   2.214  15.102  1.1481  0.8150  1.4033
  164DOPC  C21319867   1.377   2.028  14.988 -0.8641 -0.4517 -0.6549
  164DOPC  H13R19868   1.372   1.921  15.018  3.6784 -0.1259  2.2393
  164DOPC  H13S19869   1.466   2.048  14.924 -0.8483  2.0759  0.0556
  164DOPC  C21419870   1.253   2.077  14.915  0.2854 -0.9033  0.4650
  164DOPC  H14R19871   1.245   2.188  14.916 -0.1365 -0.9305  0.5106
  164DOPC  H14S19872   1.160   2.031  14.954 -0.8750 -0.3098 -1.4272
  164DOPC  C21519873   1.253   2.042  14.765  0.3358 -0.6401 -0.5461
  164DOPC  H15R19874   1.242   1.932  14.751 -0.8765 -0.5925 -0.1661
  164DOPC  H15S19875   1.346   2.088  14.726  1.4563 -1.8378  0.6331
  164DOPC  C21619876   1.139   2.110  14.680 -0.3215  0.2699  0.0045
  164DOPC  H16R19877   1.142   2.219  14.659  1.3919  0.5275  1.4300
  164DOPC  H16S19878   1.049   2.083  14.740 -0.2947  3.3662  1.6471
  164DOPC  C21719879   1.121   2.043  14.543  0.5802 -0.0302 -0.0080
  164DOPC  H17R19880   1.094   1.936  14.556  2.4518 -0.5730 -0.3507
  164DOPC  H17S19881   1.215   2.046  14.483 -0.8069  1.0666 -2.2973
  164DOPC  C21819882   1.014   2.108  14.447 -0.3689  0.4090 -0.5146
  164DOPC  H18R19883   0.986   2.050  14.356 -1.9599 -0.0360  0.2309
  164DOPC  H18S19884   1.047   2.210  14.417  0.4223 -0.0034 -1.0901
  164DOPC  H18T19885   0.918   2.121  14.500  0.4224 -0.4576  1.2265
  164DOPC   C3319886   1.222   1.862  16.084  0.9281 -0.0639  0.1993
  164DOPC   H3X19887   1.252   1.948  16.020 -1.1162 -0.6397 -1.6375
  164DOPC   H3Y19888   1.113   1.876  16.097  0.9602  0.8853 -0.4186
  164DOPC   C3419889   1.244   1.731  16.000  0.5430  0.5916  0.1758
  164DOPC   H4X19890   1.223   1.636  16.055 -1.1244  1.2305  0.7080
  164DOPC   H4Y19891   1.346   1.721  15.959  0.4295 -0.3133  0.0870
  164DOPC   C3519892   1.153   1.730  15.872  0.1017 -0.4008 -0.1126
  164DOPC   H5X19893   1.149   1.825  15.816 -0.0057 -1.0956 -1.3173
  164DOPC   H5Y19894   1.050   1.708  15.907  0.6614 -2.3345  0.4836
  164DOPC   C3619895   1.186   1.618  15.775 -0.1897  0.0853  0.6324
  164DOPC   H6X19896   1.272   1.656  15.716 -0.7223  1.1441  0.5143
  164DOPC   H6Y19897   1.215   1.527  15.831 -2.5038 -0.4500  1.0953
  164DOPC   C3719898   1.073   1.573  15.685  0.0718  0.3016 -0.2211
  164DOPC   H7X19899   0.992   1.531  15.749  0.9542 -0.9450  0.1293
  164DOPC   H7Y19900   1.038   1.664  15.633  4.3394  3.9819  2.6598
  164DOPC   C3819901   1.118   1.464  15.587  0.8662  0.1781 -0.0847
  164DOPC   H8X19902   1.027   1.420  15.539  0.9268  0.4586 -0.4561
  164DOPC   H8Y19903   1.163   1.389  15.655  0.5678  0.3527  0.3070
  164DOPC   C3919904   1.220   1.514  15.489  0.2272 -0.3231 -0.0711
  164DOPC   H9X19905   1.325   1.506  15.520 -0.0197 -2.9223  0.2475
  164DOPC  C31019906   1.198   1.554  15.361 -0.1332 -0.2456  0.4881
  164DOPC  H10X19907   1.287   1.603  15.320  0.2966 -0.9049  0.6111
  164DOPC  C31119908   1.063   1.565  15.291 -0.3631 -0.1507 -0.0131
  164DOPC  H11X19909   0.990   1.616  15.358 -1.4612 -2.0983  0.3336
  164DOPC  H11Y19910   1.019   1.466  15.268 -0.9879 -0.2982  1.6626
  164DOPC  C31219911   1.074   1.645  15.163 -0.0269  0.0699 -0.3615
  164DOPC  H12X19912   1.107   1.749  15.181  0.5677 -0.0900 -0.5161
  164DOPC  H12Y19913   0.976   1.636  15.111  0.0990 -1.5840 -0.3759
  164DOPC  C31319914   1.165   1.574  15.071  0.3934  0.0178 -0.5156
  164DOPC  H13X19915   1.267   1.571  15.116 -0.1689  2.4425  1.1404
  164DOPC  H13Y19916   1.125   1.471  15.057 -1.3923  0.5663  0.2152
  164DOPC  C31419917   1.176   1.618  14.922  0.1375 -0.0276 -0.8020
  164DOPC  H14X19918   1.254   1.697  14.919 -1.1238  1.2880 -0.1598
  164DOPC  H14Y19919   1.086   1.680  14.901  0.8683  1.3310 -0.1047
  164DOPC  C31519920   1.205   1.506  14.822  0.0698  0.2068  0.7724
  164DOPC  H15X19921   1.125   1.429  14.823 -1.2136  1.4867  1.6193
  164DOPC  H15Y19922   1.297   1.446  14.839  0.1387  0.1993  0.3896
  164DOPC  C31619923   1.221   1.552  14.676 -0.0816  0.2605 -0.1697
  164DOPC  H16X19924   1.128   1.532  14.620 -1.5984  0.6269  2.1029
  164DOPC  H16Y19925   1.248   1.660  14.672  0.6385  0.0618 -0.8214
  164DOPC  C31719926   1.315   1.465  14.594  0.4749 -0.0341  0.2791
  164DOPC  H17X19927   1.417   1.470  14.637  0.6852 -2.1454  0.1657
  164DOPC  H17Y19928   1.295   1.357  14.609 -3.1180  0.6043  0.8549
  164DOPC  C31819929   1.325   1.503  14.446  0.1857 -0.2348  0.0210
  164DOPC  H18X19930   1.424   1.476  14.403  0.4971 -1.0610  1.1944
  164DOPC  H18Y19931   1.246   1.461  14.381  1.2903 -0.4517 -1.2195
  164DOPC  H18Z19932   1.310   1.612  14.432 -2.0724 -0.4403  0.4587
  165DOPC     N19933   5.145   1.115  16.365  0.5696 -0.5096  0.1414
  165DOPC   C1219934   5.278   1.166  16.316 -0.4061 -0.7462 -0.2766
  165DOPC  H12A19935   5.273   1.268  16.281 -0.0917 -0.3628  0.7487
  165DOPC  H12B19936   5.305   1.097  16.237  1.3264 -3.4331  2.4281
  165DOPC   C1319937   5.043   1.134  16.257  0.2478  0.6770 -0.4936
  165DOPC  H13A19938   5.033   1.237  16.228 -0.5394  0.6371 -0.3893
  165DOPC  H13B19939   5.061   1.073  16.170  2.0056  0.2257  0.1449
  165DOPC  H13C19940   4.943   1.108  16.288  0.7965  0.3014  1.0410
  165DOPC   C1419941   5.107   1.208  16.481  0.0051 -0.6350 -0.3940
  165DOPC  H14A19942   5.183   1.200  16.558  0.9622 -0.5912 -1.3161
  165DOPC  H14B19943   5.103   1.310  16.447 -1.4623 -0.0295  1.4076
  165DOPC  H14C19944   5.011   1.198  16.528  0.7483  0.3388  1.4417
  165DOPC   C1519945   5.146   0.973  16.410  1.2088  0.1369  0.2601
  165DOPC  H15A19946   5.142   0.914  16.320  2.4743  2.0093 -1.1138
  165DOPC  H15B19947   5.062   0.953  16.474 -0.1016  2.3544 -0.6267
  165DOPC  H15C19948   5.241   0.948  16.455  1.2172  1.2301  0.8856
  165DOPC   C1119949   5.400   1.169  16.412  0.4434  0.2892  0.2131
  165DOPC  H11A19950   5.483   1.229  16.369  1.5039 -1.0284  0.3899
  165DOPC  H11B19951   5.377   1.233  16.500  0.5198  0.6376 -0.0182
  165DOPC     P19952   5.551   0.954  16.377  0.0686  0.6408 -0.4332
  165DOPC   O1319953   5.495   0.814  16.370 -0.1641 -0.4336  0.0669
  165DOPC   O1419954   5.682   0.973  16.441  0.0265 -0.3642 -0.0701
  165DOPC   O1219955   5.437   1.039  16.452  0.7200 -0.4836 -0.0568
  165DOPC   O1119956   5.545   1.005  16.233 -0.2001 -0.4885 -0.1764
  165DOPC    C119957   5.472   0.944  16.128  0.0451  0.0352  0.6358
  165DOPC    HA19958   5.366   0.935  16.159 -0.4388 -0.0707 -0.9603
  165DOPC    HB19959   5.513   0.843  16.104 -0.2581  0.3336 -1.2579
  165DOPC    C219960   5.472   1.023  15.992  0.0810 -0.9747  0.2447
  165DOPC    HS19961   5.413   1.118  15.990  1.1669 -0.2417  1.5018
  165DOPC   O2119962   5.431   0.933  15.882  0.1149 -0.7759 -0.2409
  165DOPC   C2119963   5.300   0.913  15.888  0.7208  0.3933  0.0811
  165DOPC   O2219964   5.223   0.964  15.969 -0.0045 -0.1592  0.3015
  165DOPC   C2219965   5.263   0.797  15.796  0.8439  0.4377  0.1413
  165DOPC   H2R19966   5.157   0.789  15.765  0.9593 -1.8090  0.1656
  165DOPC   H2S19967   5.306   0.710  15.849  1.9240  1.4047  0.9079
  165DOPC    C319968   5.610   1.089  15.962 -0.0739  0.6562  0.5227
  165DOPC    HX19969   5.685   1.015  15.996 -0.0809  0.1718 -0.4611
  165DOPC    HY19970   5.630   1.180  16.022  0.2597  0.9065  0.0376
  165DOPC   O3119971   5.630   1.120  15.824  0.3046  0.1393  0.5345
  165DOPC   C3119972   5.705   1.042  15.748 -0.2246 -0.2770  0.8353
  165DOPC   O3219973   5.778   0.949  15.782  0.5921  0.2777  0.3246
  165DOPC   C3219974   5.676   1.098  15.607  0.2245 -0.3723 -0.5207
  165DOPC   H2X19975   5.596   1.033  15.566  0.2676 -0.4871 -0.4255
  165DOPC   H2Y19976   5.641   1.203  15.612  1.0431 -0.1247  0.6853
  165DOPC   C2319977   5.345   0.796  15.662 -0.3474 -0.3780 -0.6118
  165DOPC   H3R19978   5.414   0.710  15.651 -0.5382 -0.5550 -0.4174
  165DOPC   H3S19979   5.418   0.879  15.655 -1.3280  0.4326 -1.8079
  165DOPC   C2419980   5.261   0.793  15.530  0.3009  0.1350 -0.0069
  165DOPC   H4R19981   5.207   0.890  15.525  0.8914  0.4725  0.0419
  165DOPC   H4S19982   5.184   0.713  15.529  0.0273  0.3849 -1.4800
  165DOPC   C2519983   5.354   0.782  15.408 -0.4050  0.1959 -0.3416
  165DOPC   H5R19984   5.413   0.688  15.412 -0.8878 -0.0666  1.3099
  165DOPC   H5S19985   5.429   0.861  15.425 -0.4157 -0.1307  1.3543
  165DOPC   C2619986   5.288   0.800  15.266  0.2504  0.0272 -0.5207
  165DOPC   H6R19987   5.246   0.903  15.259  0.3986  0.1964  0.9320
  165DOPC   H6S19988   5.209   0.722  15.259  0.2893 -0.1470  0.7673
  165DOPC   C2719989   5.392   0.812  15.156 -0.0912  0.3752 -0.2040
  165DOPC   H7R19990   5.442   0.714  15.140  0.0286  0.5788 -1.1966
  165DOPC   H7S19991   5.464   0.878  15.210 -0.6829  1.6648 -0.9229
  165DOPC   C2819992   5.340   0.854  15.013  0.2619 -0.1648 -0.4213
  165DOPC   H8R19993   5.427   0.887  14.953 -0.7259  0.4775 -1.5492
  165DOPC   H8S19994   5.282   0.949  15.019  0.4208 -0.0893 -0.0525
  165DOPC   C2919995   5.262   0.749  14.934  0.0958 -0.7739  0.2972
  165DOPC   H9R19996   5.315   0.653  14.922 -0.3424 -0.6797 -3.6631
  165DOPC  C21019997   5.144   0.775  14.866 -0.1943  0.3130  0.0328
  165DOPC  H10R19998   5.108   0.692  14.803  2.2559  0.3490 -1.5236
  165DOPC  C21119999   5.058   0.899  14.867 -1.1190  0.2010 -0.6195
  165DOPC  H11R20000   5.123   0.989  14.870  1.3321 -1.4953 -0.4748
  165DOPC  H11S20001   4.986   0.890  14.951 -0.4976  1.8518  0.1389
  165DOPC  C21220002   4.984   0.906  14.731 -0.3162  0.0827 -0.8185
  165DOPC  H12R20003   4.906   0.984  14.744  1.1902  1.3761  1.1417
  165DOPC  H12S20004   4.937   0.811  14.700 -1.7663  0.6491 -0.4256
  165DOPC  C21320005   5.080   0.940  14.609  0.1862 -0.4920 -0.4849
  165DOPC  H13R20006   5.147   0.856  14.581  1.6972  1.0798 -1.8936
  165DOPC  H13S20007   5.136   1.034  14.632  0.6324 -0.7280 -0.5988
  165DOPC  C21420008   5.003   0.979  14.484  0.8097  0.1210  1.0309
  165DOPC  H14R20009   4.926   1.057  14.504  0.4348  0.6099 -1.8085
  165DOPC  H14S20010   4.947   0.896  14.437  0.0393  1.2360 -0.0952
  165DOPC  C21520011   5.098   1.037  14.373 -0.4139  0.2276  0.3431
  165DOPC  H15R20012   5.182   1.093  14.419 -0.4228  2.9279 -2.5800
  165DOPC  H15S20013   5.039   1.117  14.324  2.1075  1.3619 -1.0123
  165DOPC  C21620014   5.146   0.935  14.269  0.0865  0.3794  0.0281
  165DOPC  H16R20015   5.062   0.881  14.221 -2.4073  1.6786  2.6295
  165DOPC  H16S20016   5.199   0.854  14.325 -0.9753  0.8559  1.7891
  165DOPC  C21720017   5.235   1.001  14.159 -0.2436 -0.7553  0.0120
  165DOPC  H17R20018   5.326   1.041  14.207 -1.3026  2.5882 -0.4751
  165DOPC  H17S20019   5.177   1.085  14.114 -0.8771 -0.9816  0.3979
  165DOPC  C21820020   5.278   0.911  14.043  0.4338 -0.1221 -0.4761
  165DOPC  H18R20021   5.192   0.886  13.979 -1.6386  0.5081  1.9001
  165DOPC  H18S20022   5.325   0.820  14.088  0.7844 -0.2071 -1.0021
  165DOPC  H18T20023   5.350   0.962  13.975  0.1123  0.0515 -0.6851
  165DOPC   C3320024   5.794   1.080  15.504 -0.3339 -0.6932 -0.5518
  165DOPC   H3X20025   5.828   0.974  15.496  0.0555 -0.6548  0.4838
  165DOPC   H3Y20026   5.884   1.133  15.543 -1.1258 -0.2992  0.7932
  165DOPC   C3420027   5.758   1.137  15.364  0.7156  0.5931 -0.1506
  165DOPC   H4X20028   5.717   1.237  15.388 -1.4818 -0.2207 -0.2114
  165DOPC   H4Y20029   5.678   1.070  15.324 -0.3838  1.9348 -0.2614
  165DOPC   C3520030   5.875   1.163  15.266  0.2385  0.5904 -0.2093
  165DOPC   H5X20031   5.907   1.064  15.224 -3.8490 -0.0206 -2.3871
  165DOPC   H5Y20032   5.942   1.218  15.335  1.0633  0.6671 -1.0472
  165DOPC   C3620033   5.817   1.236  15.143  0.7394 -0.4756 -0.2522
  165DOPC   H6X20034   5.729   1.181  15.102  0.8067 -1.5761  1.0328
  165DOPC   H6Y20035   5.789   1.340  15.172  0.8246 -0.5483  0.0858
  165DOPC   C3720036   5.920   1.242  15.033 -0.0406 -0.1139 -0.3883
  165DOPC   H7X20037   5.941   1.149  14.975 -0.6366  0.1862 -1.1054
  165DOPC   H7Y20038   6.007   1.256  15.100 -1.0306 -1.6049  1.2903
  165DOPC   C3820039   5.902   1.351  14.932  0.3696 -0.4028  0.8529
  165DOPC   H8X20040   5.888   1.438  15.000  0.2703 -0.3266  0.7338
  165DOPC   H8Y20041   5.810   1.333  14.874  0.8005 -2.2986  0.6839
  165DOPC   C3920042   6.020   1.378  14.830  0.4150 -0.2464 -0.4368
  165DOPC   H9X20043   6.108   1.434  14.864  0.5772 -1.1990  0.7890
  165DOPC  C31020044   6.032   1.328  14.706  1.1463 -0.0669  0.2086
  165DOPC  H10X20045   6.106   1.374  14.638 -0.1941 -0.4710 -1.6215
  165DOPC  C31120046   5.927   1.245  14.634 -0.2659  0.0602  0.0950
  165DOPC  H11X20047   5.841   1.222  14.701  0.1666  0.7050  0.8812
  165DOPC  H11Y20048   5.972   1.146  14.608 -0.3901 -0.0265  0.2070
  165DOPC  C31220049   5.870   1.291  14.504  0.6546  0.4001  0.0423
  165DOPC  H12X20050   5.953   1.297  14.430 -0.1969  1.3365 -0.8818
  165DOPC  H12Y20051   5.823   1.391  14.510 -0.7535 -0.3094  1.5943
  165DOPC  C31320052   5.765   1.191  14.450 -0.6503  0.2734  0.3118
  165DOPC  H13X20053   5.812   1.097  14.412  1.5110  1.6465 -0.6011
  165DOPC  H13Y20054   5.707   1.155  14.537  0.3189  2.2305  1.8473
  165DOPC  C31420055   5.667   1.249  14.340 -0.1429 -0.3841 -0.4953
  165DOPC  H14X20056   5.584   1.177  14.324 -0.6368  0.5740 -2.5982
  165DOPC  H14Y20057   5.614   1.341  14.374 -2.7179 -1.1102 -2.2560
  165DOPC  C31520058   5.738   1.278  14.202 -0.1655  0.9861  0.3505
  165DOPC  H15X20059   5.797   1.187  14.178  0.3571  1.5430 -0.5369
  165DOPC  H15Y20060   5.810   1.363  14.206 -0.1466  0.9325  1.2489
  165DOPC  C31620061   5.639   1.292  14.090  0.3584  0.4040  0.3817
  165DOPC  H16X20062   5.687   1.313  13.992 -0.3979 -0.0430 -0.1002
  165DOPC  H16Y20063   5.593   1.193  14.070 -0.5624  0.5858  1.4920
  165DOPC  C31720064   5.526   1.387  14.121  0.0676 -0.5175  0.5357
  165DOPC  H17X20065   5.477   1.407  14.024 -2.4075  0.2619  1.8445
  165DOPC  H17Y20066   5.450   1.341  14.188 -0.8834 -1.5055 -1.1559
  165DOPC  C31820067   5.570   1.522  14.173 -0.3906  0.2180 -0.4923
  165DOPC  H18X20068   5.622   1.512  14.270 -1.6299 -0.7305  0.1138
  165DOPC  H18Y20069   5.648   1.561  14.105 -0.7915  0.7908 -0.6288
  165DOPC  H18Z20070   5.485   1.594  14.171 -0.7989 -0.1376 -4.7274
  166DOPC     N20071   6.350   3.738  17.015  0.2881 -0.0537  0.1621
  166DOPC   C1220072   6.404   3.660  16.889 -0.8238 -0.7889 -0.2590
  166DOPC  H12A20073   6.324   3.654  16.816 -1.1766 -0.0709  0.0552
  166DOPC  H12B20074   6.440   3.566  16.928  0.7679 -0.1294 -0.0843
  166DOPC   C1320075   6.431   3.721  17.138 -0.2784  0.8688  0.3902
  166DOPC  H13A20076   6.530   3.747  17.105 -0.3067  0.8378  0.2810
  166DOPC  H13B20077   6.405   3.778  17.226  0.0250 -0.6326  1.5040
  166DOPC  H13C20078   6.446   3.620  17.172  0.0731  0.5389 -0.6995
  166DOPC   C1420079   6.211   3.683  17.039 -1.3514 -0.2026 -0.0030
  166DOPC  H14A20080   6.162   3.749  17.110  0.5259  0.3938  0.8070
  166DOPC  H14B20081   6.151   3.694  16.950 -0.1838 -3.4150 -1.3327
  166DOPC  H14C20082   6.215   3.583  17.080  1.3333 -0.1369  0.0479
  166DOPC   C1520083   6.337   3.884  16.981 -0.4501  0.0548 -0.2823
  166DOPC  H15A20084   6.431   3.931  16.955 -1.3738  1.6298 -0.9723
  166DOPC  H15B20085   6.289   3.938  17.061 -1.3333 -0.0406 -0.7397
  166DOPC  H15C20086   6.277   3.891  16.891  1.0050  0.6992 -1.2458
  166DOPC   C1120087   6.521   3.713  16.807 -0.0673 -0.6770 -0.2056
  166DOPC  H11A20088   6.549   3.644  16.724  1.9363  0.5581 -0.6157
  166DOPC  H11B20089   6.502   3.813  16.762  1.5753  0.9400  2.4799
  166DOPC     P20090   6.718   3.841  16.918 -0.2345 -0.0455  0.4235
  166DOPC   O1320091   6.810   3.828  17.025 -0.1682  0.1694 -0.3056
  166DOPC   O1420092   6.628   3.961  16.920 -0.8199  0.3253  0.6046
  166DOPC   O1220093   6.626   3.716  16.899 -1.4949  0.0979 -0.4130
  166DOPC   O1120094   6.805   3.834  16.786 -0.2273  0.1544 -0.3379
  166DOPC    C120095   6.829   3.953  16.705  0.5277  0.0612  0.2414
  166DOPC    HA20096   6.915   3.938  16.636  0.3551 -0.3212  0.1024
  166DOPC    HB20097   6.865   4.041  16.762 -0.7011  0.7357  0.0060
  166DOPC    C220098   6.702   3.983  16.611  0.4146 -0.5358 -0.8817
  166DOPC    HS20099   6.611   3.990  16.675  0.8468 -1.2197 -0.1696
  166DOPC   O2120100   6.685   3.868  16.528  0.5587  0.5111  0.5711
  166DOPC   C2120101   6.567   3.841  16.475 -0.4975  0.6656 -0.0021
  166DOPC   O2220102   6.468   3.901  16.503  0.1145 -0.0835  0.3806
  166DOPC   C2220103   6.591   3.743  16.357 -0.1980  0.7430  0.1515
  166DOPC   H2R20104   6.497   3.691  16.328  0.0174 -0.3003  1.2791
  166DOPC   H2S20105   6.673   3.674  16.386  0.3677  0.3283 -2.2262
  166DOPC    C320106   6.715   4.116  16.526 -0.6221  0.4391  0.0528
  166DOPC    HX20107   6.815   4.095  16.481 -1.2617 -0.6108 -0.9093
  166DOPC    HY20108   6.720   4.209  16.586 -0.2016  1.6446 -1.7449
  166DOPC   O3120109   6.614   4.127  16.421  0.4713 -0.1400  0.3905
  166DOPC   C3120110   6.505   4.190  16.456 -0.2122  0.1948  0.3704
  166DOPC   O3220111   6.481   4.228  16.569 -0.4714  0.4457 -0.5219
  166DOPC   C3220112   6.417   4.187  16.332 -0.3991 -0.2561 -0.2286
  166DOPC   H2X20113   6.391   4.082  16.310 -2.8948  0.3685 -0.6087
  166DOPC   H2Y20114   6.329   4.249  16.359  1.0490  2.3663 -1.0751
  166DOPC   C2320115   6.660   3.816  16.243  0.4668 -0.4216  0.0663
  166DOPC   H3R20116   6.726   3.742  16.193  1.0512 -0.8842  1.4814
  166DOPC   H3S20117   6.737   3.887  16.282  0.3816 -0.3419  0.0897
  166DOPC   C2420118   6.573   3.889  16.141  0.4674 -0.2992 -0.2596
  166DOPC   H4R20119   6.541   3.979  16.197  0.6202 -0.3733 -0.0506
  166DOPC   H4S20120   6.484   3.830  16.111  0.9585 -0.2590 -1.8826
  166DOPC   C2520121   6.647   3.936  16.021  0.0607 -0.2729 -0.1196
  166DOPC   H5R20122   6.745   3.970  16.059  0.7242 -2.5188  0.3265
  166DOPC   H5S20123   6.605   4.032  15.986  1.6510  0.2638 -0.6435
  166DOPC   C2620124   6.652   3.837  15.903 -0.3002  0.1199 -0.2063
  166DOPC   H6R20125   6.554   3.832  15.850  1.0039 -0.7926 -2.7059
  166DOPC   H6S20126   6.680   3.734  15.933  0.3913  0.7411  1.3840
  166DOPC   C2720127   6.751   3.892  15.800  0.8600 -0.4801 -0.3323
  166DOPC   H7R20128   6.846   3.895  15.858 -0.1664  2.7587  1.4794
  166DOPC   H7S20129   6.730   4.000  15.780  0.4298 -0.2299  1.3485
  166DOPC   C2820130   6.752   3.806  15.676 -0.4772 -0.1645  0.2575
  166DOPC   H8R20131   6.766   3.703  15.715 -3.6504 -0.7997  0.0010
  166DOPC   H8S20132   6.843   3.815  15.613 -1.1575 -1.4485 -0.9690
  166DOPC   C2920133   6.625   3.819  15.591 -0.5878  0.3848 -0.6118
  166DOPC   H9R20134   6.550   3.744  15.620  0.8646  0.0642  2.6680
  166DOPC  C21020135   6.593   3.906  15.497  0.1273 -1.2258  0.7611
  166DOPC  H10R20136   6.507   3.881  15.434  1.7971 -0.7556 -1.8569
  166DOPC  C21120137   6.682   4.013  15.439 -0.0920  0.4867 -0.0152
  166DOPC  H11R20138   6.777   4.010  15.498 -1.7334  1.7860  2.9203
  166DOPC  H11S20139   6.633   4.112  15.449 -1.7075 -0.2953  0.1220
  166DOPC  C21220140   6.720   3.990  15.290  0.6465 -0.6701 -0.3595
  166DOPC  H12R20141   6.638   3.940  15.233 -0.5036 -1.0623  1.5400
  166DOPC  H12S20142   6.810   3.925  15.291 -0.6214 -2.5500  1.4675
  166DOPC  C21320143   6.747   4.115  15.201 -0.1288 -0.5628 -0.2444
  166DOPC  H13R20144   6.840   4.160  15.242 -1.8729  0.4246  3.0683
  166DOPC  H13S20145   6.673   4.198  15.213  2.0526  1.1893  2.4584
  166DOPC  C21420146   6.765   4.082  15.054 -0.4196 -0.5345 -0.5048
  166DOPC  H14R20147   6.692   4.003  15.025  0.7489 -1.4265 -1.1132
  166DOPC  H14S20148   6.866   4.036  15.053 -1.5477 -3.2326 -0.0551
  166DOPC  C21520149   6.749   4.200  14.966  0.1869 -0.2261 -0.5100
  166DOPC  H15R20150   6.826   4.279  14.984 -0.5576  0.5609 -0.7157
  166DOPC  H15S20151   6.657   4.258  14.987  1.3817  2.7077 -2.5996
  166DOPC  C21620152   6.746   4.168  14.814 -0.6437 -0.1900 -0.2305
  166DOPC  H16R20153   6.727   4.263  14.759 -3.7976 -1.2751 -1.2384
  166DOPC  H16S20154   6.664   4.097  14.792  0.2797 -1.1988 -0.5007
  166DOPC  C21720155   6.881   4.102  14.780  0.0647  0.0941 -0.2948
  166DOPC  H17R20156   6.893   4.000  14.822 -1.3998 -0.2886 -0.7414
  166DOPC  H17S20157   6.957   4.173  14.820  0.3867 -0.0913 -0.5661
  166DOPC  C21820158   6.910   4.099  14.629 -0.5147 -0.6704  0.5809
  166DOPC  H18R20159   6.874   4.194  14.583  1.0301 -0.5939 -0.5487
  166DOPC  H18S20160   6.851   4.018  14.582 -0.9937  0.1560 -0.2750
  166DOPC  H18T20161   7.020   4.103  14.610 -0.8939 -0.5416 -1.8758
  166DOPC   C3320162   6.492   4.250  16.214  0.3300 -0.7231 -0.1588
  166DOPC   H3X20163   6.593   4.206  16.202 -0.2879 -2.0714 -0.5897
  166DOPC   H3Y20164   6.509   4.360  16.217 -2.9569 -0.0828 -1.0119
  166DOPC   C3420165   6.424   4.220  16.081  0.0197  0.5108 -0.4360
  166DOPC   H4X20166   6.325   4.269  16.078 -0.1062  0.2275 -2.4681
  166DOPC   H4Y20167   6.417   4.110  16.066  0.6053  0.1141  1.7883
  166DOPC   C3520168   6.500   4.270  15.954  0.4022  0.9383  0.6043
  166DOPC   H5X20169   6.610   4.257  15.959  0.3848  1.1547  2.1527
  166DOPC   H5Y20170   6.487   4.380  15.945 -1.5270  0.7637  0.8020
  166DOPC   C3620171   6.439   4.225  15.816 -0.4116 -0.3988 -0.8336
  166DOPC   H6X20172   6.411   4.117  15.821 -0.6094 -0.3907 -1.6329
  166DOPC   H6Y20173   6.343   4.276  15.791 -0.1545  1.0131  0.8504
  166DOPC   C3720174   6.544   4.248  15.699  0.3378  0.3022 -0.1654
  166DOPC   H7X20175   6.640   4.196  15.716 -0.3593 -1.1658 -0.6162
  166DOPC   H7Y20176   6.511   4.201  15.604  1.6039  0.9188 -0.9277
  166DOPC   C3820177   6.572   4.401  15.667  0.3515  0.2198 -0.3888
  166DOPC   H8X20178   6.661   4.403  15.601  1.6760 -0.4406  1.3063
  166DOPC   H8Y20179   6.607   4.458  15.756 -1.4881  0.5648  0.1568
  166DOPC   C3920180   6.451   4.475  15.629 -0.0591 -0.4014  0.1646
  166DOPC   H9X20181   6.381   4.522  15.700 -2.5697  1.3398 -3.1800
  166DOPC  C31020182   6.403   4.481  15.502  0.6126 -0.0361  0.1190
  166DOPC  H10X20183   6.300   4.517  15.489  0.2982 -0.5111  1.1726
  166DOPC  C31120184   6.459   4.425  15.376 -0.4805  0.5132 -0.1859
  166DOPC  H11X20185   6.395   4.336  15.356 -0.1947  0.7792 -2.4949
  166DOPC  H11Y20186   6.566   4.400  15.384 -0.7218 -0.2752  0.7716
  166DOPC  C31220187   6.440   4.526  15.266 -0.1567 -0.2184 -0.0536
  166DOPC  H12X20188   6.498   4.620  15.282  2.0255 -1.6624  1.0308
  166DOPC  H12Y20189   6.333   4.552  15.251 -0.6439 -2.8214 -1.7211
  166DOPC  C31320190   6.496   4.471  15.131 -0.0631 -0.6372 -0.4988
  166DOPC  H13X20191   6.602   4.441  15.142  0.8014  2.7542  2.3153
  166DOPC  H13Y20192   6.437   4.382  15.103  0.5226 -0.7247 -1.4823
  166DOPC  C31420193   6.479   4.570  15.014 -0.9992  0.2557 -0.0600
  166DOPC  H14X20194   6.370   4.589  15.004 -0.5455  1.7624 -3.0489
  166DOPC  H14Y20195   6.532   4.665  15.035  1.5806 -0.8572 -1.2133
  166DOPC  C31520196   6.526   4.521  14.875 -0.6285 -0.1420  0.3041
  166DOPC  H15X20197   6.473   4.433  14.832 -0.3039  1.0559 -2.8593
  166DOPC  H15Y20198   6.634   4.496  14.884 -1.0489 -1.7845  1.2341
  166DOPC  C31620199   6.515   4.629  14.759 -0.3296  0.1153  0.2295
  166DOPC  H16X20200   6.410   4.667  14.758 -0.4093 -0.0397 -1.7967
  166DOPC  H16Y20201   6.577   4.719  14.778 -1.7101  0.6017  2.8646
  166DOPC  C31720202   6.557   4.563  14.625 -0.3996 -0.1435  0.6258
  166DOPC  H17X20203   6.661   4.526  14.636 -0.8609 -1.3804  0.9479
  166DOPC  H17Y20204   6.490   4.475  14.611  0.6750 -1.1203  1.4213
  166DOPC  C31820205   6.547   4.653  14.500  0.3391 -0.5567  0.3408
  166DOPC  H18X20206   6.444   4.693  14.491  0.2779 -0.7170  0.3255
  166DOPC  H18Y20207   6.613   4.742  14.514 -3.0908  2.4247 -1.1337
  166DOPC  H18Z20208   6.586   4.599  14.411 -2.9022 -1.0855 -0.8777
  167DOPC     N20209   6.305   2.468  16.542  0.2566  0.5059  0.3701
  167DOPC   C1220210   6.234   2.364  16.622  0.3917 -0.2052 -0.3143
  167DOPC  H12A20211   6.168   2.309  16.557 -1.0739  1.4780 -0.3383
  167DOPC  H12B20212   6.164   2.404  16.694 -0.0515 -0.9385 -0.3279
  167DOPC   C1320213   6.398   2.541  16.621 -0.0938 -0.1052 -0.6582
  167DOPC  H13A20214   6.427   2.487  16.710 -0.6934  1.4831  0.5544
  167DOPC  H13B20215   6.491   2.561  16.569  1.1019 -2.4143  0.4486
  167DOPC  H13C20216   6.347   2.630  16.655 -1.9704 -1.3084 -0.2046
  167DOPC   C1420217   6.196   2.567  16.491 -0.3540 -0.4306 -0.4114
  167DOPC  H14A20218   6.120   2.596  16.562  0.0228  1.8505 -0.8608
  167DOPC  H14B20219   6.245   2.658  16.461 -1.7105  0.4594  0.0006
  167DOPC  H14C20220   6.135   2.522  16.413 -1.0428 -1.9824  0.9531
  167DOPC   C1520221   6.374   2.408  16.415 -0.1721  0.3651 -0.9768
  167DOPC  H15A20222   6.442   2.330  16.445  2.5930  2.0196 -2.5249
  167DOPC  H15B20223   6.435   2.476  16.357  0.2340  0.2259 -0.7137
  167DOPC  H15C20224   6.302   2.356  16.353 -1.0848 -0.0243  0.3686
  167DOPC   C1120225   6.315   2.261  16.699 -0.3497  0.4133  0.1240
  167DOPC  H11A20226   6.393   2.305  16.764 -0.0305 -1.5074  1.1177
  167DOPC  H11B20227   6.251   2.213  16.776 -2.0067  1.6775 -0.3982
  167DOPC     P20228   6.317   2.034  16.574  0.2589 -0.3747 -0.0688
  167DOPC   O1320229   6.289   1.948  16.688 -0.2865 -0.3655 -0.4830
  167DOPC   O1420230   6.389   1.973  16.462  0.2793 -0.1040 -0.8597
  167DOPC   O1220231   6.385   2.174  16.613 -0.5472  0.9715  0.0887
  167DOPC   O1120232   6.179   2.084  16.521 -0.0072 -0.5681  0.0633
  167DOPC    C120233   6.105   1.998  16.434 -0.5137 -0.4678  0.6873
  167DOPC    HA20234   6.008   1.966  16.475 -1.2286  2.4849  1.5487
  167DOPC    HB20235   6.166   1.915  16.392  0.4395  1.3198 -1.7683
  167DOPC    C220236   6.057   2.060  16.304 -0.6012  0.7288 -1.0774
  167DOPC    HS20237   6.029   1.985  16.228  0.9424 -0.2862 -0.6944
  167DOPC   O2120238   6.160   2.144  16.253 -0.5789  0.2328 -0.2973
  167DOPC   C2120239   6.240   2.092  16.163  0.1186  0.1677  0.5967
  167DOPC   O2220240   6.250   1.980  16.115 -0.4856 -0.2676 -0.3262
  167DOPC   C2220241   6.314   2.210  16.100  0.0537 -0.5304  0.1233
  167DOPC   H2R20242   6.413   2.215  16.152 -0.2166  2.0228  0.5406
  167DOPC   H2S20243   6.264   2.304  16.131  1.9408 -0.2566  2.7246
  167DOPC    C320244   5.930   2.141  16.321  0.3241 -0.1537  0.4500
  167DOPC    HX20245   5.944   2.217  16.400  0.5500  0.8004 -0.4764
  167DOPC    HY20246   5.856   2.059  16.334  2.5871 -2.9568 -2.5527
  167DOPC   O3120247   5.893   2.200  16.196 -0.0801  0.3845  0.5005
  167DOPC   C3120248   5.924   2.325  16.177 -0.0246  0.0303  0.0053
  167DOPC   O3220249   5.993   2.399  16.248 -0.1065 -0.4492  0.8418
  167DOPC   C3220250   5.874   2.366  16.035  0.0530 -0.3141 -0.5070
  167DOPC   H2X20251   5.893   2.284  15.963  0.3495  0.2985 -1.1351
  167DOPC   H2Y20252   5.764   2.368  16.048 -0.1912 -0.4872 -2.3395
  167DOPC   C2320253   6.328   2.188  15.944  0.1090 -0.4376 -0.7088
  167DOPC   H3R20254   6.232   2.167  15.891  0.3514 -1.0497 -0.9243
  167DOPC   H3S20255   6.383   2.094  15.922 -1.1269 -0.5704 -3.6517
  167DOPC   C2420256   6.402   2.308  15.883 -0.2452 -0.3919  0.4670
  167DOPC   H4R20257   6.437   2.269  15.785  1.6341 -2.9921  2.0242
  167DOPC   H4S20258   6.496   2.328  15.939 -0.6150  0.9742  0.6183
  167DOPC   C2520259   6.317   2.434  15.872  0.4349 -0.8236 -0.3180
  167DOPC   H5R20260   6.259   2.451  15.965  0.9582 -0.5214 -0.0449
  167DOPC   H5S20261   6.253   2.421  15.781 -1.3625  1.2331  0.5669
  167DOPC   C2620262   6.400   2.556  15.839 -1.0227  0.0820  0.0116
  167DOPC   H6R20263   6.479   2.558  15.918 -1.0018 -2.3677  0.1428
  167DOPC   H6S20264   6.336   2.646  15.845 -0.3596  0.5469  0.2051
  167DOPC   C2720265   6.474   2.555  15.707 -0.2935  0.2534 -0.0530
  167DOPC   H7R20266   6.553   2.477  15.700  3.1122  3.5695 -4.0699
  167DOPC   H7S20267   6.550   2.636  15.714 -1.6371  1.6016 -0.7952
  167DOPC   C2820268   6.394   2.568  15.580  0.1310  0.6104 -0.2227
  167DOPC   H8R20269   6.295   2.613  15.604  0.9283  1.1774  2.2799
  167DOPC   H8S20270   6.375   2.466  15.539 -1.0854  1.4650 -1.8974
  167DOPC   C2920271   6.450   2.661  15.472 -0.1414  0.4640  0.0902
  167DOPC   H9R20272   6.446   2.769  15.496 -0.2063  0.2996  0.8565
  167DOPC  C21020273   6.497   2.625  15.349 -0.3925  0.4540 -0.1843
  167DOPC  H10R20274   6.522   2.707  15.280 -0.2171 -0.3134 -1.0586
  167DOPC  C21120275   6.508   2.485  15.290 -0.0975 -0.5111 -0.1865
  167DOPC  H11R20276   6.467   2.487  15.186  1.2456  2.8516 -0.7685
  167DOPC  H11S20277   6.448   2.406  15.340 -1.3800  0.7552  0.3328
  167DOPC  C21220278   6.654   2.447  15.279 -0.2536 -0.0144  0.2939
  167DOPC  H12R20279   6.704   2.521  15.212  2.2355 -1.5740  0.3239
  167DOPC  H12S20280   6.712   2.465  15.372  0.4565  0.3399 -0.2047
  167DOPC  C21320281   6.690   2.303  15.225  0.1575 -0.4198 -0.2409
  167DOPC  H13R20282   6.669   2.295  15.117 -1.0557  1.3268 -0.1694
  167DOPC  H13S20283   6.619   2.230  15.268  2.6091 -0.4365  4.4589
  167DOPC  C21420284   6.832   2.247  15.255  0.3624 -0.6154 -0.6649
  167DOPC  H14R20285   6.910   2.300  15.196  0.1169  0.5595  0.0220
  167DOPC  H14S20286   6.828   2.140  15.228 -1.5906 -0.5047 -0.9474
  167DOPC  C21520287   6.871   2.248  15.409  0.7217  0.0244  0.9320
  167DOPC  H15R20288   6.850   2.346  15.457  1.2457  0.5394  0.1370
  167DOPC  H15S20289   6.981   2.235  15.415  0.7962 -0.2602 -0.6768
  167DOPC  C21620290   6.783   2.144  15.484  0.0678 -0.3813  0.2727
  167DOPC  H16R20291   6.831   2.044  15.483 -0.4957 -0.6453 -0.3752
  167DOPC  H16S20292   6.687   2.120  15.433  0.8532 -1.9413 -0.5400
  167DOPC  C21720293   6.756   2.192  15.631 -0.1627  0.0495  0.5167
  167DOPC  H17R20294   6.717   2.295  15.637  0.5870  0.3170  0.9308
  167DOPC  H17S20295   6.850   2.187  15.689  0.1243 -1.3715 -0.0130
  167DOPC  C21820296   6.655   2.099  15.693 -0.0500  0.4908 -0.3168
  167DOPC  H18R20297   6.640   2.135  15.797  0.8678  1.7187 -0.5884
  167DOPC  H18S20298   6.698   1.998  15.704  0.6071  0.6470 -1.2737
  167DOPC  H18T20299   6.562   2.100  15.633 -0.4635  0.4596  0.3115
  167DOPC   C3320300   5.913   2.502  15.981  0.4025  0.0408  0.2730
  167DOPC   H3X20301   6.023   2.511  15.971  0.7078 -1.6427  1.6905
  167DOPC   H3Y20302   5.864   2.579  16.044 -0.7190  0.1408 -0.6874
  167DOPC   C3420303   5.848   2.522  15.841 -0.5183  0.4197  0.2443
  167DOPC   H4X20304   5.833   2.631  15.853  1.1500  0.7687 -0.5295
  167DOPC   H4Y20305   5.754   2.463  15.834  0.2071 -0.8946  1.1033
  167DOPC   C3520306   5.935   2.493  15.716 -0.0248  0.1627 -0.2591
  167DOPC   H5X20307   5.962   2.386  15.715 -2.0825 -0.5917  3.7893
  167DOPC   H5Y20308   6.032   2.545  15.732  0.8487 -1.5950  0.3824
  167DOPC   C3620309   5.873   2.539  15.580 -0.1782  0.4742  0.1821
  167DOPC   H6X20310   5.789   2.466  15.585  0.0312  0.0933 -1.2806
  167DOPC   H6Y20311   5.823   2.638  15.580 -0.3419  0.4095  1.3975
  167DOPC   C3720312   5.959   2.516  15.457 -0.3268  0.1939 -0.6842
  167DOPC   H7X20313   6.064   2.547  15.473  0.4777 -2.2665 -0.6921
  167DOPC   H7Y20314   5.972   2.405  15.457  0.4664  0.2784 -0.5715
  167DOPC   C3820315   5.906   2.564  15.318  0.0013 -0.0246 -0.3522
  167DOPC   H8X20316   5.811   2.510  15.298 -0.2887 -0.4006  1.7805
  167DOPC   H8Y20317   5.981   2.538  15.241 -0.1875  0.2424 -0.6267
  167DOPC   C3920318   5.891   2.717  15.329  0.2328 -0.5627  0.4920
  167DOPC   H9X20319   5.933   2.769  15.416 -2.8522  1.6707  0.8273
  167DOPC  C31020320   5.854   2.792  15.222 -0.2607  0.5352 -0.2682
  167DOPC  H10X20321   5.856   2.902  15.233 -1.9383  0.4299  1.7212
  167DOPC  C31120322   5.801   2.748  15.087  0.4875  0.8859 -0.0472
  167DOPC  H11X20323   5.690   2.758  15.087  0.4552  0.5595  0.1507
  167DOPC  H11Y20324   5.816   2.638  15.077 -0.9775  0.7477 -1.0267
  167DOPC  C31220325   5.869   2.814  14.969 -0.3384  0.8026  1.4991
  167DOPC  H12X20326   5.963   2.758  14.952 -1.1192 -0.1788  0.2564
  167DOPC  H12Y20327   5.888   2.923  14.975 -0.9587  1.0032  0.1587
  167DOPC  C31320328   5.784   2.791  14.843 -0.1091 -0.1289 -0.0798
  167DOPC  H13X20329   5.766   2.683  14.824  1.4188 -0.3346 -0.4868
  167DOPC  H13Y20330   5.679   2.827  14.856 -0.1673 -0.4736  0.4737
  167DOPC  C31420331   5.859   2.856  14.723 -0.1054  0.2954 -0.0601
  167DOPC  H14X20332   5.892   2.953  14.765  1.0506 -0.7547  1.5858
  167DOPC  H14Y20333   5.951   2.801  14.690 -0.0950  1.1785 -1.5750
  167DOPC  C31520334   5.778   2.872  14.594 -1.0359 -0.3915  0.0762
  167DOPC  H15X20335   5.826   2.953  14.536  1.4474 -2.9020 -1.6065
  167DOPC  H15Y20336   5.674   2.905  14.614 -0.5860  0.0893  1.7975
  167DOPC  C31620337   5.779   2.742  14.510  0.9393  0.1415 -0.0182
  167DOPC  H16X20338   5.763   2.648  14.568 -0.5728 -1.4686 -2.8018
  167DOPC  H16Y20339   5.697   2.762  14.437  0.9977  0.3101 -0.0361
  167DOPC  C31720340   5.905   2.724  14.422  0.2883 -0.4892 -0.1983
  167DOPC  H17X20341   5.993   2.749  14.485 -0.2343  1.1163 -0.0587
  167DOPC  H17Y20342   5.936   2.620  14.398  0.4877 -0.2292 -1.1209
  167DOPC  C31820343   5.905   2.799  14.287  0.1808 -0.1408 -0.0731
  167DOPC  H18X20344   5.818   2.781  14.221 -0.9818  2.0187  0.7857
  167DOPC  H18Y20345   5.896   2.908  14.307  0.8524 -0.0015 -0.4951
  167DOPC  H18Z20346   6.006   2.777  14.246  0.7048  0.4515  0.8597
  168DOPC     N20347   0.402   0.455  16.430  0.2692  0.1022 -0.1511
  168DOPC   C1220348   0.506   0.555  16.376 -0.1547 -0.2457  0.1958
  168DOPC  H12A20349   0.548   0.510  16.288 -0.1569 -4.8687  2.2775
  168DOPC  H12B20350   0.581   0.558  16.454  2.1866 -1.8988 -1.8478
  168DOPC   C1320351   0.340   0.492  16.559 -0.1128 -1.0134  0.4544
  168DOPC  H13A20352   0.419   0.480  16.631 -0.1672 -0.2574  0.6493
  168DOPC  H13B20353   0.299   0.591  16.574  0.2887 -1.1064  2.3684
  168DOPC  H13C20354   0.255   0.427  16.574 -1.9225  0.6801 -1.6096
  168DOPC   C1420355   0.453   0.316  16.441 -0.0095  0.7947 -0.0740
  168DOPC  H14A20356   0.511   0.290  16.353  2.0418  1.0346  1.1505
  168DOPC  H14B20357   0.505   0.291  16.532 -2.4568 -0.1653  1.1306
  168DOPC  H14C20358   0.372   0.245  16.437  0.7052  0.0033 -1.8271
  168DOPC   C1520359   0.292   0.451  16.324 -0.0642  0.0621  0.0819
  168DOPC  H15A20360   0.240   0.545  16.334 -0.4150 -0.2142  1.0155
  168DOPC  H15B20361   0.218   0.373  16.337 -0.6445  0.7308  0.9783
  168DOPC  H15C20362   0.334   0.448  16.225 -0.9327  0.2185 -0.2986
  168DOPC   C1120363   0.461   0.702  16.345  0.1029 -0.4951 -0.0871
  168DOPC  H11A20364   0.410   0.752  16.430  2.2644 -0.6970  1.4066
  168DOPC  H11B20365   0.550   0.764  16.320 -0.2991 -0.2210 -0.8917
  168DOPC     P20366   0.317   0.839  16.179 -0.4202  0.0869 -0.1189
  168DOPC   O1320367   0.270   0.923  16.289 -0.5801  0.2796  0.3627
  168DOPC   O1420368   0.225   0.812  16.067  0.4540  0.0580 -0.6583
  168DOPC   O1220369   0.366   0.704  16.241  0.2023  0.4294  0.0051
  168DOPC   O1120370   0.450   0.889  16.121 -0.0867 -1.0359  0.2366
  168DOPC    C120371   0.513   0.813  16.010 -0.4000  0.1045 -0.4616
  168DOPC    HA20372   0.532   0.707  16.037 -0.7607  0.1780  0.0873
  168DOPC    HB20373   0.614   0.860  16.005 -1.3605  2.2985 -0.3742
  168DOPC    C220374   0.457   0.834  15.867  0.1099 -0.3464 -0.3199
  168DOPC    HS20375   0.364   0.774  15.856 -0.2153  0.3690 -1.6678
  168DOPC   O2120376   0.549   0.780  15.774  0.5673 -0.6024  0.6751
  168DOPC   C2120377   0.558   0.648  15.778 -0.4816 -0.5976 -0.5560
  168DOPC   O2220378   0.491   0.570  15.839 -0.0119 -0.0205 -0.2968
  168DOPC   C2220379   0.672   0.607  15.677 -0.0441 -0.9292  0.0278
  168DOPC   H2R20380   0.656   0.497  15.687 -2.0944 -0.7922 -1.0619
  168DOPC   H2S20381   0.771   0.632  15.721 -0.0317 -2.0564  0.6850
  168DOPC    C320382   0.419   0.989  15.839 -0.3004  1.1082  0.0639
  168DOPC    HX20383   0.511   1.046  15.862 -1.9974  3.1405  2.2809
  168DOPC    HY20384   0.339   1.027  15.907 -1.7544 -0.6733 -0.5758
  168DOPC   O3120385   0.391   1.014  15.698  0.4450  0.1293  0.2542
  168DOPC   C3120386   0.266   1.000  15.672  0.6221 -0.7354  0.4012
  168DOPC   O3220387   0.172   0.983  15.749 -0.3068  0.3978  0.9609
  168DOPC   C3220388   0.258   0.992  15.519 -0.5477 -0.2557  0.2422
  168DOPC   H2X20389   0.155   0.954  15.505  0.4510 -2.9702 -0.4903
  168DOPC   H2Y20390   0.270   1.088  15.466  1.1452 -0.6707 -0.2080
  168DOPC   C2320391   0.635   0.649  15.534  0.2368 -1.0213  0.9366
  168DOPC   H3R20392   0.622   0.759  15.530  0.8075 -0.9882 -0.9425
  168DOPC   H3S20393   0.535   0.612  15.504  0.2583  0.3141 -0.9441
  168DOPC   C2420394   0.739   0.610  15.423  0.2486 -0.1530 -0.1991
  168DOPC   H4R20395   0.749   0.499  15.419 -0.1510 -0.2360  0.8120
  168DOPC   H4S20396   0.835   0.660  15.445 -0.7951  1.4497  0.9167
  168DOPC   C2520397   0.700   0.663  15.288 -0.2280 -0.4787 -0.2688
  168DOPC   H5R20398   0.713   0.773  15.291 -1.1244 -0.1915 -3.3935
  168DOPC   H5S20399   0.592   0.645  15.269 -0.2286  1.1069 -2.0300
  168DOPC   C2620400   0.782   0.612  15.171  0.1137 -0.7149 -0.2878
  168DOPC   H6R20401   0.763   0.504  15.152  0.3260 -0.7852 -0.1091
  168DOPC   H6S20402   0.887   0.637  15.197 -0.8656  1.7390  1.8491
  168DOPC   C2720403   0.744   0.686  15.044 -0.2052 -0.2414  0.6559
  168DOPC   H7R20404   0.736   0.789  15.083  1.3229 -1.0041  3.2121
  168DOPC   H7S20405   0.646   0.655  15.001  0.3042  0.6065 -1.2242
  168DOPC   C2820406   0.841   0.676  14.928 -0.7993 -0.5898 -0.1038
  168DOPC   H8R20407   0.817   0.573  14.893 -2.2543  0.1920 -1.5273
  168DOPC   H8S20408   0.948   0.683  14.959 -0.4636 -1.6927 -0.9114
  168DOPC   C2920409   0.809   0.776  14.823  0.4083 -0.0426  0.4284
  168DOPC   H9R20410   0.811   0.883  14.847  0.8146 -0.0106  0.2632
  168DOPC  C21020411   0.780   0.750  14.695 -0.5600  0.2108 -0.3552
  168DOPC  H10R20412   0.749   0.836  14.634  2.3471  0.9660 -0.9207
  168DOPC  C21120413   0.776   0.614  14.628  0.3596 -1.0187  0.1360
  168DOPC  H11R20414   0.701   0.608  14.546 -1.0033 -0.0945  1.2827
  168DOPC  H11S20415   0.747   0.532  14.696  2.8559 -3.7645 -1.7943
  168DOPC  C21220416   0.908   0.558  14.565 -0.1135 -0.5545 -0.6950
  168DOPC  H12R20417   0.975   0.528  14.649 -0.3220 -4.2100 -1.6502
  168DOPC  H12S20418   0.948   0.645  14.509 -1.9847  2.0220  1.6962
  168DOPC  C21320419   0.883   0.432  14.485  0.1153 -0.1579  0.4499
  168DOPC  H13R20420   0.830   0.353  14.542 -0.6541 -1.1139 -1.4980
  168DOPC  H13S20421   0.982   0.389  14.457  1.2190  3.1070 -1.2080
  168DOPC  C21420422   0.807   0.466  14.352 -0.2061  0.3988  0.4259
  168DOPC  H14R20423   0.842   0.562  14.309  1.5946  0.1561  1.2378
  168DOPC  H14S20424   0.700   0.489  14.369  0.2156  1.5894  1.7440
  168DOPC  C21520425   0.822   0.358  14.242 -0.7093 -0.9147  0.4764
  168DOPC  H15R20426   0.755   0.274  14.271 -1.5109 -0.2592  0.5206
  168DOPC  H15S20427   0.928   0.323  14.236 -0.1530  0.8032 -0.2554
  168DOPC  C21620428   0.797   0.416  14.097 -0.7565 -0.1361  0.4958
  168DOPC  H16R20429   0.872   0.497  14.084  0.4258 -1.0325  1.4292
  168DOPC  H16S20430   0.692   0.452  14.096 -0.5431  0.8257 -3.2592
  168DOPC  C21720431   0.812   0.314  13.984  0.3314 -1.0130 -0.2309
  168DOPC  H17R20432   0.763   0.222  14.023  0.7175 -0.1693  2.4687
  168DOPC  H17S20433   0.921   0.304  13.970  0.7348  2.8612 -0.8937
  168DOPC  C21820434   0.750   0.360  13.853  0.1064 -0.2918  0.1484
  168DOPC  H18R20435   0.816   0.440  13.813  0.5387 -0.9022 -0.3816
  168DOPC  H18S20436   0.645   0.396  13.859  0.3251  0.4485 -0.3006
  168DOPC  H18T20437   0.751   0.275  13.780 -1.6797  1.0047 -1.5150
  168DOPC   C3320438   0.359   0.892  15.463  0.2270  0.3503  0.9210
  168DOPC   H3X20439   0.351   0.799  15.523  0.1789 -0.0982  0.2151
  168DOPC   H3Y20440   0.465   0.923  15.478  1.0799 -1.5055 -0.8520
  168DOPC   C3420441   0.331   0.880  15.305 -0.2109 -0.1897 -0.1743
  168DOPC   H4X20442   0.226   0.867  15.273 -0.2210 -0.3998 -0.0579
  168DOPC   H4Y20443   0.374   0.781  15.275  1.3546  0.2772  0.4238
  168DOPC   C3520444   0.400   0.985  15.210  0.1724 -0.3175 -0.0360
  168DOPC   H5X20445   0.500   1.004  15.255 -0.5537 -0.7259  1.8630
  168DOPC   H5Y20446   0.345   1.080  15.197  0.8035 -0.1810 -1.9881
  168DOPC   C3620447   0.424   0.927  15.072  0.1326  0.0427 -0.4938
  168DOPC   H6X20448   0.472   0.827  15.078  1.7116  0.8228  0.2341
  168DOPC   H6Y20449   0.325   0.913  15.023 -0.0965  0.7721 -0.2613
  168DOPC   C3720450   0.524   1.014  14.998 -0.2872  0.1952 -0.3095
  168DOPC   H7X20451   0.488   1.118  15.009  1.5906  0.7024  1.6953
  168DOPC   H7Y20452   0.626   1.018  15.042 -0.1249  4.9253 -0.5647
  168DOPC   C3820453   0.533   0.986  14.846 -0.5766 -0.1986  0.4160
  168DOPC   H8X20454   0.542   0.876  14.832 -1.0793 -0.0846 -1.0113
  168DOPC   H8Y20455   0.615   1.045  14.801 -1.3367 -0.0090 -0.7669
  168DOPC   C3920456   0.409   1.032  14.770  0.0951 -0.3934  0.4435
  168DOPC   H9X20457   0.318   1.035  14.832 -0.8034  0.5235 -0.8689
  168DOPC  C31020458   0.403   1.073  14.640 -0.6481  0.2740  0.4773
  168DOPC  H10X20459   0.307   1.119  14.611 -0.9223  1.3029  2.7710
  168DOPC  C31120460   0.523   1.061  14.545 -0.5628 -0.6820  0.0017
  168DOPC  H11X20461   0.614   1.031  14.601  0.6062  0.3583 -1.2719
  168DOPC  H11Y20462   0.550   1.163  14.510  0.8409 -1.1981 -0.4534
  168DOPC  C31220463   0.499   0.973  14.418  0.7694 -0.3144 -0.3092
  168DOPC  H12X20464   0.404   0.992  14.364 -1.6248 -2.8893  2.6114
  168DOPC  H12Y20465   0.502   0.872  14.465 -1.8698 -0.7341 -0.9091
  168DOPC  C31320466   0.629   0.982  14.334  0.2669  0.2967  0.3326
  168DOPC  H13X20467   0.648   1.082  14.290  0.4286  0.2933  0.3962
  168DOPC  H13Y20468   0.718   0.965  14.398  2.0808  1.2706 -1.7953
  168DOPC  C31420469   0.639   0.888  14.210 -0.3794 -0.2429 -0.4854
  168DOPC  H14X20470   0.606   0.788  14.245 -1.4528 -0.0946 -1.0354
  168DOPC  H14Y20471   0.579   0.925  14.124 -1.2427  1.4677  0.7964
  168DOPC  C31520472   0.785   0.878  14.161 -0.6880 -0.1610 -0.3529
  168DOPC  H15X20473   0.833   0.841  14.254 -0.0219  2.6598  0.5185
  168DOPC  H15Y20474   0.828   0.979  14.146  1.5105 -0.6763  1.7632
  168DOPC  C31620475   0.792   0.787  14.039 -0.0084 -0.4792 -0.5793
  168DOPC  H16X20476   0.897   0.752  14.022 -0.0322 -0.0626 -1.6555
  168DOPC  H16Y20477   0.725   0.700  14.057 -1.0511  0.3549 -0.3447
  168DOPC  C31720478   0.740   0.851  13.900  0.5358 -0.3012 -0.3433
  168DOPC  H17X20479   0.705   0.768  13.834  0.1424 -0.9837  0.6843
  168DOPC  H17Y20480   0.647   0.907  13.923 -0.2479 -1.5794 -0.2530
  168DOPC  C31820481   0.833   0.940  13.820 -0.6249  0.2327 -0.4837
  168DOPC  H18X20482   0.913   0.874  13.778 -0.8059 -0.9535  0.9484
  168DOPC  H18Y20483   0.778   0.988  13.737  0.9571 -0.1840 -1.8413
  168DOPC  H18Z20484   0.875   1.017  13.888  0.4922 -0.3349 -0.5100
  169DOPC     N20485   6.006   1.183  16.383  0.4640  0.1248 -0.2912
  169DOPC   C1220486   6.160   1.203  16.362 -0.6108  0.9113 -0.3225
  169DOPC  H12A20487   6.201   1.113  16.318  0.2465 -0.5079  3.0731
  169DOPC  H12B20488   6.203   1.212  16.460  1.0333 -0.3330 -0.8847
  169DOPC   C1320489   5.973   1.069  16.469 -0.0942 -0.1775 -0.3699
  169DOPC  H13A20490   5.870   1.059  16.496  0.4449  3.9716  4.7390
  169DOPC  H13B20491   6.003   0.980  16.415 -1.5888 -0.9963  0.1046
  169DOPC  H13C20492   6.040   1.080  16.553  0.8163 -0.6542 -1.0023
  169DOPC   C1420493   5.934   1.158  16.254  0.0798  0.1492  0.2330
  169DOPC  H14A20494   5.928   1.241  16.186 -2.7878 -0.4498 -0.3722
  169DOPC  H14B20495   5.981   1.082  16.192  1.2201  0.0894  1.1443
  169DOPC  H14C20496   5.829   1.139  16.273 -0.0946 -0.5500 -1.2355
  169DOPC   C1520497   5.944   1.303  16.453  0.0476 -0.3274 -0.4226
  169DOPC  H15A20498   5.948   1.394  16.395  0.3790 -1.5413 -2.4007
  169DOPC  H15B20499   5.993   1.324  16.547 -0.7576  0.9080 -0.2630
  169DOPC  H15C20500   5.844   1.282  16.489 -0.1362  1.5675  0.2854
  169DOPC   C1120501   6.193   1.331  16.288 -0.4334 -0.3950  0.1874
  169DOPC  H11A20502   6.298   1.342  16.254 -0.5044 -0.7777 -0.1655
  169DOPC  H11B20503   6.137   1.337  16.192  2.0594 -1.4551 -1.4349
  169DOPC     P20504   6.174   1.592  16.297 -0.2649  0.2364 -0.2360
  169DOPC   O1320505   6.313   1.621  16.259 -0.4565  0.1898  0.0040
  169DOPC   O1420506   6.108   1.683  16.390 -0.6021 -0.2538 -0.2530
  169DOPC   O1220507   6.169   1.452  16.364 -0.5235 -0.1337  0.0956
  169DOPC   O1120508   6.085   1.587  16.167  0.1338  0.4620  0.5551
  169DOPC    C120509   6.129   1.660  16.048 -0.2303 -0.1654 -0.2419
  169DOPC    HA20510   6.166   1.762  16.069 -0.2357 -0.3832  0.8472
  169DOPC    HB20511   6.042   1.684  15.983  0.3430  0.9180 -0.6258
  169DOPC    C220512   6.246   1.595  15.960 -0.3448  0.3320 -0.6267
  169DOPC    HS20513   6.337   1.599  16.024 -1.8842 -0.2711  1.7670
  169DOPC   O2120514   6.264   1.670  15.837 -0.1589 -0.4596 -0.3577
  169DOPC   C2120515   6.342   1.772  15.843 -0.5571  0.2711 -0.4546
  169DOPC   O2220516   6.423   1.792  15.937  0.2657 -0.0955  0.2425
  169DOPC   C2220517   6.339   1.855  15.722  0.1749 -0.0624  0.1938
  169DOPC   H2R20518   6.357   1.791  15.633  2.7152 -0.0699  0.6132
  169DOPC   H2S20519   6.431   1.917  15.710 -0.1945  0.7887  1.5369
  169DOPC    C320520   6.224   1.448  15.933 -0.6114 -0.0769  0.7754
  169DOPC    HX20521   6.119   1.438  15.898 -0.4502 -4.9556  1.0381
  169DOPC    HY20522   6.235   1.390  16.027  1.0323  0.8869  1.2060
  169DOPC   O3120523   6.311   1.400  15.825 -0.1506  0.4511 -0.0915
  169DOPC   C3120524   6.253   1.328  15.725  0.3103  0.0114  0.1078
  169DOPC   O3220525   6.138   1.285  15.721  0.1868 -0.3684 -0.0413
  169DOPC   C3220526   6.351   1.336  15.608 -0.4770 -0.4247  1.0107
  169DOPC   H2X20527   6.427   1.414  15.627 -0.1125 -1.0044  1.9633
  169DOPC   H2Y20528   6.404   1.239  15.612 -1.5575 -1.1239 -0.5503
  169DOPC   C2320529   6.200   1.918  15.697  0.3402 -0.2116 -0.6225
  169DOPC   H3R20530   6.211   2.000  15.771 -1.9329 -1.5273  1.2862
  169DOPC   H3S20531   6.119   1.853  15.735  1.5802 -1.1152  0.5664
  169DOPC   C2420532   6.160   1.982  15.559 -0.1263  0.2574 -0.5834
  169DOPC   H4R20533   6.062   2.033  15.565  1.2667  3.1992 -1.1395
  169DOPC   H4S20534   6.160   1.905  15.479 -1.0679 -2.4154  1.8015
  169DOPC   C2520535   6.266   2.091  15.515 -0.1165 -0.0762  0.4857
  169DOPC   H5R20536   6.365   2.044  15.533  0.5232  1.4654  1.0861
  169DOPC   H5S20537   6.249   2.183  15.574 -0.9052 -0.3211  0.6561
  169DOPC   C2620538   6.257   2.117  15.370  0.7492  0.0837 -0.1740
  169DOPC   H6R20539   6.247   2.018  15.320 -2.4944  0.3985 -0.3520
  169DOPC   H6S20540   6.347   2.177  15.345  1.2181 -0.5899 -0.1509
  169DOPC   C2720541   6.130   2.196  15.335 -0.0002  0.1030 -0.2539
  169DOPC   H7R20542   6.117   2.259  15.425 -0.2084 -1.1425  0.6164
  169DOPC   H7S20543   6.040   2.131  15.330  0.3308 -0.2883 -1.7491
  169DOPC   C2820544   6.137   2.285  15.211 -0.1680 -0.7341  0.1381
  169DOPC   H8R20545   6.217   2.359  15.234  0.2327 -1.7620  2.4552
  169DOPC   H8S20546   6.038   2.333  15.202 -0.2290 -0.9500 -0.3262
  169DOPC   C2920547   6.155   2.215  15.079  0.2689  0.3212 -0.6917
  169DOPC   H9R20548   6.136   2.107  15.082 -0.9822  0.5354  1.4416
  169DOPC  C21020549   6.173   2.278  14.962 -0.7793 -0.2996 -0.2694
  169DOPC  H10R20550   6.170   2.212  14.874 -0.9950 -0.2233 -0.3186
  169DOPC  C21120551   6.193   2.424  14.937  0.1562 -0.1030 -0.3252
  169DOPC  H11R20552   6.284   2.445  14.877  0.0551  1.3765 -0.0100
  169DOPC  H11S20553   6.201   2.486  15.029 -1.4992 -0.9102  0.4033
  169DOPC  C21220554   6.062   2.483  14.880 -0.1425  0.1987 -0.9104
  169DOPC  H12R20555   6.079   2.589  14.853  1.1816 -0.4005 -2.5638
  169DOPC  H12S20556   5.978   2.473  14.953 -1.3087 -2.9162 -2.4953
  169DOPC  C21320557   6.003   2.416  14.760  0.2707  0.9952  0.4923
  169DOPC  H13R20558   5.904   2.457  14.730 -0.4401  0.7517  2.3392
  169DOPC  H13S20559   5.992   2.307  14.777 -0.3354  1.0380  0.4088
  169DOPC  C21420560   6.094   2.431  14.638 -0.6718 -0.3309  0.5024
  169DOPC  H14R20561   6.185   2.373  14.663 -1.3815 -0.8542  2.0222
  169DOPC  H14S20562   6.123   2.538  14.632  2.0220 -1.0427 -0.5750
  169DOPC  C21520563   6.031   2.390  14.498 -0.3623  0.8728 -0.2106
  169DOPC  H15R20564   6.092   2.445  14.423  1.4585 -0.5320  0.1866
  169DOPC  H15S20565   5.929   2.435  14.499  0.6099  3.3626  2.0566
  169DOPC  C21620566   6.035   2.241  14.477  0.0515  0.3549 -0.5730
  169DOPC  H16R20567   5.979   2.188  14.557  0.9121  2.0424  1.2241
  169DOPC  H16S20568   6.142   2.212  14.490  0.4082  1.9887  0.4189
  169DOPC  C21720569   5.971   2.182  14.352 -0.2941 -0.4935 -0.2865
  169DOPC  H17R20570   5.865   2.212  14.347 -0.2348 -0.4208 -1.3096
  169DOPC  H17S20571   5.979   2.071  14.355  4.1188 -0.3521  0.0159
  169DOPC  C21820572   6.033   2.240  14.216  0.1517 -0.8597 -0.2255
  169DOPC  H18R20573   6.020   2.350  14.221 -3.5085 -1.1696 -0.4972
  169DOPC  H18S20574   5.975   2.207  14.128  1.8266 -0.1925 -1.6340
  169DOPC  H18T20575   6.140   2.215  14.198  0.3899  0.4798 -0.7490
  169DOPC   C3320576   6.295   1.347  15.470 -0.4620 -0.2886  0.3357
  169DOPC   H3X20577   6.271   1.452  15.444  4.4421  0.4927 -2.1949
  169DOPC   H3Y20578   6.203   1.287  15.451 -0.0728 -1.3309  1.5923
  169DOPC   C3420579   6.404   1.305  15.371 -0.0026 -0.5648  0.2997
  169DOPC   H4X20580   6.417   1.196  15.384  0.8408 -0.3099  1.8294
  169DOPC   H4Y20581   6.498   1.353  15.405 -0.1384 -0.3709  0.4004
  169DOPC   C3520582   6.368   1.355  15.230  0.5045  0.1868  0.0444
  169DOPC   H5X20583   6.327   1.458  15.235 -3.7642 -1.3736  1.9568
  169DOPC   H5Y20584   6.289   1.287  15.192  0.5007  0.4830 -0.4824
  169DOPC   C3620585   6.485   1.349  15.129 -0.1459  0.2685 -0.1747
  169DOPC   H6X20586   6.554   1.436  15.139  2.4916 -1.5488 -1.2367
  169DOPC   H6Y20587   6.547   1.257  15.133  1.0012  0.9570 -1.2364
  169DOPC   C3720588   6.417   1.365  14.987 -0.2664 -0.7409  0.0249
  169DOPC   H7X20589   6.363   1.269  14.970 -0.6560 -1.2186  3.3906
  169DOPC   H7Y20590   6.338   1.441  15.001 -0.1069 -0.8377  1.6162
  169DOPC   C3820591   6.528   1.370  14.868  0.5591 -0.0686 -0.0586
  169DOPC   H8X20592   6.607   1.297  14.893 -0.8837 -1.4661  0.5408
  169DOPC   H8Y20593   6.572   1.473  14.869 -0.8914  0.5772 -0.2151
  169DOPC   C3920594   6.447   1.338  14.745  0.3994  1.0422  0.7622
  169DOPC   H9X20595   6.361   1.278  14.779  0.3968  1.0831  0.8291
  169DOPC  C31020596   6.460   1.387  14.620  0.8554 -0.1766  0.4992
  169DOPC  H10X20597   6.377   1.372  14.549  0.6455 -3.3321  1.2469
  169DOPC  C31120598   6.586   1.458  14.574 -0.4737 -0.8221 -0.4411
  169DOPC  H11X20599   6.674   1.429  14.637 -0.9688 -1.1191  0.1279
  169DOPC  H11Y20600   6.567   1.565  14.594  0.6722 -0.3090 -1.9413
  169DOPC  C31220601   6.611   1.437  14.427  0.4050  0.5764 -0.3542
  169DOPC  H12X20602   6.622   1.328  14.406  1.2973 -0.0656  2.8691
  169DOPC  H12Y20603   6.711   1.479  14.401  0.7284 -0.8361 -1.5145
  169DOPC  C31320604   6.517   1.506  14.341 -0.6593 -0.2851  0.3704
  169DOPC  H13X20605   6.409   1.479  14.346 -1.1093  1.5171  1.1626
  169DOPC  H13Y20606   6.526   1.614  14.365  3.0810  0.3525 -2.8100
  169DOPC  C31420607   6.541   1.501  14.188  0.0364  0.3408 -0.4572
  169DOPC  H14X20608   6.472   1.569  14.133 -2.5802 -2.2930 -0.6846
  169DOPC  H14Y20609   6.644   1.537  14.167  0.1007 -0.0830 -0.8851
  169DOPC  C31520610   6.522   1.355  14.135 -0.5664  0.1882 -0.2034
  169DOPC  H15X20611   6.412   1.343  14.151 -0.7448  1.8332  0.0332
  169DOPC  H15Y20612   6.585   1.286  14.194  1.9924  0.4529 -2.4556
  169DOPC  C31620613   6.555   1.337  13.986  0.5471 -0.7522 -0.2996
  169DOPC  H16X20614   6.516   1.428  13.937  2.7173  1.7077  2.2118
  169DOPC  H16Y20615   6.663   1.332  13.961  0.5182  0.7611 -0.7669
  169DOPC  C31720616   6.486   1.219  13.912 -0.1280 -0.1268 -0.0738
  169DOPC  H17X20617   6.505   1.233  13.804  2.1899  2.0410  0.5323
  169DOPC  H17Y20618   6.546   1.130  13.938 -1.6427 -0.8629  1.0878
  169DOPC  C31820619   6.335   1.194  13.933 -0.1359 -0.3032  0.0314
  169DOPC  H18X20620   6.282   1.288  13.909  1.0637  0.1820 -0.7974
  169DOPC  H18Y20621   6.298   1.127  13.853 -1.9748 -0.4542  0.9576
  169DOPC  H18Z20622   6.315   1.161  14.038  1.4085 -1.3998  0.0236
  170DOPC     N20623   5.241   5.070  16.856 -0.4842  0.6931  0.4231
  170DOPC   C1220624   5.181   4.925  16.833  0.4293 -0.2406  1.0439
  170DOPC  H12A20625   5.138   4.893  16.926  0.1970  0.7733  1.3025
  170DOPC  H12B20626   5.263   4.857  16.815  0.1804 -0.5636  1.1371
  170DOPC   C1320627   5.285   5.119  16.726 -0.2603 -0.2606  0.7849
  170DOPC  H13A20628   5.349   5.056  16.666 -2.1730  0.1004 -1.7893
  170DOPC  H13B20629   5.199   5.115  16.661  1.6490  0.4672 -1.9541
  170DOPC  H13C20630   5.323   5.219  16.740  0.5645 -0.1992 -1.4672
  170DOPC   C1420631   5.344   5.074  16.968 -0.7710  0.2693  0.2909
  170DOPC  H14A20632   5.304   5.049  17.065 -0.3711  1.6628  0.8461
  170DOPC  H14B20633   5.430   5.011  16.950 -1.3105 -2.0353  4.4401
  170DOPC  H14C20634   5.368   5.178  16.984  1.0501 -0.2356  1.0353
  170DOPC   C1520635   5.129   5.157  16.897  0.6297 -0.0960  0.5871
  170DOPC  H15A20636   5.086   5.109  16.983 -0.7587 -1.3248 -0.7327
  170DOPC  H15B20637   5.057   5.168  16.817  0.2205 -0.9431  0.8255
  170DOPC  H15C20638   5.168   5.256  16.913  3.6338 -0.6437 -2.2132
  170DOPC   C1120639   5.065   4.912  16.720 -0.3678 -0.1661  0.7330
  170DOPC  H11A20640   5.024   4.810  16.734 -2.3973  0.2944 -1.3666
  170DOPC  H11B20641   4.980   4.982  16.727 -2.0083 -1.9630 -0.4047
  170DOPC     P20642   5.136   4.831  16.479  0.2900  0.1174 -0.3670
  170DOPC   O1320643   4.998   4.802  16.437 -0.0269  0.2154  0.1247
  170DOPC   O1420644   5.221   4.721  16.527  0.3316 -0.6437 -0.2718
  170DOPC   O1220645   5.128   4.927  16.598 -0.4020  0.3673  0.0392
  170DOPC   O1120646   5.218   4.917  16.376 -0.6847 -0.0603 -0.0308
  170DOPC    C120647   5.210   5.057  16.350  0.5029  0.8166 -0.9161
  170DOPC    HA20648   5.312   5.098  16.367  0.1971  0.9821  0.7057
  170DOPC    HB20649   5.150   5.104  16.432 -1.9436  1.1491 -2.7591
  170DOPC    C220650   5.153   5.090  16.211 -0.4107 -0.1379  0.6998
  170DOPC    HS20651   5.138   5.200  16.215  0.8005  0.0502  0.5994
  170DOPC   O2120652   5.035   5.021  16.170  0.1297  0.1234  0.2449
  170DOPC   C2120653   4.934   5.046  16.252  0.1085 -0.3177  0.4283
  170DOPC   O2220654   4.934   5.130  16.338 -0.4170  0.1028  0.1977
  170DOPC   C2220655   4.813   4.958  16.213 -0.2096  0.1689 -0.8048
  170DOPC   H2R20656   4.827   4.863  16.269 -2.8464  0.0180 -0.2574
  170DOPC   H2S20657   4.819   4.934  16.105 -0.4087 -0.2652 -0.7259
  170DOPC    C320658   5.258   5.058  16.098 -0.3144 -0.0189 -0.7377
  170DOPC    HX20659   5.208   5.039  16.001 -0.1604  0.3896 -0.9004
  170DOPC    HY20660   5.300   4.960  16.130  3.4665  2.1918  1.9458
  170DOPC   O3120661   5.356   5.161  16.099  0.2107  1.0822  0.2649
  170DOPC   C3120662   5.333   5.265  16.022  0.7229 -0.8157 -0.2788
  170DOPC   O3220663   5.234   5.268  15.951 -0.0805 -0.3527  0.2451
  170DOPC   C3220664   5.424   5.380  16.048 -0.0606  0.1997  0.0612
  170DOPC   H2X20665   5.395   5.434  16.140 -0.8977  2.4544 -1.4621
  170DOPC   H2Y20666   5.530   5.346  16.054  0.2267  0.6402 -1.9311
  170DOPC   C2320667   4.680   5.014  16.252  0.2891 -0.3907 -0.6499
  170DOPC   H3R20668   4.673   5.032  16.361 -3.1551  2.9411 -1.2117
  170DOPC   H3S20669   4.606   4.931  16.243  0.4784 -0.5047 -1.2011
  170DOPC   C2420670   4.643   5.138  16.171 -0.3906  0.6625 -0.1400
  170DOPC   H4R20671   4.720   5.212  16.138 -0.8714  2.0399  1.6655
  170DOPC   H4S20672   4.568   5.193  16.231 -0.4221 -0.6527  1.0545
  170DOPC   C2520673   4.564   5.101  16.042 -0.2876 -0.4629  0.2139
  170DOPC   H5R20674   4.462   5.059  16.050 -0.2017 -1.0500 -1.3333
  170DOPC   H5S20675   4.625   5.022  15.993 -1.4423 -1.6719  0.6880
  170DOPC   C2620676   4.566   5.218  15.939  0.4611 -0.2290 -0.9503
  170DOPC   H6R20677   4.668   5.245  15.902  0.0697  1.3858 -0.9629
  170DOPC   H6S20678   4.530   5.304  16.000 -0.0669 -1.0842 -0.0186
  170DOPC   C2720679   4.475   5.183  15.823  0.0279  0.5632 -0.1495
  170DOPC   H7R20680   4.380   5.144  15.866 -1.7256  1.8266 -2.6145
  170DOPC   H7S20681   4.529   5.106  15.765  1.4186  1.7516 -0.4752
  170DOPC   C2820682   4.436   5.315  15.744 -0.2538 -0.0320  0.5159
  170DOPC   H8R20683   4.422   5.400  15.814 -0.8416  1.5805 -1.4635
  170DOPC   H8S20684   4.344   5.300  15.684  0.4820  0.4277 -0.7662
  170DOPC   C2920685   4.547   5.358  15.646  0.3031  0.1458 -0.5264
  170DOPC   H9R20686   4.642   5.344  15.699 -1.3885 -2.4646  2.0861
  170DOPC  C21020687   4.550   5.361  15.511  0.3605 -0.5895  0.2650
  170DOPC  H10R20688   4.651   5.375  15.470  0.7109  1.2003  1.5917
  170DOPC  C21120689   4.436   5.352  15.407  0.1096 -0.0884 -0.3158
  170DOPC  H11R20690   4.360   5.432  15.412 -1.2174 -1.3907  2.0074
  170DOPC  H11S20691   4.385   5.254  15.420 -0.2472  0.1403  0.0364
  170DOPC  C21220692   4.490   5.346  15.264  0.2598  0.0802  0.5887
  170DOPC  H12R20693   4.401   5.339  15.198 -0.2543  4.7364  0.4558
  170DOPC  H12S20694   4.556   5.260  15.238 -0.4206 -0.2739 -0.0049
  170DOPC  C21320695   4.571   5.459  15.216 -0.2085 -0.1280  0.2718
  170DOPC  H13R20696   4.677   5.452  15.246 -0.3372 -1.3963  0.4730
  170DOPC  H13S20697   4.543   5.558  15.257  1.1371  1.6381 -2.6946
  170DOPC  C21420698   4.566   5.479  15.058  0.3627 -0.2783 -0.5174
  170DOPC  H14R20699   4.463   5.514  15.035 -0.4223 -1.3241  1.2598
  170DOPC  H14S20700   4.592   5.380  15.015 -3.2751 -1.8240  0.4773
  170DOPC  C21520701   4.645   5.593  15.007  0.0782 -0.1455 -0.6244
  170DOPC  H15R20702   4.750   5.564  15.026  0.0465 -1.8236 -2.7598
  170DOPC  H15S20703   4.630   5.680  15.075  1.2995 -0.0762 -0.4287
  170DOPC  C21620704   4.633   5.638  14.859  0.5403  0.2211 -0.4951
  170DOPC  H16R20705   4.671   5.740  14.838  0.4224  0.0721 -1.5130
  170DOPC  H16S20706   4.528   5.640  14.825  0.0868  0.2095  0.8500
  170DOPC  C21720707   4.717   5.550  14.770 -0.5385 -0.1393 -0.4323
  170DOPC  H17R20708   4.697   5.443  14.794 -1.0556  0.0225 -0.1146
  170DOPC  H17S20709   4.824   5.572  14.790 -0.7119 -0.6323  1.2243
  170DOPC  C21820710   4.685   5.583  14.624  0.0054 -0.4743 -0.0069
  170DOPC  H18R20711   4.718   5.687  14.607  0.8416 -0.6453  0.5160
  170DOPC  H18S20712   4.574   5.579  14.613 -0.1541  1.8693  0.3171
  170DOPC  H18T20713   4.746   5.518  14.558  0.7934  0.0747  0.1691
  170DOPC   C3320714   5.418   5.475  15.930 -0.0396  0.3473  0.5700
  170DOPC   H3X20715   5.474   5.565  15.962  0.5469  0.2807 -0.2517
  170DOPC   H3Y20716   5.313   5.502  15.905 -0.0100 -0.6808 -0.7549
  170DOPC   C3420717   5.493   5.413  15.807  0.1309  0.4918  0.0847
  170DOPC   H4X20718   5.473   5.306  15.786  3.6734  0.1881 -2.8124
  170DOPC   H4Y20719   5.604   5.419  15.811  0.2109 -0.9065  0.5285
  170DOPC   C3520720   5.430   5.481  15.682 -0.1218 -0.0866  0.0027
  170DOPC   H5X20721   5.452   5.590  15.687  1.2335 -0.1686 -2.4455
  170DOPC   H5Y20722   5.321   5.461  15.682 -0.3923  1.2149 -0.7737
  170DOPC   C3620723   5.478   5.411  15.552  0.5079  0.1289  0.5802
  170DOPC   H6X20724   5.587   5.433  15.542  0.3370  0.3218 -1.2929
  170DOPC   H6Y20725   5.454   5.303  15.549 -1.9905  0.6309 -2.0663
  170DOPC   C3720726   5.413   5.475  15.428 -0.5231  0.1686 -0.3393
  170DOPC   H7X20727   5.303   5.459  15.434 -0.7871  2.1619  2.6864
  170DOPC   H7Y20728   5.436   5.582  15.446 -1.0712  0.0766  1.1216
  170DOPC   C3820729   5.482   5.434  15.304 -0.8276 -0.1765 -0.5706
  170DOPC   H8X20730   5.464   5.327  15.283  1.4573 -0.5614 -0.8911
  170DOPC   H8Y20731   5.591   5.459  15.305 -0.5830 -1.2172 -0.4868
  170DOPC   C3920732   5.425   5.516  15.194  0.3509  0.2920  0.2145
  170DOPC   H9X20733   5.411   5.622  15.220 -0.0528  1.0463 -2.7115
  170DOPC  C31020734   5.412   5.479  15.066  0.1073  0.3941  1.1036
  170DOPC  H10X20735   5.360   5.541  14.991  0.3784 -0.4198  0.2221
  170DOPC  C31120736   5.435   5.342  15.018  0.0234 -0.0832  0.5591
  170DOPC  H11X20737   5.345   5.278  15.025 -0.7104  0.8473 -0.0781
  170DOPC  H11Y20738   5.510   5.293  15.084  1.3321 -2.6993 -2.5891
  170DOPC  C31220739   5.487   5.352  14.874  0.4942 -0.6655 -0.3105
  170DOPC  H12X20740   5.553   5.440  14.857  0.6986 -0.8711 -0.5792
  170DOPC  H12Y20741   5.404   5.360  14.801  0.7416  2.5370 -0.3964
  170DOPC  C31320742   5.568   5.227  14.838 -0.0835  0.0786  0.3788
  170DOPC  H13X20743   5.659   5.238  14.901 -0.2316 -1.4123  0.8860
  170DOPC  H13Y20744   5.507   5.142  14.875 -0.7758 -0.3847 -1.6889
  170DOPC  C31420745   5.606   5.234  14.689 -0.6731  0.1300  0.2986
  170DOPC  H14X20746   5.587   5.334  14.644 -3.4233 -1.3904 -2.2153
  170DOPC  H14Y20747   5.713   5.203  14.692 -1.1332 -1.4829  1.0834
  170DOPC  C31520748   5.527   5.130  14.602  0.4061  0.2630  0.3840
  170DOPC  H15X20749   5.420   5.155  14.614 -0.4823 -3.1907  0.9451
  170DOPC  H15Y20750   5.531   5.033  14.656 -0.0801 -0.2497 -0.4829
  170DOPC  C31620751   5.568   5.104  14.456 -0.1749  0.0566  0.3611
  170DOPC  H16X20752   5.678   5.093  14.461 -0.2234 -0.3793  0.5193
  170DOPC  H16Y20753   5.530   5.011  14.408 -0.0669  0.1086  0.1741
  170DOPC  C31720754   5.523   5.225  14.373 -0.1794  0.6193 -0.1819
  170DOPC  H17X20755   5.413   5.225  14.361 -0.0866  1.4310 -1.2243
  170DOPC  H17Y20756   5.538   5.315  14.436 -0.5578  0.0728  0.7017
  170DOPC  C31820757   5.589   5.239  14.243 -0.5042 -0.2172 -0.4770
  170DOPC  H18X20758   5.695   5.209  14.254 -0.7302 -1.3393 -1.2204
  170DOPC  H18Y20759   5.537   5.180  14.165  0.5056  1.3155 -2.3878
  170DOPC  H18Z20760   5.588   5.345  14.210  0.9058 -0.3354 -0.9283
  171DOPC     N20761   3.851   3.692  11.769  0.7512  0.1128 -0.1005
  171DOPC   C1220762   3.897   3.595  11.874  0.6399 -0.3180 -0.1532
  171DOPC  H12A20763   3.825   3.518  11.897  2.2020 -1.3073  1.7577
  171DOPC  H12B20764   3.902   3.651  11.966 -0.2942  0.8021 -0.7613
  171DOPC   C1320765   3.947   3.800  11.748 -0.1593 -0.2896  0.3856
  171DOPC  H13A20766   3.941   3.853  11.842 -1.3479 -1.0061  0.7318
  171DOPC  H13B20767   4.049   3.766  11.735 -0.5139 -1.7440  1.2732
  171DOPC  H13C20768   3.921   3.863  11.664 -0.3340  0.3675  0.9202
  171DOPC   C1420769   3.717   3.753  11.815 -0.2121 -0.4197  0.0636
  171DOPC  H14A20770   3.717   3.794  11.915 -0.6025  2.6558 -1.0788
  171DOPC  H14B20771   3.695   3.840  11.754  0.3850  0.3680  0.9445
  171DOPC  H14C20772   3.639   3.678  11.819  0.8090 -1.4662  1.9380
  171DOPC   C1520773   3.825   3.611  11.645  0.6961 -0.1602 -1.0200
  171DOPC  H15A20774   3.772   3.679  11.580  0.1659  0.3416 -0.0762
  171DOPC  H15B20775   3.752   3.534  11.665  0.9492  0.2891  2.0265
  171DOPC  H15C20776   3.911   3.566  11.596 -0.3916 -3.7818  0.0379
  171DOPC   C1120777   4.037   3.525  11.864  0.9648 -0.3083 -0.2869
  171DOPC  H11A20778   4.035   3.442  11.939 -0.3655  0.9800  1.1682
  171DOPC  H11B20779   4.042   3.473  11.766 -0.7826 -0.5542 -0.2763
  171DOPC     P20780   4.186   3.672  12.025  0.0860 -0.0115 -0.0255
  171DOPC   O1320781   4.089   3.759  12.081 -0.0484 -0.0677 -0.0255
  171DOPC   O1420782   4.324   3.723  12.007  0.3566 -0.5178 -0.4437
  171DOPC   O1220783   4.149   3.619  11.880  0.2765 -0.2220  0.2479
  171DOPC   O1120784   4.195   3.536  12.097  0.2645 -0.4027 -0.2665
  171DOPC    C120785   4.125   3.516  12.218 -0.7999 -0.3198 -0.2192
  171DOPC    HA20786   4.083   3.413  12.231 -0.8677 -0.3532 -0.6761
  171DOPC    HB20787   4.033   3.576  12.235  0.1165  0.5685  1.9975
  171DOPC    C220788   4.230   3.555  12.333 -0.5954 -0.3272 -0.0782
  171DOPC    HS20789   4.222   3.665  12.323 -2.1301 -0.4104  0.0524
  171DOPC   O2120790   4.361   3.504  12.300  0.2877  0.0896  0.1927
  171DOPC   C2120791   4.461   3.580  12.341  0.9278  1.1029  0.7384
  171DOPC   O2220792   4.445   3.676  12.408 -0.3689  0.0789 -0.5021
  171DOPC   C2220793   4.592   3.516  12.309  0.2965 -0.2803 -0.5755
  171DOPC   H2R20794   4.581   3.484  12.203  0.9961  1.6836 -1.2770
  171DOPC   H2S20795   4.620   3.438  12.384  3.4823  1.7188  0.5215
  171DOPC    C320796   4.185   3.523  12.478 -0.0535  0.2161 -0.0909
  171DOPC    HX20797   4.154   3.417  12.492 -2.1908  0.6382 -1.0970
  171DOPC    HY20798   4.084   3.564  12.500  0.4757  0.8310  1.2408
  171DOPC   O3120799   4.272   3.565  12.584 -0.1482 -0.0236 -0.0875
  171DOPC   C3120800   4.270   3.693  12.616  0.1703 -0.6596 -0.0198
  171DOPC   O3220801   4.188   3.774  12.576 -0.2802 -0.2346 -0.3830
  171DOPC   C3220802   4.374   3.720  12.727  0.2876  0.1001  0.2329
  171DOPC   H2X20803   4.373   3.642  12.806 -0.0547  0.6172  0.7478
  171DOPC   H2Y20804   4.472   3.727  12.675 -0.6083  2.2870 -1.3139
  171DOPC   C2320805   4.702   3.623  12.318 -0.1556  0.3531  0.0568
  171DOPC   H3R20806   4.668   3.708  12.255 -1.8688 -0.3090  0.0612
  171DOPC   H3S20807   4.796   3.581  12.275 -0.5525  0.4031 -0.8840
  171DOPC   C2420808   4.740   3.669  12.464 -0.0141  0.0758  0.2457
  171DOPC   H4R20809   4.658   3.731  12.507 -0.5963 -0.9561  0.6546
  171DOPC   H4S20810   4.823   3.742  12.452  1.4706 -1.6975 -0.7692
  171DOPC   C2520811   4.795   3.551  12.557  0.0971 -0.4878  0.0820
  171DOPC   H5R20812   4.897   3.530  12.517 -0.2199 -2.6042  0.2564
  171DOPC   H5S20813   4.741   3.454  12.545  0.9340 -0.8198 -1.2174
  171DOPC   C2620814   4.795   3.592  12.702  0.4050  0.2533  0.0070
  171DOPC   H6R20815   4.695   3.596  12.750  0.8981 -0.9643  1.2050
  171DOPC   H6S20816   4.851   3.686  12.723  0.9539 -0.4629  1.9650
  171DOPC   C2720817   4.876   3.486  12.781  0.5182 -0.2260 -0.8356
  171DOPC   H7R20818   4.968   3.466  12.722  3.1909  4.3939  1.1647
  171DOPC   H7S20819   4.811   3.397  12.789 -1.5332  1.1923 -0.8873
  171DOPC   C2820820   4.923   3.535  12.920 -0.2535  0.3065  0.0432
  171DOPC   H8R20821   4.984   3.627  12.905  1.6836 -1.2307 -2.3627
  171DOPC   H8S20822   4.993   3.454  12.948 -1.4582 -0.7345  0.1075
  171DOPC   C2920823   4.811   3.548  13.024 -0.2431 -0.3233  0.3316
  171DOPC   H9R20824   4.735   3.621  12.994  0.7567  0.3488 -0.6319
  171DOPC  C21020825   4.794   3.492  13.151 -0.4790 -0.0590 -0.0095
  171DOPC  H10R20826   4.703   3.509  13.210 -0.7000  1.1214 -0.6681
  171DOPC  C21120827   4.888   3.389  13.217 -0.7283  0.9615 -0.3180
  171DOPC  H11R20828   4.966   3.351  13.148 -0.2029  2.7084 -0.7259
  171DOPC  H11S20829   4.829   3.299  13.247  1.7128 -0.1449  1.4691
  171DOPC  C21220830   4.964   3.443  13.344 -0.0643  0.0006 -0.0702
  171DOPC  H12R20831   5.038   3.522  13.319  0.6727 -0.2652  1.1827
  171DOPC  H12S20832   5.020   3.355  13.383 -0.7661  0.7802  2.9590
  171DOPC  C21320833   4.865   3.483  13.457  0.1627 -0.2309  0.3076
  171DOPC  H13R20834   4.775   3.418  13.452 -0.6947  0.9661 -0.2740
  171DOPC  H13S20835   4.822   3.583  13.437  0.2552 -0.3866 -0.7259
  171DOPC  C21420836   4.925   3.477  13.600 -0.4606 -0.1384 -0.7151
  171DOPC  H14R20837   4.988   3.387  13.616 -1.0365 -0.3679  0.4102
  171DOPC  H14S20838   4.835   3.473  13.665  2.4302 -0.1551  3.6987
  171DOPC  C21520839   5.010   3.597  13.636 -0.1934  0.0574  0.9422
  171DOPC  H15R20840   4.991   3.619  13.744 -3.7209  2.8168 -0.0559
  171DOPC  H15S20841   4.975   3.686  13.581 -1.3892 -1.0806 -0.2118
  171DOPC  C21620842   5.159   3.575  13.605 -0.4672 -0.4098  0.0641
  171DOPC  H16R20843   5.173   3.545  13.499 -0.0167  0.3789 -0.1033
  171DOPC  H16S20844   5.198   3.488  13.663 -1.1287 -0.1980  0.8432
  171DOPC  C21720845   5.253   3.692  13.637 -0.0357  0.3709  0.0761
  171DOPC  H17R20846   5.217   3.788  13.594  0.1842  0.5242  0.2312
  171DOPC  H17S20847   5.346   3.677  13.577  0.0299 -1.9306  0.6636
  171DOPC  C21820848   5.286   3.717  13.783 -0.3615  0.1264 -0.0985
  171DOPC  H18R20849   5.339   3.814  13.794 -1.0433  1.1458 -4.1474
  171DOPC  H18S20850   5.334   3.629  13.831 -0.7783 -1.3156 -2.1779
  171DOPC  H18T20851   5.191   3.737  13.837 -0.3380 -1.4248  0.5728
  171DOPC   C3320852   4.361   3.865  12.785  0.0411  0.8660 -0.2666
  171DOPC   H3X20853   4.271   3.883  12.848  0.0841  1.6739 -0.4204
  171DOPC   H3Y20854   4.333   3.925  12.696 -3.2113 -3.6417 -2.7394
  171DOPC   C3420855   4.483   3.906  12.878 -0.7868  0.6920  0.2757
  171DOPC   H4X20856   4.487   4.016  12.860  0.6417  0.8433  1.3206
  171DOPC   H4Y20857   4.576   3.861  12.837 -1.6435  0.6929 -1.7654
  171DOPC   C3520858   4.471   3.875  13.033  0.8474  1.0016 -0.4673
  171DOPC   H5X20859   4.489   3.766  13.041  0.7939  1.0929  1.1849
  171DOPC   H5Y20860   4.364   3.885  13.062  0.7333  0.1936 -0.6041
  171DOPC   C3620861   4.547   3.965  13.127 -0.5558 -0.0404 -0.7168
  171DOPC   H6X20862   4.650   3.975  13.088 -0.4235 -0.2461 -0.4260
  171DOPC   H6Y20863   4.504   4.067  13.116 -1.7188 -0.2788  1.2237
  171DOPC   C3720864   4.533   3.926  13.274 -0.0522  0.5431 -0.1331
  171DOPC   H7X20865   4.423   3.915  13.286 -0.0666 -0.0292 -0.7543
  171DOPC   H7Y20866   4.587   3.835  13.310  1.4011  1.7713  0.9536
  171DOPC   C3820867   4.564   4.031  13.384  0.9995  0.2452 -0.1541
  171DOPC   H8X20868   4.548   3.989  13.485 -0.9786  1.7150  0.1975
  171DOPC   H8Y20869   4.486   4.110  13.379  0.7244  0.1484  1.8814
  171DOPC   C3920870   4.702   4.075  13.358 -0.0607  0.1361 -0.2666
  171DOPC   H9X20871   4.698   4.149  13.277 -2.4636 -0.6862 -0.9658
  171DOPC  C31020872   4.817   4.028  13.404 -0.7980 -0.0567  0.5836
  171DOPC  H10X20873   4.911   4.081  13.380 -0.9460 -0.8887 -2.1832
  171DOPC  C31120874   4.844   3.906  13.486  0.0767  0.6723 -0.6969
  171DOPC  H11X20875   4.928   3.858  13.432  0.0301  0.9655 -1.0283
  171DOPC  H11Y20876   4.760   3.835  13.503  1.1692 -0.3706  0.6177
  171DOPC  C31220877   4.886   3.940  13.632 -0.3217 -0.2250 -0.7883
  171DOPC  H12X20878   4.897   3.845  13.688 -1.2471  1.2710  2.1145
  171DOPC  H12Y20879   4.796   3.974  13.688 -0.4604 -1.9944  0.1426
  171DOPC  C31320880   5.005   4.034  13.655 -0.1739  0.1740 -0.3874
  171DOPC  H13X20881   5.099   3.993  13.613 -0.9828 -1.7824 -0.4067
  171DOPC  H13Y20882   4.986   4.137  13.616  0.5230  0.6467  0.4682
  171DOPC  C31420883   5.032   4.039  13.800  0.1709 -0.3405 -0.2454
  171DOPC  H14X20884   4.940   4.079  13.847  0.3347  0.4807 -0.6104
  171DOPC  H14Y20885   5.057   3.942  13.850  1.5176 -0.5535 -1.2828
  171DOPC  C31520886   5.142   4.139  13.845  0.0485  0.7624  0.3120
  171DOPC  H15X20887   5.127   4.237  13.794  2.8796  0.7324 -0.7618
  171DOPC  H15Y20888   5.246   4.112  13.814  1.3984  0.3966  4.5188
  171DOPC  C31620889   5.150   4.186  13.992  0.6746 -0.2368 -0.4153
  171DOPC  H16X20890   5.238   4.253  14.001  0.3485  0.0849  0.4666
  171DOPC  H16Y20891   5.053   4.230  14.024  0.2845 -2.6365  2.0562
  171DOPC  C31720892   5.162   4.075  14.099  0.1745  0.4878  0.1072
  171DOPC  H17X20893   5.138   4.124  14.196  1.8140  0.2059  0.6841
  171DOPC  H17Y20894   5.076   4.006  14.084  1.6575 -1.2137 -1.0039
  171DOPC  C31820895   5.307   4.016  14.104  0.3052  0.7801  0.1114
  171DOPC  H18X20896   5.316   3.932  14.176  2.1820 -0.3389 -1.3506
  171DOPC  H18Y20897   5.336   3.981  14.003 -0.9052 -0.2548  0.0962
  171DOPC  H18Z20898   5.389   4.085  14.133  0.5795  0.5944 -0.2286
  172DOPC     N20899   5.543   4.601  11.888  0.1748  0.8000  0.4864
  172DOPC   C1220900   5.424   4.550  11.972 -0.4091  0.3227  0.0544
  172DOPC  H12A20901   5.358   4.632  11.999 -2.2219 -1.0017 -0.1905
  172DOPC  H12B20902   5.473   4.530  12.066 -1.0242  2.0888  0.7863
  172DOPC   C1320903   5.627   4.490  11.849 -0.5837  0.1722 -0.3783
  172DOPC  H13A20904   5.566   4.408  11.813 -1.1214  1.1013 -1.6620
  172DOPC  H13B20905   5.696   4.521  11.773 -2.1164  0.2917 -1.7860
  172DOPC  H13C20906   5.679   4.458  11.938 -1.8238  0.8643  0.6466
  172DOPC   C1420907   5.626   4.688  11.976 -0.0972  0.2404 -0.5963
  172DOPC  H14A20908   5.657   4.628  12.060  0.9839  0.0693 -1.0979
  172DOPC  H14B20909   5.710   4.733  11.925  0.9872 -1.0203 -0.0027
  172DOPC  H14C20910   5.569   4.773  12.008 -1.3681 -0.7361 -0.1716
  172DOPC   C1520911   5.500   4.676  11.762  0.1487 -0.5309 -0.7011
  172DOPC  H15A20912   5.454   4.773  11.777 -1.3095 -1.2661 -0.3092
  172DOPC  H15B20913   5.421   4.620  11.716  0.4007 -0.0998 -1.6762
  172DOPC  H15C20914   5.582   4.701  11.696  0.6417 -1.0125 -0.2825
  172DOPC   C1120915   5.348   4.421  11.926 -0.8980 -0.0210  0.0465
  172DOPC  H11A20916   5.414   4.333  11.909 -1.4743 -0.5587  0.5731
  172DOPC  H11B20917   5.273   4.383  11.998 -2.2919 -2.4127 -2.4886
  172DOPC     P20918   5.135   4.540  11.830 -0.1256 -0.3050  0.0193
  172DOPC   O1320919   5.023   4.440  11.823  0.5102 -0.3122  0.2999
  172DOPC   O1420920   5.132   4.642  11.724 -0.4941  0.1762 -0.0043
  172DOPC   O1220921   5.268   4.456  11.814  0.2391 -0.3134  0.1432
  172DOPC   O1120922   5.157   4.607  11.973  0.6494 -0.2221 -0.1690
  172DOPC    C120923   5.048   4.676  12.034  0.6015 -0.3734  0.2315
  172DOPC    HA20924   4.966   4.602  12.048 -1.2614  1.6796  0.7974
  172DOPC    HB20925   5.017   4.767  11.978  0.2048 -0.1100  0.8685
  172DOPC    C220926   5.076   4.701  12.188 -0.4099  0.8439 -0.3537
  172DOPC    HS20927   5.170   4.760  12.186  0.3546 -0.3590 -1.5805
  172DOPC   O2120928   5.103   4.578  12.251 -0.0022  0.4780  0.2575
  172DOPC   C2120929   5.226   4.531  12.262  1.4314 -0.0561  0.8626
  172DOPC   O2220930   5.324   4.591  12.243 -0.8862 -0.3151  0.5550
  172DOPC   C2220931   5.227   4.386  12.299  0.0857  0.1457 -0.3259
  172DOPC   H2R20932   5.199   4.318  12.215  2.7971 -0.2493 -1.0046
  172DOPC   H2S20933   5.148   4.369  12.375  2.2407  1.7837  2.4796
  172DOPC    C320934   4.965   4.786  12.268  0.4754  0.4683  0.5541
  172DOPC    HX20935   4.870   4.734  12.245 -0.6922  2.7118 -0.0422
  172DOPC    HY20936   4.963   4.890  12.230 -0.1568  0.6259  0.9951
  172DOPC   O3120937   4.987   4.788  12.411  0.2850  0.6185 -0.1742
  172DOPC   C3120938   5.077   4.878  12.449  0.2174  1.2187 -0.5558
  172DOPC   O3220939   5.148   4.942  12.378  0.7422  0.6324  0.1188
  172DOPC   C3220940   5.073   4.895  12.608  0.0030  0.1413  0.5060
  172DOPC   H2X20941   5.066   4.793  12.650  1.4905  0.7329  2.3337
  172DOPC   H2Y20942   5.170   4.948  12.617 -0.9531  3.2609 -3.9891
  172DOPC   C2320943   5.359   4.325  12.368  0.6316 -0.3916  0.7283
  172DOPC   H3R20944   5.416   4.413  12.403  0.8577 -0.4219  0.4374
  172DOPC   H3S20945   5.414   4.278  12.284 -0.6110  0.3860 -0.5695
  172DOPC   C2420946   5.339   4.229  12.483  0.8080  0.0930  0.0276
  172DOPC   H4R20947   5.268   4.149  12.452  1.1850 -0.0324 -0.5210
  172DOPC   H4S20948   5.292   4.291  12.563  2.2993 -0.8401  1.6998
  172DOPC   C2520949   5.473   4.176  12.541  0.2020 -0.5062  0.0095
  172DOPC   H5R20950   5.535   4.129  12.462  0.0394  1.7216 -1.5417
  172DOPC   H5S20951   5.448   4.100  12.618 -0.7588  0.6239  0.8438
  172DOPC   C2620952   5.542   4.289  12.620  0.1883 -0.0077  0.1595
  172DOPC   H6R20953   5.469   4.335  12.690 -1.5956 -1.9296 -0.3239
  172DOPC   H6S20954   5.573   4.370  12.552 -0.0418 -0.5093 -0.5562
  172DOPC   C2720955   5.671   4.250  12.691 -0.0969  0.0770 -0.0969
  172DOPC   H7R20956   5.712   4.338  12.746  0.1251  0.3687 -0.7308
  172DOPC   H7S20957   5.742   4.205  12.619 -0.1430 -2.1397  1.1672
  172DOPC   C2820958   5.663   4.127  12.790 -0.1497  0.4556  0.2587
  172DOPC   H8R20959   5.767   4.107  12.824  0.2234 -0.1235 -1.1293
  172DOPC   H8S20960   5.625   4.037  12.737 -2.1608  1.8890 -0.8540
  172DOPC   C2920961   5.572   4.156  12.906  0.0368 -0.1026 -0.8529
  172DOPC   H9R20962   5.476   4.103  12.896 -0.5985  0.7204  0.5296
  172DOPC  C21020963   5.613   4.216  13.021  0.6560  0.1498  0.6889
  172DOPC  H10R20964   5.538   4.227  13.101  0.1702  0.2979  0.2255
  172DOPC  C21120965   5.749   4.280  13.047  0.5084 -0.2393 -0.2630
  172DOPC  H11R20966   5.736   4.391  13.051 -2.3661 -0.4552 -1.2094
  172DOPC  H11S20967   5.810   4.274  12.954  0.1370 -0.1815 -0.5153
  172DOPC  C21220968   5.823   4.238  13.177  0.4258 -0.3048 -0.2304
  172DOPC  H12R20969   5.926   4.280  13.185 -0.2624  1.0885  2.5373
  172DOPC  H12S20970   5.831   4.127  13.171  2.2210 -0.1715 -1.2631
  172DOPC  C21320971   5.752   4.273  13.314 -0.1263  0.3573 -0.2143
  172DOPC  H13R20972   5.798   4.225  13.403  1.4594  0.1656 -1.1058
  172DOPC  H13S20973   5.651   4.227  13.318 -0.3448  0.8760  0.7108
  172DOPC  C21420974   5.749   4.423  13.335 -0.5954  0.1434  0.4032
  172DOPC  H14R20975   5.669   4.467  13.272  0.8875  2.3633 -0.0142
  172DOPC  H14S20976   5.851   4.457  13.308 -0.2845 -1.3732 -0.4452
  172DOPC  C21520977   5.734   4.470  13.482  0.0754  0.0551 -0.5034
  172DOPC  H15R20978   5.651   4.412  13.528  0.2204  0.0591 -0.2344
  172DOPC  H15S20979   5.706   4.577  13.490  0.2117  0.3804 -3.2541
  172DOPC  C21620980   5.863   4.444  13.565 -0.5782 -0.1544 -0.0431
  172DOPC  H16R20981   5.944   4.518  13.547 -0.9184 -0.1997 -1.9483
  172DOPC  H16S20982   5.887   4.340  13.537 -2.4210 -1.1677  1.8377
  172DOPC  C21720983   5.842   4.454  13.717  0.1757 -0.0090 -0.6842
  172DOPC  H17R20984   5.759   4.387  13.749  2.2936 -2.3103  0.3598
  172DOPC  H17S20985   5.812   4.558  13.743 -0.6196 -0.1478 -1.0126
  172DOPC  C21820986   5.970   4.425  13.797 -0.0541 -0.1092 -0.8640
  172DOPC  H18R20987   6.053   4.496  13.776 -0.4233  1.1558  1.5878
  172DOPC  H18S20988   6.012   4.327  13.766 -0.6147 -1.0235  1.0399
  172DOPC  H18T20989   5.969   4.430  13.908  3.2572  1.7359 -0.7733
  172DOPC   C3320990   4.947   4.983  12.641 -0.9787  0.3054  0.4618
  172DOPC   H3X20991   4.857   4.929  12.606 -0.8464  0.9319 -0.8962
  172DOPC   H3Y20992   4.960   5.082  12.593 -0.4020  0.1741  0.3382
  172DOPC   C3420993   4.934   5.005  12.791  0.2378 -0.2505 -0.4153
  172DOPC   H4X20994   5.032   5.039  12.831  1.1878 -0.7125 -2.2023
  172DOPC   H4Y20995   4.913   4.907  12.839  0.1057  0.0909  0.2357
  172DOPC   C3520996   4.818   5.099  12.819 -0.6472 -0.2061 -0.1636
  172DOPC   H5X20997   4.790   5.101  12.927 -2.0882 -0.0739 -0.5213
  172DOPC   H5Y20998   4.733   5.069  12.755 -0.3055 -1.4290 -0.0700
  172DOPC   C3620999   4.853   5.253  12.798 -0.4124  1.1329 -0.1735
  172DOPC   H6X21000   4.896   5.282  12.700 -0.5323  1.6520 -0.0753
  172DOPC   H6Y21001   4.762   5.316  12.795 -1.2533 -0.0733 -0.6804
  172DOPC   C3721002   4.953   5.313  12.911 -0.0857 -0.0968  0.0491
  172DOPC   H7X21003   4.889   5.309  13.001 -2.1484 -1.1628 -1.3688
  172DOPC   H7Y21004   5.040   5.248  12.934  1.0623  0.6941 -1.8303
  172DOPC   C3821005   5.005   5.455  12.882 -0.1914 -0.4839  0.8944
  172DOPC   H8X21006   5.046   5.463  12.779 -1.9057  0.1212  0.2299
  172DOPC   H8Y21007   5.095   5.466  12.947 -0.8140 -1.6503  1.9929
  172DOPC   C3921008   4.900   5.557  12.910  0.0934 -0.0919  0.2530
  172DOPC   H9X21009   4.827   5.562  12.827 -0.2999  0.2038  0.6099
  172DOPC  C31021010   4.899   5.648  13.008  0.2951 -0.1170  0.1959
  172DOPC  H10X21011   4.812   5.715  13.011 -0.2541 -0.8436  2.1262
  172DOPC  C31121012   4.998   5.668  13.112  0.0152  0.5307 -0.1567
  172DOPC  H11X21013   4.991   5.774  13.143 -0.7290  0.4544 -0.0403
  172DOPC  H11Y21014   5.099   5.661  13.065 -0.8426 -0.1834 -1.9978
  172DOPC  C31221015   4.964   5.575  13.234 -0.6286 -1.3636  0.4201
  172DOPC  H12X21016   4.986   5.469  13.207 -0.9976 -0.8677 -2.1496
  172DOPC  H12Y21017   4.853   5.574  13.241 -0.8313 -0.4593 -1.8583
  172DOPC  C31321018   5.034   5.592  13.367  0.1758 -1.0043  0.4163
  172DOPC  H13X21019   5.140   5.561  13.361  0.4979 -0.5370  2.6421
  172DOPC  H13Y21020   5.036   5.700  13.394  0.6323 -1.0822  0.7015
  172DOPC  C31421021   4.967   5.493  13.475 -0.2133  0.0180  0.2312
  172DOPC  H14X21022   4.862   5.525  13.492  0.3368  1.7904  0.5703
  172DOPC  H14Y21023   4.966   5.394  13.426  0.1595  0.4992 -0.7914
  172DOPC  C31521024   5.035   5.513  13.613  0.2424 -0.1834 -0.5309
  172DOPC  H15X21025   5.006   5.610  13.660 -1.2986 -1.6019  1.6213
  172DOPC  H15Y21026   5.146   5.513  13.611  0.2248 -0.5317 -1.8280
  172DOPC  C31621027   4.987   5.404  13.711 -0.1513  0.1381  0.3434
  172DOPC  H16X21028   4.878   5.394  13.690  0.0132 -0.7984 -0.0911
  172DOPC  H16Y21029   5.035   5.309  13.680  0.8712  0.6822  0.2416
  172DOPC  C31721030   5.002   5.440  13.859 -0.7570 -0.6225  0.8745
  172DOPC  H17X21031   4.965   5.541  13.886  0.7450 -0.1463  1.2230
  172DOPC  H17Y21032   4.954   5.366  13.927 -0.0359 -0.8879  1.1033
  172DOPC  C31821033   5.156   5.444  13.894 -0.2882 -0.3491  0.7448
  172DOPC  H18X21034   5.211   5.358  13.851 -2.3564 -1.4119  0.1016
  172DOPC  H18Y21035   5.191   5.543  13.858 -1.3394 -0.1088  0.3321
  172DOPC  H18Z21036   5.165   5.438  14.005  3.9508 -1.1765  0.4986
  173DOPC     N21037   2.325   2.727  12.241  1.0440 -0.3540  0.1984
  173DOPC   C1221038   2.445   2.639  12.215  0.6213  0.1061 -0.1441
  173DOPC  H12A21039   2.485   2.660  12.117 -0.0456 -0.0004 -0.4453
  173DOPC  H12B21040   2.404   2.539  12.214 -0.7892  0.6289  1.1448
  173DOPC   C1321041   2.292   2.730  12.384 -0.2348 -0.1480  0.3429
  173DOPC  H13A21042   2.282   2.628  12.420  1.8607 -0.5270 -0.0292
  173DOPC  H13B21043   2.369   2.779  12.442  0.6233 -0.7263 -0.2842
  173DOPC  H13C21044   2.201   2.783  12.407 -0.5386 -1.1601  1.6247
  173DOPC   C1421045   2.210   2.679  12.162 -0.7368  0.1899 -0.3653
  173DOPC  H14A21046   2.189   2.574  12.176  0.4924  0.0961  1.0860
  173DOPC  H14B21047   2.122   2.736  12.187  0.6010  2.7193 -1.0527
  173DOPC  H14C21048   2.227   2.697  12.057 -0.7529  0.4985 -0.3166
  173DOPC   C1521049   2.361   2.870  12.199 -0.2088  0.4186 -0.1783
  173DOPC  H15A21050   2.453   2.899  12.247  0.7016 -0.4155 -1.3840
  173DOPC  H15B21051   2.287   2.942  12.233 -0.7027 -0.4469  0.6480
  173DOPC  H15C21052   2.381   2.877  12.093 -0.0026 -2.0842 -0.3648
  173DOPC   C1121053   2.564   2.642  12.310 -0.5956  0.3016  0.1878
  173DOPC  H11A21054   2.534   2.585  12.400 -2.1484  2.2714  0.9864
  173DOPC  H11B21055   2.651   2.587  12.269  0.8934  1.7611  1.2146
  173DOPC     P21056   2.714   2.811  12.433  0.0634 -0.1009 -0.1271
  173DOPC   O1321057   2.698   2.955  12.471  0.5026 -0.1339 -0.2301
  173DOPC   O1421058   2.847   2.761  12.383  0.3633 -0.1838  0.0849
  173DOPC   O1221059   2.597   2.776  12.336 -0.0043 -0.5310  0.2822
  173DOPC   O1121060   2.678   2.725  12.556 -0.2809 -0.0862  0.5102
  173DOPC    C121061   2.559   2.757  12.631 -0.0383 -0.1634  0.2737
  173DOPC    HA21062   2.475   2.691  12.601  1.5720 -2.8282  1.1969
  173DOPC    HB21063   2.518   2.860  12.624  0.1672  0.0287  1.5935
  173DOPC    C221064   2.583   2.727  12.783 -1.0841 -0.0983 -0.1622
  173DOPC    HS21065   2.514   2.776  12.855  2.2424  1.4814  2.1611
  173DOPC   O2121066   2.717   2.773  12.820  0.4075  0.3555  0.1094
  173DOPC   C2121067   2.725   2.897  12.839  0.0453 -0.0289 -0.3230
  173DOPC   O2221068   2.637   2.978  12.835  0.6722  0.8053  0.1607
  173DOPC   C2221069   2.876   2.936  12.844 -0.2025  0.2492  0.3174
  173DOPC   H2R21070   2.879   3.047  12.843 -1.1095  0.3475 -2.8968
  173DOPC   H2S21071   2.914   2.899  12.746 -0.4360 -0.0731  0.3456
  173DOPC    C321072   2.564   2.578  12.812 -0.1251 -0.0464 -0.6035
  173DOPC    HX21073   2.595   2.527  12.719  0.0032  0.7602 -1.0155
  173DOPC    HY21074   2.457   2.549  12.815 -0.1321  0.0520  1.5576
  173DOPC   O3121075   2.633   2.544  12.932  0.0476  0.1857 -0.2122
  173DOPC   C3121076   2.763   2.496  12.911  0.3160 -0.1100 -0.3068
  173DOPC   O3221077   2.816   2.468  12.809  0.3519 -0.1569  0.1945
  173DOPC   C3221078   2.830   2.497  13.047  0.2480 -0.1503  0.3221
  173DOPC   H2X21079   2.875   2.597  13.069  0.7687 -0.3557  0.1982
  173DOPC   H2Y21080   2.749   2.491  13.123 -0.4616  0.3064 -0.3834
  173DOPC   C2321081   2.965   2.853  12.943 -0.1692 -0.7591  0.1245
  173DOPC   H3R21082   3.073   2.876  12.936 -0.6051  1.2193 -0.5863
  173DOPC   H3S21083   2.970   2.743  12.924 -0.7733 -1.5196  3.6177
  173DOPC   C2421084   2.931   2.870  13.092 -0.2503 -0.8392 -0.2541
  173DOPC   H4R21085   2.823   2.852  13.109 -0.4748  0.4243 -0.2579
  173DOPC   H4S21086   2.950   2.978  13.112  0.5641 -0.8885 -0.7122
  173DOPC   C2521087   3.023   2.788  13.186  0.6125  0.0200 -0.7555
  173DOPC   H5R21088   3.127   2.819  13.163  0.5158  0.3495 -0.7601
  173DOPC   H5S21089   3.018   2.680  13.162 -0.6160 -0.1616  0.1996
  173DOPC   C2621090   2.990   2.814  13.333 -0.3941  0.3917  0.1002
  173DOPC   H6R21091   2.894   2.778  13.375 -1.3764  4.2733  1.6535
  173DOPC   H6S21092   2.985   2.925  13.341  1.1817  0.4446  0.7571
  173DOPC   C2721093   3.110   2.754  13.419 -0.5057 -0.3376  0.0751
  173DOPC   H7R21094   3.200   2.766  13.354  0.2933 -2.3667  0.7441
  173DOPC   H7S21095   3.097   2.644  13.426 -0.9497 -0.2939 -0.0546
  173DOPC   C2821096   3.129   2.819  13.556  0.5801  0.3903 -0.0992
  173DOPC   H8R21097   3.176   2.916  13.531  1.6240  0.0275  0.4350
  173DOPC   H8S21098   3.196   2.755  13.616 -2.3605 -0.6684  2.3117
  173DOPC   C2921099   2.993   2.834  13.619  0.5272 -0.2064 -0.6418
  173DOPC   H9R21100   2.929   2.904  13.564  1.2131  0.3590 -0.7282
  173DOPC  C21021101   2.946   2.769  13.725 -0.6829 -0.1919 -0.3581
  173DOPC  H10R21102   2.846   2.793  13.765  0.6249  1.4434  2.1825
  173DOPC  C21121103   3.029   2.675  13.812 -0.2118 -0.2301 -0.1318
  173DOPC  H11R21104   3.127   2.644  13.771 -0.8617 -0.6850 -1.4091
  173DOPC  H11S21105   2.980   2.576  13.808  0.0352 -0.5323  2.4637
  173DOPC  C21221106   3.062   2.702  13.968 -0.3512  0.1436 -0.3244
  173DOPC  H12R21107   3.066   2.600  14.012  0.4972  0.2021 -0.2592
  173DOPC  H12S21108   2.975   2.760  14.005  0.8810  0.8247  1.6428
  173DOPC  C21321109   3.192   2.777  13.988 -0.3809 -0.0929 -0.0820
  173DOPC  H13R21110   3.186   2.881  13.952  1.5637 -0.2267 -0.8896
  173DOPC  H13S21111   3.274   2.731  13.929  0.0354 -0.3674  0.6947
  173DOPC  C21421112   3.238   2.769  14.138 -0.2922  0.0072 -0.0593
  173DOPC  H14R21113   3.269   2.666  14.166  0.1499  0.4325  1.1064
  173DOPC  H14S21114   3.160   2.800  14.210  0.7227  1.1997  0.5778
  173DOPC  C21521115   3.367   2.844  14.151  0.0854  0.3426  0.2151
  173DOPC  H15R21116   3.346   2.946  14.113 -0.1557 -0.4672 -1.9341
  173DOPC  H15S21117   3.433   2.792  14.079 -1.6089 -1.7775  0.0628
  173DOPC  C21621118   3.409   2.861  14.292 -0.2842 -0.2478  0.1939
  173DOPC  H16R21119   3.478   2.778  14.319  1.3025  0.1136 -2.3972
  173DOPC  H16S21120   3.326   2.865  14.365 -0.4043 -1.2993  0.1208
  173DOPC  C21721121   3.500   2.992  14.304 -0.1543 -0.3760 -0.4645
  173DOPC  H17R21122   3.444   3.083  14.275 -0.1204 -0.0031  0.6120
  173DOPC  H17S21123   3.572   2.976  14.221  1.7976 -0.9553  1.2546
  173DOPC  C21821124   3.588   2.992  14.426 -0.2407  0.6480 -0.5822
  173DOPC  H18R21125   3.652   2.902  14.428 -1.8277 -0.6184  3.1606
  173DOPC  H18S21126   3.524   2.992  14.517 -0.4120 -1.1494 -0.6834
  173DOPC  H18T21127   3.654   3.081  14.418  0.2408  0.1560 -2.3581
  173DOPC   C3321128   2.940   2.395  13.066 -0.0966  0.0335 -0.1640
  173DOPC   H3X21129   3.035   2.453  13.063  0.8391 -1.3459  1.0331
  173DOPC   H3Y21130   2.946   2.327  12.979 -1.5903 -2.0321  1.2582
  173DOPC   C3421131   2.924   2.321  13.196  0.3987 -0.1407 -0.3986
  173DOPC   H4X21132   2.978   2.224  13.205 -0.7552 -0.8572 -1.0310
  173DOPC   H4Y21133   2.817   2.294  13.184  0.1979  1.2591 -2.1393
  173DOPC   C3521134   2.939   2.403  13.320  1.1239 -0.9754  0.4870
  173DOPC   H5X21135   2.870   2.489  13.316  0.5571 -1.4010  0.9626
  173DOPC   H5Y21136   3.043   2.443  13.319  0.8118 -0.1594 -0.3972
  173DOPC   C3621137   2.932   2.313  13.442 -0.1579  0.1672 -0.0624
  173DOPC   H6X21138   2.842   2.248  13.445 -0.7671  0.9402 -0.9484
  173DOPC   H6Y21139   3.020   2.245  13.441 -1.0588 -1.0264 -0.9693
  173DOPC   C3721140   2.963   2.395  13.576  0.5413  0.0492  0.1626
  173DOPC   H7X21141   3.040   2.467  13.542  1.5198 -2.0155 -2.3472
  173DOPC   H7Y21142   2.886   2.469  13.605  1.8849  1.8709 -0.7222
  173DOPC   C3821143   3.008   2.304  13.692  0.2661 -0.3173  0.4349
  173DOPC   H8X21144   3.069   2.363  13.763 -0.5973 -0.8214  1.6301
  173DOPC   H8Y21145   3.077   2.222  13.660  2.5885  0.2681  3.4813
  173DOPC   C3921146   2.883   2.250  13.766 -0.1200  0.2703  0.1491
  173DOPC   H9X21147   2.804   2.232  13.692  0.9297  3.7841 -2.0877
  173DOPC  C31021148   2.856   2.236  13.895 -0.2924  0.9512 -0.3702
  173DOPC  H10X21149   2.752   2.208  13.915 -0.1168  0.3923 -0.2270
  173DOPC  C31121150   2.955   2.295  13.994  0.2927  0.2020  0.1199
  173DOPC  H11X21151   2.980   2.398  13.963 -0.7538  0.5092  0.2682
  173DOPC  H11Y21152   3.042   2.226  13.998 -1.2052 -1.7610  0.6640
  173DOPC  C31221153   2.881   2.289  14.130  0.4731  0.1453 -0.0916
  173DOPC  H12X21154   2.782   2.340  14.133 -0.6982 -2.0097  1.9969
  173DOPC  H12Y21155   2.955   2.346  14.189  0.9459 -0.8767  0.3282
  173DOPC  C31321156   2.877   2.146  14.186  0.0223  0.5037  0.3003
  173DOPC  H13X21157   2.812   2.084  14.121  1.1047  0.1516 -0.4836
  173DOPC  H13Y21158   2.972   2.097  14.156 -0.1332 -0.1608  0.8739
  173DOPC  C31421159   2.864   2.144  14.335 -0.1181 -0.1358 -0.1767
  173DOPC  H14X21160   2.942   2.216  14.368 -0.8522  1.3088 -1.4786
  173DOPC  H14Y21161   2.764   2.190  14.351  1.0554  2.3860  0.4833
  173DOPC  C31521162   2.870   2.006  14.410 -0.2054 -0.7652  0.3240
  173DOPC  H15X21163   2.970   1.959  14.396  1.6478  2.0292  2.7291
  173DOPC  H15Y21164   2.794   1.950  14.352 -0.8942  0.3229  0.1477
  173DOPC  C31621165   2.842   2.026  14.561 -0.5992  0.2998  0.2021
  173DOPC  H16X21166   2.810   1.927  14.600  0.1014 -0.8252 -1.9166
  173DOPC  H16Y21167   2.944   2.048  14.601 -0.5871 -0.4345  0.5926
  173DOPC  C31721168   2.756   2.143  14.608  0.2845  1.2521 -0.3316
  173DOPC  H17X21169   2.793   2.241  14.570  1.8928  0.8909  0.2050
  173DOPC  H17Y21170   2.654   2.133  14.565 -1.6896  4.1954  3.1031
  173DOPC  C31821171   2.743   2.150  14.757  0.2348 -0.1823 -0.0995
  173DOPC  H18X21172   2.697   2.058  14.800  0.7657  0.9540  3.1579
  173DOPC  H18Y21173   2.840   2.160  14.810  0.8408  0.7381 -1.3273
  173DOPC  H18Z21174   2.677   2.233  14.789 -1.9897 -1.2118 -1.7215
  174DOPC     N21175   5.139   0.989  11.697  0.3379  0.0819 -0.2479
  174DOPC   C1221176   4.990   0.956  11.697  0.2817 -0.3651 -0.4804
  174DOPC  H12A21177   4.981   0.861  11.749  1.5069 -1.2422 -1.7818
  174DOPC  H12B21178   4.945   0.941  11.600 -0.9608  0.0097  0.0292
  174DOPC   C1321179   5.174   1.103  11.603 -0.1318  0.2530 -0.6874
  174DOPC  H13A21180   5.122   1.088  11.509 -0.2059 -3.1432 -0.2253
  174DOPC  H13B21181   5.148   1.203  11.634  1.7739  1.0125 -1.4051
  174DOPC  H13C21182   5.280   1.115  11.585  0.6747  0.3914  3.3768
  174DOPC   C1421183   5.218   0.873  11.641  0.0736  0.0856 -0.3972
  174DOPC  H14A21184   5.215   0.787  11.706 -0.7381  0.6698  0.3641
  174DOPC  H14B21185   5.172   0.836  11.551  0.6091  0.2020 -0.7223
  174DOPC  H14C21186   5.318   0.909  11.620 -0.0624  0.3405 -0.6229
  174DOPC   C1521187   5.176   1.038  11.835  0.2044 -0.8360  0.5551
  174DOPC  H15A21188   5.282   1.017  11.847  0.5896  0.4364 -0.3395
  174DOPC  H15B21189   5.133   0.967  11.904  0.9536  0.8936  2.8953
  174DOPC  H15C21190   5.147   1.139  11.856 -0.9215 -1.0750  0.2045
  174DOPC   C1121191   4.900   1.057  11.770  0.0462 -0.0697  0.7277
  174DOPC  H11A21192   4.799   1.012  11.782  0.3019 -0.9072 -0.1151
  174DOPC  H11B21193   4.938   1.072  11.874  0.3665  2.6485  0.2887
  174DOPC     P21194   4.782   1.236  11.614  0.4034  0.3186 -0.1271
  174DOPC   O1321195   4.728   1.125  11.540 -0.0329  0.0493 -0.3383
  174DOPC   O1421196   4.835   1.357  11.540 -0.1473  0.1800 -0.9991
  174DOPC   O1221197   4.894   1.182  11.709 -0.4071  1.0423  0.0030
  174DOPC   O1121198   4.677   1.285  11.724  0.7676 -0.1570 -0.4324
  174DOPC    C121199   4.730   1.362  11.835  0.3695  0.4500 -0.3696
  174DOPC    HA21200   4.698   1.469  11.839  3.0856  1.3545 -0.6790
  174DOPC    HB21201   4.841   1.364  11.839  0.3758  0.3693 -0.5192
  174DOPC    C221202   4.685   1.297  11.962 -0.1007 -0.0518 -1.1301
  174DOPC    HS21203   4.697   1.187  11.958  1.1194 -0.0951  1.2369
  174DOPC   O2121204   4.549   1.335  11.988 -0.1238 -0.5115 -0.0884
  174DOPC   C2121205   4.473   1.249  12.049  0.2618  0.1280  0.0092
  174DOPC   O2221206   4.514   1.140  12.084  0.4504  0.4559 -0.2278
  174DOPC   C2221207   4.327   1.310  12.076  0.5141  0.1405  0.5067
  174DOPC   H2R21208   4.262   1.288  11.989  0.7525 -1.0433  0.6092
  174DOPC   H2S21209   4.332   1.421  12.078 -0.7318  0.2638 -1.1175
  174DOPC    C321210   4.795   1.336  12.072 -0.4901 -0.4070 -0.3221
  174DOPC    HX21211   4.788   1.447  12.071 -1.7001 -0.4625 -0.0023
  174DOPC    HY21212   4.890   1.299  12.028 -0.8410  0.2292 -1.6624
  174DOPC   O3121213   4.767   1.283  12.204 -0.2246 -0.5202  0.0585
  174DOPC   C3121214   4.799   1.150  12.222  0.0725 -0.0729  0.5600
  174DOPC   O3221215   4.851   1.083  12.135 -0.0547  0.8430  0.4003
  174DOPC   C3221216   4.754   1.097  12.365 -0.1765  0.5776  0.7542
  174DOPC   H2X21217   4.684   1.012  12.351  0.0544  0.5736 -0.5151
  174DOPC   H2Y21218   4.839   1.044  12.413 -0.5333 -0.5739  0.1478
  174DOPC   C2321219   4.256   1.270  12.211 -0.1791  0.1053  0.3113
  174DOPC   H3R21220   4.273   1.164  12.238 -0.4771  0.3766  1.6271
  174DOPC   H3S21221   4.145   1.283  12.204 -0.3540 -0.0520  2.2146
  174DOPC   C2421222   4.308   1.359  12.328  0.4231  0.2926 -0.4101
  174DOPC   H4R21223   4.271   1.462  12.309  2.7795  1.2945  0.0638
  174DOPC   H4S21224   4.419   1.361  12.331  0.5019 -1.9448 -0.2651
  174DOPC   C2521225   4.255   1.314  12.461  0.2138 -0.7704  0.4180
  174DOPC   H5R21226   4.278   1.209  12.490 -1.1646 -1.3990 -0.6270
  174DOPC   H5S21227   4.144   1.313  12.464  0.2147 -0.5747  0.4924
  174DOPC   C2621228   4.304   1.391  12.581 -0.3166  0.1613  0.1452
  174DOPC   H6R21229   4.282   1.498  12.561  0.2203  0.0880 -0.8590
  174DOPC   H6S21230   4.409   1.369  12.610  0.1957  1.7962 -0.3884
  174DOPC   C2721231   4.214   1.346  12.702  0.6711  0.2394 -0.3223
  174DOPC   H7R21232   4.230   1.237  12.719 -1.5530 -0.0980 -0.0927
  174DOPC   H7S21233   4.110   1.373  12.672  0.3416 -0.1132  0.4674
  174DOPC   C2821234   4.253   1.415  12.835 -0.6714 -0.2507 -0.5801
  174DOPC   H8R21235   4.252   1.525  12.818  2.6449 -0.0883 -0.3729
  174DOPC   H8S21236   4.356   1.390  12.868 -1.0069  0.5463  1.2364
  174DOPC   C2921237   4.148   1.387  12.941  0.4710 -0.0781  0.4389
  174DOPC   H9R21238   4.098   1.291  12.919  0.1613  0.0798  0.4467
  174DOPC  C21021239   4.134   1.446  13.060  0.2354 -0.3472  1.1929
  174DOPC  H10R21240   4.060   1.406  13.131  1.4041 -0.6920  2.2520
  174DOPC  C21121241   4.228   1.559  13.116  0.0184  0.5965  0.3991
  174DOPC  H11R21242   4.174   1.653  13.141 -1.2903  0.9149 -3.0624
  174DOPC  H11S21243   4.296   1.589  13.034  0.0511 -1.8278 -0.5280
  174DOPC  C21221244   4.323   1.528  13.231 -0.4033  0.1303  0.3767
  174DOPC  H12R21245   4.422   1.579  13.229  1.0059 -2.3747 -2.0732
  174DOPC  H12S21246   4.369   1.427  13.219  0.6042  0.3529  2.0497
  174DOPC  C21321247   4.255   1.532  13.368  1.2747  0.5840 -0.3607
  174DOPC  H13R21248   4.183   1.448  13.355  0.5568  1.4391 -2.1587
  174DOPC  H13S21249   4.184   1.615  13.385 -1.6780 -1.6054 -1.2214
  174DOPC  C21421250   4.337   1.521  13.499 -0.0170  0.3906  0.2287
  174DOPC  H14R21251   4.413   1.601  13.509  2.3877 -1.8032  0.4693
  174DOPC  H14S21252   4.396   1.427  13.499  1.1020  1.0696 -0.9861
  174DOPC  C21521253   4.245   1.506  13.624  0.5842 -0.3778  0.1200
  174DOPC  H15R21254   4.170   1.424  13.613  0.0473  0.1253 -0.0155
  174DOPC  H15S21255   4.193   1.605  13.624  0.4629 -0.4397 -0.6173
  174DOPC  C21621256   4.326   1.487  13.753  0.1890  0.4708  0.7486
  174DOPC  H16R21257   4.382   1.581  13.772  0.4449  0.3014  0.8342
  174DOPC  H16S21258   4.386   1.394  13.738 -1.6414 -0.3878 -1.9063
  174DOPC  C21721259   4.247   1.464  13.880  0.3224  0.3305 -0.2115
  174DOPC  H17R21260   4.309   1.422  13.962 -0.6627 -1.5037 -0.3763
  174DOPC  H17S21261   4.166   1.389  13.869 -0.5074  1.0257  0.9210
  174DOPC  C21821262   4.187   1.598  13.934  0.0296 -0.8716  0.0004
  174DOPC  H18R21263   4.140   1.664  13.857  0.1291 -1.8721 -0.9395
  174DOPC  H18S21264   4.271   1.659  13.975 -0.1587 -0.4065 -0.2911
  174DOPC  H18T21265   4.122   1.581  14.022 -0.7214  1.9741  0.1047
  174DOPC   C3321266   4.692   1.201  12.458  0.0867  0.3885 -0.1007
  174DOPC   H3X21267   4.586   1.222  12.432 -0.5251  0.9286  2.5664
  174DOPC   H3Y21268   4.754   1.292  12.452  1.5902 -0.2905  3.1621
  174DOPC   C3421269   4.702   1.165  12.600  0.8015  0.5327 -0.1815
  174DOPC   H4X21270   4.647   1.250  12.645  0.8233  0.5651 -0.2168
  174DOPC   H4Y21271   4.809   1.164  12.629  1.0903 -1.9690 -1.0289
  174DOPC   C3521272   4.635   1.033  12.643 -0.2502  0.2513 -0.0071
  174DOPC   H5X21273   4.714   0.957  12.623 -0.0857  0.7585 -1.3149
  174DOPC   H5Y21274   4.556   1.006  12.570  1.4167 -1.4996 -1.2684
  174DOPC   C3621275   4.604   1.026  12.794 -0.3160  0.0172 -0.4287
  174DOPC   H6X21276   4.612   0.920  12.827 -3.4144 -0.1379  0.1791
  174DOPC   H6Y21277   4.686   1.075  12.851  0.7966 -1.5242 -0.6420
  174DOPC   C3721278   4.460   1.076  12.825  0.0834 -0.1978  0.3540
  174DOPC   H7X21279   4.454   1.178  12.782 -0.3274 -0.6563 -0.6925
  174DOPC   H7Y21280   4.393   1.011  12.765  1.4089 -0.8140 -0.5007
  174DOPC   C3821281   4.427   1.067  12.972  0.2840 -0.6248 -0.1621
  174DOPC   H8X21282   4.435   0.962  13.008  2.5687  0.1694  1.9073
  174DOPC   H8Y21283   4.318   1.087  12.983  0.6823  1.2007  0.7922
  174DOPC   C3921284   4.507   1.163  13.063  0.2924  0.0919 -0.0546
  174DOPC   H9X21285   4.467   1.265  13.061  0.5783  0.3575  2.9867
  174DOPC  C31021286   4.598   1.132  13.157  0.3542 -0.9619  0.8334
  174DOPC  H10X21287   4.642   1.217  13.211  4.0972 -1.1443 -1.5214
  174DOPC  C31121288   4.651   0.996  13.190 -0.2971 -0.4174 -0.9992
  174DOPC  H11X21289   4.762   0.996  13.185 -0.2508 -2.5421 -0.7289
  174DOPC  H11Y21290   4.623   0.909  13.126 -0.3553 -1.1350 -0.0057
  174DOPC  C31221291   4.619   0.951  13.339 -0.5543 -0.0325  0.2892
  174DOPC  H12X21292   4.665   0.852  13.358 -0.0547 -0.0156 -0.7713
  174DOPC  H12Y21293   4.510   0.930  13.349 -0.6990  0.7966  0.5504
  174DOPC  C31321294   4.652   1.056  13.449 -0.3413 -0.3529 -0.0361
  174DOPC  H13X21295   4.756   1.092  13.438  0.1015 -1.2096  1.2166
  174DOPC  H13Y21296   4.585   1.145  13.445  1.1174  0.7465 -1.5804
  174DOPC  C31421297   4.634   0.996  13.587  0.0771 -0.0946 -0.2840
  174DOPC  H14X21298   4.541   0.935  13.588 -0.1798  0.2327 -1.6410
  174DOPC  H14Y21299   4.708   0.916  13.610 -0.4766 -0.1684  1.3524
  174DOPC  C31521300   4.633   1.090  13.705  0.5169 -0.0859  0.9501
  174DOPC  H15X21301   4.545   1.155  13.686 -0.3119 -0.6080  2.7454
  174DOPC  H15Y21302   4.731   1.142  13.711  1.0691 -0.0227 -4.3229
  174DOPC  C31621303   4.611   1.007  13.836 -0.5793 -0.5470  0.1243
  174DOPC  H16X21304   4.520   0.945  13.814 -1.8561  1.4362 -0.4144
  174DOPC  H16Y21305   4.692   0.933  13.852 -0.3622 -1.2820 -3.5310
  174DOPC  C31721306   4.601   1.092  13.960  0.2363  0.2813 -0.3082
  174DOPC  H17X21307   4.696   1.149  13.963  1.6297 -1.8564 -1.0975
  174DOPC  H17Y21308   4.512   1.159  13.965 -1.3209 -1.7508  1.2679
  174DOPC  C31821309   4.580   1.010  14.087 -0.7291  0.2088  0.1842
  174DOPC  H18X21310   4.476   0.972  14.079 -0.6089  0.0575 -0.7485
  174DOPC  H18Y21311   4.658   0.931  14.098 -1.6115 -0.5207  1.5156
  174DOPC  H18Z21312   4.602   1.076  14.175 -0.6864 -1.0581  1.1551
  175DOPC     N21313   3.277   5.482  11.851  0.5730 -0.1369 -0.2150
  175DOPC   C1221314   3.145   5.427  11.906  0.5207 -0.4972  0.4735
  175DOPC  H12A21315   3.107   5.355  11.835  0.9841  0.8685 -1.2462
  175DOPC  H12B21316   3.072   5.505  11.891 -0.3891 -1.8539 -3.3795
  175DOPC   C1321317   3.238   5.585  11.750  0.1901 -0.2348  0.5672
  175DOPC  H13A21318   3.198   5.677  11.790 -0.8484  0.4144 -1.7836
  175DOPC  H13B21319   3.321   5.610  11.685 -1.2085  1.1129 -0.8029
  175DOPC  H13C21320   3.161   5.547  11.684  0.8183  0.6735 -0.7292
  175DOPC   C1421321   3.350   5.364  11.794  0.5058  0.4636  0.1862
  175DOPC  H14A21322   3.290   5.307  11.726  0.9499  0.1074  0.0854
  175DOPC  H14B21323   3.441   5.395  11.744 -0.1608  1.4396 -0.4578
  175DOPC  H14C21324   3.383   5.294  11.870  1.2766  1.6858  1.0232
  175DOPC   C1521325   3.371   5.547  11.957  0.3051  0.4884 -0.1050
  175DOPC  H15A21326   3.457   5.596  11.913 -0.5728  3.2261  1.0191
  175DOPC  H15B21327   3.392   5.485  12.043 -2.1957 -0.4459 -0.0716
  175DOPC  H15C21328   3.317   5.626  12.005  0.9215  0.4819  0.6149
  175DOPC   C1121329   3.131   5.364  12.047  0.1107  0.5757 -0.6396
  175DOPC  H11A21330   3.159   5.431  12.130 -1.1315 -0.9399  1.0885
  175DOPC  H11B21331   3.022   5.348  12.062  0.3420  0.0788  0.5507
  175DOPC     P21332   3.319   5.205  12.151  0.1180  0.1531 -0.1536
  175DOPC   O1321333   3.442   5.280  12.111  0.4903 -0.6330  0.3794
  175DOPC   O1421334   3.344   5.057  12.162 -0.8382 -0.2328 -0.1277
  175DOPC   O1221335   3.196   5.237  12.059 -0.4981  0.4992 -0.1768
  175DOPC   O1121336   3.274   5.255  12.290 -0.3630  0.0704 -0.8387
  175DOPC    C121337   3.162   5.212  12.361  0.3902  0.4616  0.5032
  175DOPC    HA21338   3.112   5.122  12.318 -0.0930  0.8362  0.2785
  175DOPC    HB21339   3.091   5.297  12.364  0.6634  0.8099 -1.4759
  175DOPC    C221340   3.195   5.191  12.511  0.7592  0.2336  0.7991
  175DOPC    HS21341   3.102   5.158  12.562 -1.0361  0.7517 -1.9178
  175DOPC   O2121342   3.244   5.311  12.572  0.0881  0.2131  0.7343
  175DOPC   C2121343   3.157   5.401  12.593 -0.1483 -0.0835 -0.2860
  175DOPC   O2221344   3.040   5.387  12.577 -0.2915 -0.0874  0.5655
  175DOPC   C2221345   3.229   5.525  12.649  0.4070 -0.0980 -0.7138
  175DOPC   H2R21346   3.328   5.541  12.602  0.9952  0.8025  0.7603
  175DOPC   H2S21347   3.244   5.506  12.757 -1.7494  0.5124 -0.2546
  175DOPC    C321348   3.288   5.065  12.523 -0.1909 -0.1152  0.1097
  175DOPC    HX21349   3.322   5.050  12.628 -0.8680 -1.2979  0.1782
  175DOPC    HY21350   3.376   5.085  12.459  0.0462  1.1428  0.7922
  175DOPC   O3121351   3.220   4.946  12.480 -0.3168 -0.1708 -0.3976
  175DOPC   C3121352   3.132   4.902  12.579 -0.1901 -0.5924  0.0266
  175DOPC   O3221353   3.107   4.963  12.680 -0.1957  0.4732 -0.7006
  175DOPC   C3221354   3.093   4.757  12.551  0.4747  0.2690  0.0268
  175DOPC   H2X21355   3.064   4.741  12.445 -0.1878 -0.7852  0.3489
  175DOPC   H2Y21356   3.168   4.686  12.594 -1.4953 -1.9586 -0.0148
  175DOPC   C2321357   3.142   5.650  12.644 -0.0808 -0.5839  0.3732
  175DOPC   H3R21358   3.042   5.612  12.674  0.0925 -1.4125 -0.0925
  175DOPC   H3S21359   3.123   5.692  12.543 -1.9548 -0.9716  0.5408
  175DOPC   C2421360   3.181   5.750  12.751 -0.3938  0.1578  0.2000
  175DOPC   H4R21361   3.273   5.798  12.711  0.9190 -1.1227  1.5678
  175DOPC   H4S21362   3.213   5.709  12.849  0.2531 -2.1405 -0.8835
  175DOPC   C2521363   3.076   5.860  12.788  0.1315  0.5022  0.2220
  175DOPC   H5R21364   2.977   5.811  12.773  0.5263 -0.1016 -0.5167
  175DOPC   H5S21365   3.089   5.942  12.715 -1.4098 -0.7044 -1.5457
  175DOPC   C2621366   3.103   5.910  12.934  0.1367 -0.7216 -0.3048
  175DOPC   H6R21367   3.209   5.944  12.936  0.4257 -1.5013  2.7542
  175DOPC   H6S21368   3.102   5.820  12.999  1.8021 -1.7738 -1.6632
  175DOPC   C2721369   3.007   6.019  12.984  0.6921  0.6520 -0.6522
  175DOPC   H7R21370   2.903   5.981  12.980  0.9622 -0.4271  1.2065
  175DOPC   H7S21371   3.009   6.103  12.911 -2.1572 -1.0817 -2.9058
  175DOPC   C2821372   3.048   6.053  13.131  0.4510 -0.4402 -0.5519
  175DOPC   H8R21373   2.985   6.139  13.163 -2.5616 -2.5538 -0.3004
  175DOPC   H8S21374   3.154   6.085  13.134  0.6805 -1.2508  0.2944
  175DOPC   C2921375   3.037   5.941  13.229  0.0039  0.6041 -0.1289
  175DOPC   H9R21376   3.019   5.840  13.190 -2.0881  1.0410 -0.4379
  175DOPC  C21021377   3.016   5.957  13.361 -1.0867  0.3789  0.1981
  175DOPC  H10R21378   3.002   5.866  13.421  1.1867  0.3099  0.7139
  175DOPC  C21121379   3.021   6.092  13.427  0.0291  0.7905 -0.0904
  175DOPC  H11R21380   2.924   6.144  13.415 -1.1105 -1.3839 -0.7044
  175DOPC  H11S21381   3.095   6.158  13.377  0.7417  0.5138  0.5823
  175DOPC  C21221382   3.061   6.098  13.575  0.2827  0.2463 -0.7719
  175DOPC  H12R21383   2.981   6.046  13.631 -0.8072  0.8412 -1.7239
  175DOPC  H12S21384   3.063   6.199  13.622  1.1595 -0.7972  1.5532
  175DOPC  C21321385   3.197   6.040  13.610 -0.1656 -1.2306 -0.4476
  175DOPC  H13R21386   3.273   6.102  13.557 -2.7474  2.0895 -0.5772
  175DOPC  H13S21387   3.207   5.933  13.582 -1.2492 -1.5261  0.2362
  175DOPC  C21421388   3.215   6.036  13.769  0.4817  0.5955  0.1931
  175DOPC  H14R21389   3.168   5.949  13.819 -1.5543  0.5131 -1.7416
  175DOPC  H14S21390   3.161   6.129  13.799  1.4034  1.8645 -1.8674
  175DOPC  C21521391   3.357   6.045  13.821  0.6484 -0.4448 -0.2625
  175DOPC  H15R21392   3.380   6.150  13.792 -1.6351  0.5015  1.0141
  175DOPC  H15S21393   3.421   5.969  13.773  0.3743 -0.2193 -0.9916
  175DOPC  C21621394   3.370   6.055  13.974  0.1401 -0.5267 -0.2127
  175DOPC  H16R21395   3.312   5.971  14.018 -0.3275  0.1614  0.5031
  175DOPC  H16S21396   3.329   6.150  14.016  0.3375 -1.6123  2.6508
  175DOPC  C21721397   3.515   6.063  14.027  0.5727 -0.3994 -0.0045
  175DOPC  H17R21398   3.558   6.164  14.004 -2.0847  0.5266 -1.4133
  175DOPC  H17S21399   3.568   5.980  13.976 -1.6305 -1.9913  0.1325
  175DOPC  C21821400   3.520   6.043  14.176  0.1715 -0.3322  0.4308
  175DOPC  H18R21401   3.484   6.132  14.231  0.4238  1.3344 -1.9687
  175DOPC  H18S21402   3.627   6.032  14.203  0.2389  1.3019  0.9326
  175DOPC  H18T21403   3.452   5.964  14.214  0.4649  0.9663  4.0518
  175DOPC   C3321404   2.959   4.718  12.627 -0.4072  0.7489  0.9822
  175DOPC   H3X21405   2.922   4.623  12.581 -1.2569  3.2689 -4.2727
  175DOPC   H3Y21406   2.885   4.795  12.598 -0.2750  0.4603 -0.1880
  175DOPC   C3421407   2.969   4.708  12.781  0.0977 -0.0108 -0.0021
  175DOPC   H4X21408   2.999   4.808  12.818 -1.2563  1.0088 -1.5039
  175DOPC   H4Y21409   3.042   4.628  12.805 -1.2771 -0.6881  2.2120
  175DOPC   C3521410   2.835   4.674  12.848 -0.2510  0.2024  0.8333
  175DOPC   H5X21411   2.815   4.566  12.829 -0.3615  0.0474  1.7463
  175DOPC   H5Y21412   2.747   4.734  12.817  0.9092  1.3251 -0.3871
  175DOPC   C3621413   2.841   4.688  13.000  0.0848  0.0014  1.0750
  175DOPC   H6X21414   2.921   4.622  13.038 -0.2433 -0.7763  0.4462
  175DOPC   H6Y21415   2.853   4.793  13.034 -3.2592  0.6225  0.6648
  175DOPC   C3721416   2.718   4.636  13.074 -0.2781  0.5232  0.6312
  175DOPC   H7X21417   2.624   4.653  13.018  0.2750 -2.5993 -1.5045
  175DOPC   H7Y21418   2.725   4.526  13.089  0.8019  0.2726 -1.3329
  175DOPC   C3821419   2.696   4.695  13.219 -0.4292 -0.0352  0.2864
  175DOPC   H8X21420   2.681   4.805  13.206  0.0592  0.0468  0.4069
  175DOPC   H8Y21421   2.793   4.690  13.272 -0.2946 -2.0907 -0.0797
  175DOPC   C3921422   2.577   4.625  13.283 -1.1170 -0.6152 -0.0823
  175DOPC   H9X21423   2.509   4.562  13.224  1.2125 -2.9623 -0.4130
  175DOPC  C31021424   2.565   4.616  13.418 -0.1145 -0.5857 -0.7169
  175DOPC  H10X21425   2.480   4.570  13.469  1.5237 -0.7941  2.0755
  175DOPC  C31121426   2.652   4.683  13.535 -0.0202  0.4571 -0.2393
  175DOPC  H11X21427   2.588   4.739  13.606  0.0168  0.4022 -0.1630
  175DOPC  H11Y21428   2.727   4.754  13.495  0.2833  0.1612 -0.1981
  175DOPC  C31221429   2.724   4.575  13.622 -0.2228 -0.1648 -0.2692
  175DOPC  H12X21430   2.790   4.626  13.696  1.0905 -1.7259 -0.3138
  175DOPC  H12Y21431   2.793   4.515  13.560 -0.1051  0.4189 -0.7126
  175DOPC  C31321432   2.638   4.469  13.698  0.9574 -0.2442  0.5359
  175DOPC  H13X21433   2.592   4.393  13.631 -0.0068  2.0840 -1.6032
  175DOPC  H13Y21434   2.708   4.424  13.772  1.8441 -1.2230 -0.8506
  175DOPC  C31421435   2.527   4.534  13.788  0.9731 -0.4018  0.4423
  175DOPC  H14X21436   2.554   4.625  13.845  3.1496 -1.9254  2.0018
  175DOPC  H14Y21437   2.442   4.539  13.717  0.5067 -0.3195  1.0008
  175DOPC  C31521438   2.482   4.434  13.891  0.2880  0.8134 -0.4597
  175DOPC  H15X21439   2.487   4.330  13.852  0.9024  0.9157 -0.6645
  175DOPC  H15Y21440   2.378   4.467  13.911  0.9394  2.7453  0.0136
  175DOPC  C31621441   2.568   4.438  14.018 -0.2332 -0.3104  0.1856
  175DOPC  H16X21442   2.674   4.418  13.989 -0.3228  0.2253 -0.5425
  175DOPC  H16Y21443   2.565   4.544  14.050 -1.3516 -0.7917  1.7411
  175DOPC  C31721444   2.522   4.349  14.136  0.0398 -0.3271 -0.0873
  175DOPC  H17X21445   2.418   4.379  14.164  0.1251  0.2019 -0.3277
  175DOPC  H17Y21446   2.510   4.247  14.095 -0.0845  0.3010 -1.7083
  175DOPC  C31821447   2.615   4.366  14.252  0.1096 -0.0178  1.0334
  175DOPC  H18X21448   2.721   4.371  14.220 -0.5683  2.3288 -1.1162
  175DOPC  H18Y21449   2.590   4.460  14.305  1.1544  0.7793  0.1386
  175DOPC  H18Z21450   2.598   4.279  14.319 -0.1892  0.3500  1.4382
  176DOPC     N21451   3.064   1.687  11.587  0.1096 -0.5699 -0.0364
  176DOPC   C1221452   3.042   1.690  11.732  0.0648 -0.6532 -0.0187
  176DOPC  H12A21453   3.009   1.593  11.764  2.0032 -1.6162 -0.7729
  176DOPC  H12B21454   2.958   1.754  11.755 -0.3165 -0.7299 -1.1097
  176DOPC   C1321455   2.950   1.624  11.526  0.8930  0.8142 -0.8297
  176DOPC  H13A21456   2.864   1.687  11.547  0.2049 -0.4346  0.1703
  176DOPC  H13B21457   2.944   1.622  11.418  0.6525  0.6369 -0.8127
  176DOPC  H13C21458   2.924   1.529  11.569 -0.6452 -0.2326 -3.8031
  176DOPC   C1421459   3.186   1.603  11.552  0.3232 -0.3052  0.1508
  176DOPC  H14A21460   3.203   1.596  11.445  1.1086  1.0956  0.1557
  176DOPC  H14B21461   3.274   1.631  11.609  1.8371 -1.1988 -1.6325
  176DOPC  H14C21462   3.164   1.504  11.590  0.9735 -0.2022  0.8210
  176DOPC   C1521463   3.077   1.817  11.524 -0.2003 -0.1006  0.1004
  176DOPC  H15A21464   3.119   1.806  11.425 -0.2809  0.9469 -0.0720
  176DOPC  H15B21465   3.133   1.888  11.584 -1.5508  2.2836 -1.2791
  176DOPC  H15C21466   2.979   1.862  11.509  0.5652  2.2586  1.5518
  176DOPC   C1121467   3.169   1.724  11.813  0.2075  0.7653  0.2238
  176DOPC  H11A21468   3.126   1.733  11.915 -0.3072 -0.1085  0.0930
  176DOPC  H11B21469   3.231   1.632  11.820  0.8279  1.1180 -0.4177
  176DOPC     P21470   3.393   1.860  11.749 -0.1255 -0.3427 -0.0143
  176DOPC   O1321471   3.418   1.972  11.649  0.3121  0.1915  0.6344
  176DOPC   O1421472   3.461   1.738  11.715  0.2370  0.2831  0.0128
  176DOPC   O1221473   3.233   1.843  11.769  0.0477  0.5134 -0.0163
  176DOPC   O1121474   3.441   1.908  11.897 -0.2347  0.0744  0.0614
  176DOPC    C121475   3.371   2.011  11.964 -0.9646 -0.2122 -0.0051
  176DOPC    HA21476   3.268   2.025  11.927 -0.4784  1.0899 -0.9457
  176DOPC    HB21477   3.428   2.103  11.939 -0.0016 -1.2213 -1.7132
  176DOPC    C221478   3.371   1.994  12.119  0.2036  0.8716  0.5481
  176DOPC    HS21479   3.307   2.073  12.162 -0.0503  1.0750 -0.1761
  176DOPC   O2121480   3.508   1.985  12.164  0.6502  0.0609 -0.1284
  176DOPC   C2121481   3.561   2.111  12.171  0.3055 -0.2925  0.1634
  176DOPC   O2221482   3.506   2.215  12.141 -0.2377  0.4997 -1.2659
  176DOPC   C2221483   3.699   2.107  12.231  0.5161 -0.0784  0.3323
  176DOPC   H2R21484   3.727   2.211  12.255  2.5011 -0.7552  1.1891
  176DOPC   H2S21485   3.757   2.065  12.146 -1.4252 -2.5467  0.1211
  176DOPC    C321486   3.298   1.861  12.152 -0.7036 -0.7317  0.3529
  176DOPC    HX21487   3.355   1.776  12.106 -0.0109  0.1131 -0.3891
  176DOPC    HY21488   3.200   1.857  12.101 -0.9927  1.3760  0.6693
  176DOPC   O3121489   3.295   1.845  12.301 -0.2085  0.5074  0.3216
  176DOPC   C3121490   3.192   1.913  12.358 -0.0422 -0.0260  0.1420
  176DOPC   O3221491   3.115   1.987  12.296 -0.0231 -0.2956 -0.3445
  176DOPC   C3221492   3.210   1.911  12.509  0.2009  0.2061 -0.7580
  176DOPC   H2X21493   3.220   1.804  12.537 -0.2860  0.5333  0.7614
  176DOPC   H2Y21494   3.304   1.970  12.518  0.6722 -0.8379  1.9953
  176DOPC   C2321495   3.724   2.012  12.344  0.1184 -0.7405 -0.0491
  176DOPC   H3R21496   3.828   1.990  12.375 -0.4714 -0.5626  2.3029
  176DOPC   H3S21497   3.676   1.913  12.330  1.8654 -1.5325 -0.6699
  176DOPC   C2421498   3.651   2.076  12.467 -0.3856 -0.3158 -0.1720
  176DOPC   H4R21499   3.543   2.083  12.440 -0.3981  1.0099  0.1698
  176DOPC   H4S21500   3.692   2.177  12.486 -1.2045 -0.4263  2.6176
  176DOPC   C2521501   3.676   2.003  12.596 -0.2835  0.4602 -0.0541
  176DOPC   H5R21502   3.786   1.989  12.604 -0.0907  0.9326 -1.6831
  176DOPC   H5S21503   3.631   1.903  12.578  1.4775  0.2594 -4.4145
  176DOPC   C2621504   3.622   2.068  12.725 -0.2857  1.1158  0.6508
  176DOPC   H6R21505   3.511   2.077  12.728 -0.3056  1.1878 -0.1621
  176DOPC   H6S21506   3.665   2.170  12.735  0.7752  0.6924  0.5056
  176DOPC   C2721507   3.654   1.991  12.856 -0.2361 -0.7728  0.4802
  176DOPC   H7R21508   3.764   1.976  12.854 -0.4781 -2.9358 -1.4042
  176DOPC   H7S21509   3.608   1.890  12.843 -0.0801 -0.7932  0.0643
  176DOPC   C2821510   3.579   2.052  12.977  0.1650  0.1639 -0.6486
  176DOPC   H8R21511   3.571   1.977  13.059 -0.5432  1.3765  0.4186
  176DOPC   H8S21512   3.475   2.082  12.952 -0.1660  2.5277  2.8252
  176DOPC   C2921513   3.656   2.174  13.025  0.0154  0.1250 -0.1528
  176DOPC   H9R21514   3.680   2.245  12.945 -2.2997  2.7610  1.3230
  176DOPC  C21021515   3.684   2.201  13.149 -1.0560 -0.3708  0.0527
  176DOPC  H10R21516   3.768   2.267  13.174  0.5343 -1.6795 -1.5705
  176DOPC  C21121517   3.622   2.130  13.261 -0.7350 -0.0730 -0.5766
  176DOPC  H11R21518   3.646   2.022  13.259  2.4898  0.5127  0.3811
  176DOPC  H11S21519   3.512   2.137  13.275 -0.4833 -0.8379  2.4663
  176DOPC  C21221520   3.684   2.172  13.399  0.1330 -0.4883  0.6601
  176DOPC  H12R21521   3.662   2.281  13.400 -1.7648 -0.7782 -1.9161
  176DOPC  H12S21522   3.795   2.162  13.389  0.1128 -0.6109  0.5653
  176DOPC  C21321523   3.626   2.122  13.529  0.5337  0.6841 -1.0337
  176DOPC  H13R21524   3.617   2.011  13.521  3.0257  0.4589 -1.5384
  176DOPC  H13S21525   3.523   2.163  13.526  1.3101  2.6937 -2.2019
  176DOPC  C21421526   3.696   2.181  13.652  0.0018  0.6019  0.7451
  176DOPC  H14R21527   3.716   2.291  13.654  1.5037  0.3495  0.5713
  176DOPC  H14S21528   3.793   2.130  13.639 -0.8756 -1.2386  1.1562
  176DOPC  C21521529   3.631   2.132  13.781 -0.7740  0.1548  0.1692
  176DOPC  H15R21530   3.533   2.099  13.741 -1.2644  2.7462 -0.9316
  176DOPC  H15S21531   3.607   2.214  13.852 -3.8195  0.9974 -1.6377
  176DOPC  C21621532   3.717   2.023  13.855  0.4420 -0.2260  0.3492
  176DOPC  H16R21533   3.684   2.005  13.959  0.1982 -1.7657  0.0193
  176DOPC  H16S21534   3.814   2.076  13.867  0.8195 -0.2236 -2.1208
  176DOPC  C21721535   3.741   1.887  13.789 -0.5396 -0.2831 -0.1711
  176DOPC  H17R21536   3.770   1.908  13.683 -3.9860 -3.0751 -1.8716
  176DOPC  H17S21537   3.650   1.824  13.777 -2.1189  2.0517 -1.2917
  176DOPC  C21821538   3.852   1.805  13.850  0.3717  1.0827 -0.3933
  176DOPC  H18R21539   3.949   1.858  13.842  0.7536  0.5516  0.5871
  176DOPC  H18S21540   3.859   1.707  13.798 -0.3295  0.1053  1.2654
  176DOPC  H18T21541   3.831   1.802  13.959 -2.0249 -2.4925 -0.7693
  176DOPC   C3321542   3.095   1.979  12.585 -0.2973 -0.0867  0.3389
  176DOPC   H3X21543   3.004   1.921  12.558 -0.5291 -0.7534  2.3973
  176DOPC   H3Y21544   3.103   2.087  12.563  3.1908 -0.2341  0.3069
  176DOPC   C3421545   3.129   1.976  12.741 -0.2720 -0.2851 -0.2838
  176DOPC   H4X21546   3.236   2.005  12.754 -0.8293  2.5675 -1.3473
  176DOPC   H4Y21547   3.118   1.871  12.775 -1.5729  0.0989  0.5393
  176DOPC   C3521548   3.043   2.068  12.827 -0.3880 -0.1068 -0.3717
  176DOPC   H5X21549   2.938   2.052  12.797 -0.2959  0.1750 -0.8641
  176DOPC   H5Y21550   3.074   2.175  12.817  1.4461 -0.4625  0.9147
  176DOPC   C3621551   3.043   2.033  12.975  0.2375 -0.2105  0.3720
  176DOPC   H6X21552   2.971   2.100  13.029  0.3036  0.2261 -0.0764
  176DOPC   H6Y21553   3.020   1.926  12.994  1.0729 -0.5132 -0.3052
  176DOPC   C3721554   3.181   2.041  13.048 -0.3326 -0.7253 -0.0557
  176DOPC   H7X21555   3.258   1.986  12.991 -0.5048  0.4437 -1.4952
  176DOPC   H7Y21556   3.212   2.148  13.051 -0.4405 -0.7050  2.4534
  176DOPC   C3821557   3.163   1.979  13.192  0.0096  0.0134  0.7442
  176DOPC   H8X21558   3.108   1.883  13.178  1.9462 -0.7263 -3.2811
  176DOPC   H8Y21559   3.082   2.036  13.242 -0.3311  1.7493 -1.6341
  176DOPC   C3921560   3.287   1.978  13.279 -0.0628  0.2924 -0.1959
  176DOPC   H9X21561   3.320   2.078  13.313 -2.5963  1.8247 -1.8626
  176DOPC  C31021562   3.347   1.864  13.317 -0.4615 -0.0139 -0.3151
  176DOPC  H10X21563   3.445   1.878  13.364  0.7146  1.3640 -2.9696
  176DOPC  C31121564   3.303   1.726  13.282 -0.3219  0.3165 -0.7311
  176DOPC  H11X21565   3.200   1.718  13.241 -0.9404 -1.3046  0.9944
  176DOPC  H11Y21566   3.296   1.664  13.373 -1.6067  0.7739 -0.4939
  176DOPC  C31221567   3.397   1.659  13.175 -0.0364 -0.1040 -0.0104
  176DOPC  H12X21568   3.371   1.551  13.170 -0.5905  0.0572 -0.6821
  176DOPC  H12Y21569   3.503   1.665  13.209 -0.0724  1.0161 -0.0777
  176DOPC  C31321570   3.372   1.716  13.035  0.1294  0.3349 -0.0665
  176DOPC  H13X21571   3.263   1.716  13.016  0.1153 -0.6846 -0.0488
  176DOPC  H13Y21572   3.395   1.824  13.030  0.5749  0.2611  0.3124
  176DOPC  C31421573   3.463   1.640  12.932  0.8786  0.0282 -0.0515
  176DOPC  H14X21574   3.571   1.654  12.954  0.2719  3.0786  1.4893
  176DOPC  H14Y21575   3.440   1.531  12.942  0.2491  0.1333 -0.2949
  176DOPC  C31521576   3.444   1.688  12.785 -0.0482  0.4864  0.6603
  176DOPC  H15X21577   3.459   1.794  12.759  0.9183 -0.3288 -2.5988
  176DOPC  H15Y21578   3.334   1.668  12.779  0.0822 -0.0046 -0.3349
  176DOPC  C31621579   3.507   1.610  12.667 -0.2763 -0.0741 -0.2163
  176DOPC  H16X21580   3.617   1.618  12.667 -0.0556 -2.3586 -0.7449
  176DOPC  H16Y21581   3.486   1.501  12.675  1.9318 -0.5297 -0.0069
  176DOPC  C31721582   3.440   1.659  12.543 -0.4655  0.1221  0.3321
  176DOPC  H17X21583   3.334   1.629  12.533 -1.3065  2.7351  0.7953
  176DOPC  H17Y21584   3.436   1.769  12.535 -0.9234  0.0116 -1.3750
  176DOPC  C31821585   3.512   1.605  12.418 -0.2518 -0.5233 -0.5911
  176DOPC  H18X21586   3.483   1.662  12.326 -0.7669 -0.1345 -0.1940
  176DOPC  H18Y21587   3.620   1.621  12.437  0.3710 -2.4948 -2.1412
  176DOPC  H18Z21588   3.489   1.498  12.397  1.0562 -0.6756 -1.3289
  177DOPC     N21589   5.087   5.209  11.675 -0.6858  0.0674  0.6037
  177DOPC   C1221590   5.165   5.178  11.805  0.0652  0.5693 -0.2791
  177DOPC  H12A21591   5.247   5.113  11.780 -0.1434  0.3483 -0.3924
  177DOPC  H12B21592   5.100   5.110  11.857  0.1328  1.0376  0.4359
  177DOPC   C1321593   5.081   5.084  11.593  0.2565  0.6218  0.3553
  177DOPC  H13A21594   5.000   5.020  11.627 -0.8356  0.9833 -1.4603
  177DOPC  H13B21595   5.058   5.106  11.490 -0.7791  1.4635  0.7498
  177DOPC  H13C21596   5.164   5.015  11.597 -0.3520 -0.2879 -1.6573
  177DOPC   C1421597   5.153   5.312  11.594 -0.0117 -0.1524 -0.1094
  177DOPC  H14A21598   5.087   5.346  11.516 -0.8335  1.3502  1.1556
  177DOPC  H14B21599   5.158   5.402  11.655 -0.2845  0.5128 -1.0441
  177DOPC  H14C21600   5.250   5.276  11.563 -0.4045 -1.9251  0.6348
  177DOPC   C1521601   4.952   5.252  11.711  0.5540  0.1181 -0.0177
  177DOPC  H15A21602   4.901   5.303  11.631 -1.3595 -3.7245 -1.4883
  177DOPC  H15B21603   4.963   5.324  11.791  1.0247 -1.1416  1.0871
  177DOPC  H15C21604   4.889   5.172  11.745 -1.2152  0.3803 -2.4256
  177DOPC   C1121605   5.207   5.293  11.901  0.6440  0.8677 -0.0192
  177DOPC  H11A21606   5.247   5.249  11.995 -2.7596  2.3137  2.3246
  177DOPC  H11B21607   5.296   5.347  11.864  1.3685  0.1523  0.6265
  177DOPC     P21608   5.008   5.365  12.063 -0.4006 -0.2034  0.0420
  177DOPC   O1321609   4.992   5.224  12.095  0.4401 -0.2928 -0.1427
  177DOPC   O1421610   4.886   5.444  12.040  0.1890 -0.2919  0.8740
  177DOPC   O1221611   5.103   5.381  11.939 -0.2173 -0.3866 -0.0218
  177DOPC   O1121612   5.081   5.424  12.191  0.2897 -0.9214  0.3812
  177DOPC    C121613   5.199   5.496  12.181 -0.9456  0.0653 -0.8751
  177DOPC    HA21614   5.205   5.548  12.083 -1.1116  1.5657 -0.1234
  177DOPC    HB21615   5.290   5.432  12.186  0.2982  1.7743 -0.5147
  177DOPC    C221616   5.202   5.608  12.295  0.1280  0.2366 -0.1855
  177DOPC    HS21617   5.291   5.674  12.282 -0.4546  0.8302 -1.3109
  177DOPC   O2121618   5.205   5.558  12.431 -0.1001  0.0875  0.3200
  177DOPC   C2121619   5.302   5.469  12.463 -0.0262 -0.2924 -0.5043
  177DOPC   O2221620   5.405   5.439  12.402  0.5019 -0.0241  0.3553
  177DOPC   C2221621   5.272   5.424  12.603 -0.4216  0.0087  0.0123
  177DOPC   H2R21622   5.170   5.380  12.596 -0.3898  0.1955 -3.1342
  177DOPC   H2S21623   5.266   5.517  12.663  1.6677 -0.2294  0.6710
  177DOPC    C321624   5.081   5.694  12.286  0.3815  0.0758 -0.0750
  177DOPC    HX21625   4.990   5.632  12.277  1.1300 -0.9651 -0.7926
  177DOPC    HY21626   5.083   5.746  12.187  0.2263 -1.1318 -0.7222
  177DOPC   O3121627   5.082   5.798  12.392 -0.0482 -0.4378  0.2749
  177DOPC   C3121628   4.978   5.814  12.474  0.1398  0.1238  0.5781
  177DOPC   O3221629   4.873   5.752  12.460 -0.2075 -0.2742 -0.6531
  177DOPC   C3221630   5.012   5.907  12.579 -0.3300  0.3127 -0.4185
  177DOPC   H2X21631   5.089   5.981  12.547 -0.4562  0.5182 -0.2480
  177DOPC   H2Y21632   4.917   5.962  12.598 -0.2371  0.6176 -0.8144
  177DOPC   C2321633   5.374   5.325  12.660 -0.3057 -0.9187 -0.4298
  177DOPC   H3R21634   5.363   5.340  12.770  1.6242  0.2934 -0.3622
  177DOPC   H3S21635   5.479   5.357  12.643 -0.2651 -0.6104  0.3517
  177DOPC   C2421636   5.341   5.178  12.617 -0.4542 -0.0034 -0.0988
  177DOPC   H4R21637   5.322   5.179  12.508 -2.4275  0.5631  0.2130
  177DOPC   H4S21638   5.243   5.156  12.663 -0.2317 -0.5376  0.1230
  177DOPC   C2521639   5.454   5.074  12.651  0.5502  0.1033 -0.4885
  177DOPC   H5R21640   5.535   5.106  12.583  1.0451  0.1189  0.1004
  177DOPC   H5S21641   5.408   4.976  12.627 -0.4196 -0.0627  1.7341
  177DOPC   C2621642   5.487   5.072  12.798  0.0184 -0.4071  0.1308
  177DOPC   H6R21643   5.550   5.160  12.823 -0.3325  0.5106 -2.0296
  177DOPC   H6S21644   5.548   4.983  12.823  0.3078 -0.2520 -0.0180
  177DOPC   C2721645   5.361   5.058  12.886 -0.5034 -0.5522 -0.3393
  177DOPC   H7R21646   5.340   4.949  12.876  0.4434 -0.9032  1.0987
  177DOPC   H7S21647   5.272   5.111  12.847  0.7223  2.3922  0.5571
  177DOPC   C2821648   5.390   5.084  13.039  0.5682  0.2858  0.2135
  177DOPC   H8R21649   5.413   5.190  13.066  2.9231 -0.5311  1.6789
  177DOPC   H8S21650   5.490   5.040  13.053  1.3033  1.4540 -1.0104
  177DOPC   C2921651   5.278   5.005  13.107  0.9332  0.1469 -0.7405
  177DOPC   H9R21652   5.273   4.899  13.078  1.5350 -0.0550 -0.1534
  177DOPC  C21021653   5.179   5.057  13.189 -0.0711  0.5233 -0.4382
  177DOPC  H10R21654   5.097   5.008  13.243  0.8835  1.3444  1.9084
  177DOPC  C21121655   5.179   5.202  13.234 -0.6059  0.1083 -0.3513
  177DOPC  H11R21656   5.081   5.250  13.213 -0.0704  1.2881 -0.2948
  177DOPC  H11S21657   5.253   5.266  13.180 -0.2069  1.4974  1.6970
  177DOPC  C21221658   5.208   5.212  13.384 -0.0199 -0.2240 -0.1356
  177DOPC  H12R21659   5.126   5.165  13.443  1.1787  0.1875  1.9393
  177DOPC  H12S21660   5.213   5.317  13.421  0.0714 -1.1801  2.7860
  177DOPC  C21321661   5.344   5.153  13.428  0.0526  0.0316 -0.0596
  177DOPC  H13R21662   5.433   5.194  13.376  1.9018 -3.4534  0.0660
  177DOPC  H13S21663   5.345   5.045  13.402  2.0515  0.3798 -1.6868
  177DOPC  C21421664   5.371   5.171  13.585 -0.2847  0.0589 -0.6649
  177DOPC  H14R21665   5.359   5.279  13.605 -0.0989 -0.3248  1.8254
  177DOPC  H14S21666   5.477   5.142  13.600 -0.2546  0.1200 -0.7551
  177DOPC  C21521667   5.280   5.085  13.677 -0.1704  0.1487  0.2376
  177DOPC  H15R21668   5.278   4.993  13.615 -2.8272 -0.7135  1.4500
  177DOPC  H15S21669   5.175   5.121  13.678 -0.0013  0.6836 -0.2192
  177DOPC  C21621670   5.336   5.062  13.812 -0.0609  0.4649 -0.0493
  177DOPC  H16R21671   5.371   5.155  13.861 -0.3378  0.3269  0.4128
  177DOPC  H16S21672   5.432   5.005  13.804  0.6279  1.4409  0.9765
  177DOPC  C21721673   5.244   4.983  13.906 -0.3287 -0.5959 -0.8687
  177DOPC  H17R21674   5.220   4.883  13.864 -2.1921  0.2334 -1.9055
  177DOPC  H17S21675   5.144   5.029  13.917 -0.5065 -1.1382 -0.1192
  177DOPC  C21821676   5.310   4.969  14.041  0.5438  0.1030  0.1232
  177DOPC  H18R21677   5.403   4.908  14.036  0.0491 -0.5888 -1.0402
  177DOPC  H18S21678   5.239   4.911  14.104  0.7234  0.9730  1.1581
  177DOPC  H18T21679   5.330   5.063  14.096  1.1320  0.0854 -0.0614
  177DOPC   C3321680   5.066   5.831  12.708 -0.4180 -0.0525  0.1207
  177DOPC   H3X21681   5.019   5.733  12.733  3.7392 -2.2941  0.0508
  177DOPC   H3Y21682   5.045   5.896  12.795 -0.2927 -0.8452  0.7500
  177DOPC   C3421683   5.214   5.803  12.712  0.1687  0.3583 -0.3775
  177DOPC   H4X21684   5.277   5.883  12.667  2.1180 -1.6623 -1.4658
  177DOPC   H4Y21685   5.247   5.726  12.639 -2.8381 -1.0680 -0.3786
  177DOPC   C3521686   5.272   5.784  12.851 -0.0341 -0.1275  0.7377
  177DOPC   H5X21687   5.221   5.707  12.912 -0.0050 -0.1530  0.7300
  177DOPC   H5Y21688   5.244   5.871  12.915 -0.5175  0.3288 -0.0641
  177DOPC   C3621689   5.419   5.760  12.863  0.1268  0.1697  0.2837
  177DOPC   H6X21690   5.426   5.657  12.821  1.0258 -0.9613  2.9260
  177DOPC   H6Y21691   5.476   5.834  12.804  0.0222  0.0099 -0.0191
  177DOPC   C3721692   5.458   5.761  13.010  0.4661 -0.4036  0.2535
  177DOPC   H7X21693   5.564   5.785  13.030  0.4303  2.3219 -2.1891
  177DOPC   H7Y21694   5.405   5.841  13.065  0.7061 -1.0395  1.4320
  177DOPC   C3821695   5.421   5.620  13.073 -0.2144 -0.2937  0.0051
  177DOPC   H8X21696   5.318   5.596  13.040 -0.8062  1.1468  0.7063
  177DOPC   H8Y21697   5.415   5.638  13.183  0.4005 -1.3003  0.2140
  177DOPC   C3921698   5.509   5.502  13.039  0.1591 -0.1445  0.8849
  177DOPC   H9X21699   5.525   5.490  12.931 -1.6366  0.1041  0.5608
  177DOPC  C31021700   5.566   5.417  13.120  0.0976  0.3875 -0.3220
  177DOPC  H10X21701   5.640   5.345  13.083 -2.3183 -1.6596 -1.4535
  177DOPC  C31121702   5.576   5.436  13.273 -0.4168  0.9430 -0.3632
  177DOPC  H11X21703   5.576   5.337  13.322 -3.1275 -0.2692 -2.5430
  177DOPC  H11Y21704   5.492   5.491  13.320 -0.1078 -0.3532  1.8303
  177DOPC  C31221705   5.702   5.514  13.328  0.5037  1.0066  0.3194
  177DOPC  H12X21706   5.719   5.611  13.275 -1.7903  0.7863 -0.9552
  177DOPC  H12Y21707   5.788   5.449  13.303 -1.0871 -1.1633  0.1909
  177DOPC  C31321708   5.697   5.521  13.487 -0.5795 -0.0978 -0.1196
  177DOPC  H13X21709   5.736   5.622  13.514 -0.7585 -0.7161  2.8169
  177DOPC  H13Y21710   5.598   5.491  13.527  0.8474 -1.7412  2.4631
  177DOPC  C31421711   5.796   5.417  13.544  1.0691  0.3443  0.0578
  177DOPC  H14X21712   5.759   5.321  13.503 -0.6068  0.7673  0.4769
  177DOPC  H14Y21713   5.898   5.443  13.509  1.1811 -0.4297 -0.2159
  177DOPC  C31521714   5.788   5.423  13.696  0.4866 -0.0839  1.2784
  177DOPC  H15X21715   5.774   5.530  13.722 -3.2011  0.0163 -0.4205
  177DOPC  H15Y21716   5.880   5.384  13.744  2.0961 -0.6771 -2.0326
  177DOPC  C31621717   5.656   5.359  13.759  0.4221  1.1931  0.0631
  177DOPC  H16X21718   5.570   5.426  13.736  0.8245  1.7051  0.0434
  177DOPC  H16Y21719   5.642   5.249  13.745  1.4187  0.9692  0.7528
  177DOPC  C31721720   5.670   5.359  13.917 -0.2100  0.0561 -0.3036
  177DOPC  H17X21721   5.571   5.329  13.956 -0.3162  1.4636  0.5612
  177DOPC  H17Y21722   5.751   5.283  13.927 -0.7685 -0.9018 -2.4779
  177DOPC  C31821723   5.709   5.487  13.988 -0.1215 -1.2442  0.4470
  177DOPC  H18X21724   5.659   5.583  13.962  3.4751 -0.0176 -2.8976
  177DOPC  H18Y21725   5.691   5.476  14.097 -1.3820 -0.7389  0.3083
  177DOPC  H18Z21726   5.818   5.504  13.972  0.7662 -3.8456  2.8476
  178DOPC     N21727   2.672   4.760  11.936  0.0587 -0.9181  0.4017
  178DOPC   C1221728   2.584   4.772  12.058 -0.5596  0.4688 -0.0982
  178DOPC  H12A21729   2.643   4.745  12.144  2.2948  0.1663 -2.0180
  178DOPC  H12B21730   2.523   4.683  12.059  1.3627 -0.9273 -0.2501
  178DOPC   C1321731   2.769   4.870  11.909  0.1165 -0.0817  0.0934
  178DOPC  H13A21732   2.832   4.902  11.991  1.0129  1.7624 -1.2439
  178DOPC  H13B21733   2.833   4.843  11.827 -0.5308 -2.0129  0.1700
  178DOPC  H13C21734   2.724   4.962  11.874  1.8220  0.4636 -0.8001
  178DOPC   C1421735   2.576   4.722  11.816 -0.6240 -0.2258 -0.3396
  178DOPC  H14A21736   2.513   4.810  11.810  1.4730  1.2729 -1.4285
  178DOPC  H14B21737   2.618   4.703  11.719 -0.5410 -0.6569 -0.2195
  178DOPC  H14C21738   2.512   4.637  11.833 -3.7437  1.6906 -1.6036
  178DOPC   C1521739   2.751   4.641  11.950 -0.0795  0.3408  0.0109
  178DOPC  H15A21740   2.700   4.551  11.982  1.6808 -0.8836 -0.4417
  178DOPC  H15B21741   2.835   4.655  12.016  0.5225  1.7738 -1.0050
  178DOPC  H15C21742   2.797   4.618  11.855 -0.7720  2.8323 -1.0117
  178DOPC   C1121743   2.509   4.896  12.091 -0.9774  0.4010 -0.2130
  178DOPC  H11A21744   2.474   4.894  12.197  0.4579  0.5283  0.2976
  178DOPC  H11B21745   2.584   4.976  12.074 -0.2343 -0.6038 -2.0024
  178DOPC     P21746   2.252   4.872  12.016  0.1662 -0.0427 -0.2419
  178DOPC   O1321747   2.241   4.730  12.063 -0.1999 -1.4623 -0.4193
  178DOPC   O1421748   2.184   4.904  11.888 -0.1313 -0.2608  0.3198
  178DOPC   O1221749   2.407   4.917  11.992  0.4714 -0.3026  0.5129
  178DOPC   O1121750   2.192   4.964  12.130 -0.5833 -0.5499 -0.4337
  178DOPC    C121751   2.228   5.100  12.158  0.8696 -0.0074  0.3666
  178DOPC    HA21752   2.131   5.151  12.172 -0.1353 -1.7606  0.0649
  178DOPC    HB21753   2.283   5.143  12.072  0.3380 -0.6141 -0.2798
  178DOPC    C221754   2.302   5.109  12.297  0.3017  0.0708 -0.5284
  178DOPC    HS21755   2.406   5.075  12.282  0.5573  0.9588 -0.8185
  178DOPC   O2121756   2.231   5.027  12.387  0.8082 -0.1620 -0.0283
  178DOPC   C2121757   2.304   4.960  12.481 -0.1781  0.5017 -0.4580
  178DOPC   O2221758   2.422   4.941  12.475 -0.4786 -0.0134  0.4322
  178DOPC   C2221759   2.216   4.898  12.592  0.2505 -0.1509  0.0177
  178DOPC   H2R21760   2.191   4.795  12.560  2.0093 -0.8562  0.7627
  178DOPC   H2S21761   2.124   4.959  12.603 -0.2898 -0.8244 -0.6315
  178DOPC    C321762   2.307   5.258  12.351  0.0846  0.5526 -0.5209
  178DOPC    HX21763   2.201   5.286  12.369  0.1903 -0.2504  1.7140
  178DOPC    HY21764   2.370   5.306  12.273 -0.8829 -0.0619 -1.7139
  178DOPC   O3121765   2.384   5.280  12.476  0.2822  0.3927  0.3128
  178DOPC   C3121766   2.353   5.392  12.544 -0.1334 -0.6271 -0.1242
  178DOPC   O3221767   2.255   5.458  12.528  0.4861  0.1339  0.1092
  178DOPC   C3221768   2.446   5.405  12.663 -0.0339 -0.1959 -0.6379
  178DOPC   H2X21769   2.408   5.337  12.742 -0.8275 -0.3662 -1.1509
  178DOPC   H2Y21770   2.544   5.362  12.632  0.3436  0.4149 -0.2945
  178DOPC   C2321771   2.288   4.904  12.724  0.0362  0.0697 -0.4857
  178DOPC   H3R21772   2.385   4.851  12.712 -1.7076 -3.5298  0.0238
  178DOPC   H3S21773   2.234   4.838  12.795 -1.1814 -0.7777 -2.1249
  178DOPC   C2421774   2.302   5.039  12.786 -0.0697  0.8596  0.2784
  178DOPC   H4R21775   2.206   5.093  12.806  0.0069  1.2606 -0.4293
  178DOPC   H4S21776   2.361   5.104  12.719 -0.2377  1.2632  0.5197
  178DOPC   C2521777   2.375   5.050  12.927 -0.5508 -0.3304  0.3963
  178DOPC   H5R21778   2.383   5.154  12.966  0.4122  0.3311 -1.4166
  178DOPC   H5S21779   2.480   5.022  12.904 -0.2246  0.0441  1.3589
  178DOPC   C2621780   2.321   4.968  13.044 -0.4134  0.2766 -0.5052
  178DOPC   H6R21781   2.310   4.862  13.013 -2.3039  0.9387 -2.3000
  178DOPC   H6S21782   2.225   5.018  13.070 -1.3593 -1.4103 -0.6254
  178DOPC   C2721783   2.415   4.971  13.163  0.5774 -0.1611 -0.1535
  178DOPC   H7R21784   2.407   5.077  13.195  0.9129 -0.2806  0.3367
  178DOPC   H7S21785   2.519   4.946  13.133 -0.1997 -2.0399 -1.4333
  178DOPC   C2821786   2.367   4.880  13.277  0.4162 -0.4790 -1.2244
  178DOPC   H8R21787   2.453   4.856  13.344 -1.0971 -2.7577  0.0529
  178DOPC   H8S21788   2.336   4.780  13.239  0.6305 -0.7312 -0.7417
  178DOPC   C2921789   2.249   4.951  13.348 -0.5565 -0.2679  0.3507
  178DOPC   H9R21790   2.152   4.954  13.295 -1.1313  0.0249  1.3832
  178DOPC  C21021791   2.248   4.989  13.475 -0.2978 -0.2881  0.9942
  178DOPC  H10R21792   2.154   5.027  13.519 -0.8667  0.4155 -0.7142
  178DOPC  C21121793   2.367   4.995  13.575  0.3064 -0.1075  0.1770
  178DOPC  H11R21794   2.378   5.089  13.633  0.6897  0.6820 -1.1310
  178DOPC  H11S21795   2.460   4.982  13.516 -0.0728  0.7172 -0.6379
  178DOPC  C21221796   2.358   4.872  13.678  0.1189 -0.5841 -0.1720
  178DOPC  H12R21797   2.464   4.875  13.712  0.4303 -0.3193 -1.1073
  178DOPC  H12S21798   2.337   4.777  13.625 -3.2730 -0.8630  1.4197
  178DOPC  C21321799   2.260   4.903  13.790  1.1423  0.1849 -0.2197
  178DOPC  H13R21800   2.153   4.893  13.761  1.5385 -1.8072 -1.1107
  178DOPC  H13S21801   2.263   5.010  13.820 -0.2218 -0.0816  0.9600
  178DOPC  C21421802   2.275   4.813  13.918 -0.3540  0.3657 -0.0601
  178DOPC  H14R21803   2.384   4.796  13.925 -0.0330  2.3541  0.1663
  178DOPC  H14S21804   2.241   4.709  13.897  2.0128 -0.6408  0.8350
  178DOPC  C21521805   2.227   4.877  14.050 -0.2556 -0.2389 -0.3305
  178DOPC  H15R21806   2.116   4.879  14.038 -0.2135 -2.7260 -1.9465
  178DOPC  H15S21807   2.261   4.981  14.068  1.4633 -0.7494 -0.4620
  178DOPC  C21621808   2.268   4.793  14.179  0.5531  0.0780 -0.4344
  178DOPC  H16R21809   2.225   4.847  14.266  0.3763  0.1524 -0.5650
  178DOPC  H16S21810   2.377   4.796  14.197  0.4974 -3.1750  1.1189
  178DOPC  C21721811   2.226   4.650  14.184  0.0591  0.0188 -0.0215
  178DOPC  H17R21812   2.263   4.591  14.097  0.2907  0.7554 -0.4254
  178DOPC  H17S21813   2.115   4.657  14.187  0.1329  1.2388  1.5856
  178DOPC  C21821814   2.268   4.577  14.313  0.1112  0.3621  0.1252
  178DOPC  H18R21815   2.373   4.543  14.318  0.2585  0.5029 -1.5083
  178DOPC  H18S21816   2.207   4.484  14.310  0.6917  0.0129 -1.3153
  178DOPC  H18T21817   2.228   4.636  14.399 -1.2814  0.3163 -0.4528
  178DOPC   C3321818   2.443   5.537  12.744 -0.2512  0.1449  0.0842
  178DOPC   H3X21819   2.343   5.563  12.785 -0.4414  0.6038 -0.6552
  178DOPC   H3Y21820   2.472   5.626  12.685  0.0452 -0.7524 -1.1642
  178DOPC   C3421821   2.527   5.513  12.874 -0.6658  0.1913  0.0277
  178DOPC   H4X21822   2.622   5.459  12.854 -0.6106  0.0934  0.5508
  178DOPC   H4Y21823   2.466   5.439  12.929 -1.0668 -0.3144 -1.0709
  178DOPC   C3521824   2.550   5.645  12.952  0.0728 -0.6182 -0.1710
  178DOPC   H5X21825   2.449   5.692  12.959  0.3857  0.0589 -0.1254
  178DOPC   H5Y21826   2.607   5.714  12.887 -0.5180  0.0058 -0.0461
  178DOPC   C3621827   2.591   5.620  13.097 -0.4063 -0.1622  0.1261
  178DOPC   H6X21828   2.520   5.555  13.154 -2.7453  2.5256  0.4767
  178DOPC   H6Y21829   2.690   5.571  13.086  0.1917  1.2500 -1.1320
  178DOPC   C3721830   2.594   5.754  13.175 -0.1612 -0.0571  0.0847
  178DOPC   H7X21831   2.623   5.829  13.099  2.2594 -0.3057  0.6991
  178DOPC   H7Y21832   2.489   5.777  13.203 -0.3036 -0.4037 -0.1559
  178DOPC   C3821833   2.696   5.751  13.296 -0.0086 -0.1357  0.2123
  178DOPC   H8X21834   2.723   5.856  13.321 -1.1885  0.2007  0.1256
  178DOPC   H8Y21835   2.791   5.711  13.255  0.4263  0.0207  1.0488
  178DOPC   C3921836   2.634   5.683  13.416 -0.7269  1.1267  0.6110
  178DOPC   H9X21837   2.600   5.582  13.388 -0.8601  1.0018  1.2199
  178DOPC  C31021838   2.612   5.726  13.548 -0.3003  0.1435  0.2365
  178DOPC  H10X21839   2.559   5.661  13.619 -0.8353  0.6889  0.3457
  178DOPC  C31121840   2.664   5.856  13.589 -0.3482  0.3649  0.2584
  178DOPC  H11X21841   2.615   5.938  13.532 -3.1721 -0.5745  1.1458
  178DOPC  H11Y21842   2.769   5.851  13.552 -1.0665  0.9821 -2.0240
  178DOPC  C31221843   2.655   5.886  13.744  0.1457 -0.0794 -0.2321
  178DOPC  H12X21844   2.715   5.977  13.768  0.9261 -0.6560  0.0248
  178DOPC  H12Y21845   2.697   5.802  13.803 -0.2133 -0.3884 -0.4142
  178DOPC  C31321846   2.505   5.910  13.793 -0.4552  0.3204 -0.5780
  178DOPC  H13X21847   2.464   6.002  13.747 -0.7735 -1.1672 -3.5105
  178DOPC  H13Y21848   2.431   5.831  13.766 -0.5698  0.5069 -0.8187
  178DOPC  C31421849   2.493   5.921  13.944 -0.8150  0.5690 -0.4749
  178DOPC  H14X21850   2.584   5.969  13.985 -1.6132  1.2114  0.6203
  178DOPC  H14Y21851   2.402   5.978  13.973 -2.0326 -1.7591  0.6036
  178DOPC  C31521852   2.490   5.789  14.023  0.2342 -0.0574 -0.8623
  178DOPC  H15X21853   2.586   5.736  14.008  0.8427  1.3572 -2.2807
  178DOPC  H15Y21854   2.410   5.724  13.982  0.5005 -1.2156  0.3898
  178DOPC  C31621855   2.459   5.810  14.170 -0.0072  0.5810  0.0876
  178DOPC  H16X21856   2.503   5.722  14.222  0.5394  1.6440  1.4891
  178DOPC  H16Y21857   2.525   5.888  14.215  0.2653 -1.2705  3.1609
  178DOPC  C31721858   2.318   5.827  14.204 -0.2922 -0.2743 -0.3873
  178DOPC  H17X21859   2.316   5.880  14.302 -1.1536  0.8600 -0.9970
  178DOPC  H17Y21860   2.267   5.893  14.131 -0.8866  0.4535  0.6612
  178DOPC  C31821861   2.247   5.693  14.222  0.2231 -0.7041  0.3757
  178DOPC  H18X21862   2.311   5.612  14.263 -0.2436 -1.6863 -0.7779
  178DOPC  H18Y21863   2.156   5.705  14.285  1.4857  1.1010  2.0185
  178DOPC  H18Z21864   2.212   5.649  14.126 -1.3653  2.8646 -0.8530
  179DOPC     N21865   6.290   3.839  11.347  0.2746 -0.5926 -0.1974
  179DOPC   C1221866   6.243   3.925  11.467 -0.5988 -0.2177  0.4321
  179DOPC  H12A21867   6.202   3.855  11.538 -0.8158 -0.4045  0.1243
  179DOPC  H12B21868   6.158   3.984  11.437 -0.6045 -1.1633 -1.5503
  179DOPC   C1321869   6.369   3.923  11.252  0.1919  0.2968  0.0955
  179DOPC  H13A21870   6.434   3.989  11.307  3.5932 -0.7839 -2.2653
  179DOPC  H13B21871   6.440   3.855  11.207  1.1992  1.8123 -0.7067
  179DOPC  H13C21872   6.296   3.970  11.188 -0.8483  0.1845  1.1663
  179DOPC   C1421873   6.171   3.775  11.281  0.6036  0.0402  0.5020
  179DOPC  H14A21874   6.104   3.842  11.229 -1.4769 -0.4784  2.3964
  179DOPC  H14B21875   6.211   3.711  11.203 -0.3247  0.0551  0.0002
  179DOPC  H14C21876   6.113   3.715  11.349  0.0426 -1.6248 -1.3719
  179DOPC   C1521877   6.382   3.733  11.393  0.1668 -0.2121  0.4461
  179DOPC  H15A21878   6.463   3.775  11.452  0.8782 -1.6315  0.5305
  179DOPC  H15B21879   6.435   3.683  11.313  1.0188 -2.9145  2.5177
  179DOPC  H15C21880   6.327   3.666  11.457 -1.5247  1.2533  0.5893
  179DOPC   C1121881   6.345   4.025  11.531 -1.0555  0.3307 -0.4006
  179DOPC  H11A21882   6.314   4.050  11.635 -0.1032  3.6059 -0.7857
  179DOPC  H11B21883   6.443   3.978  11.550 -1.4087  0.4702  2.1207
  179DOPC     P21884   6.437   4.268  11.489  0.2066 -0.3035 -0.0051
  179DOPC   O1321885   6.389   4.384  11.410 -0.3553 -0.5659  0.0488
  179DOPC   O1421886   6.571   4.218  11.455 -0.1336  0.4811 -0.3604
  179DOPC   O1221887   6.348   4.144  11.453  0.1046  0.2759 -0.5817
  179DOPC   O1121888   6.430   4.295  11.641 -0.1628 -0.1132 -0.6956
  179DOPC    C121889   6.308   4.347  11.696  0.4301  0.5176  0.5115
  179DOPC    HA21890   6.225   4.283  11.659  2.5704 -1.3675 -1.3247
  179DOPC    HB21891   6.281   4.450  11.665 -0.5617  0.7615  2.0477
  179DOPC    C221892   6.308   4.350  11.852 -0.7345  0.3178 -0.3516
  179DOPC    HS21893   6.202   4.361  11.883 -0.9475  0.3495 -1.0805
  179DOPC   O2121894   6.368   4.467  11.906 -0.1709  0.1782  0.3427
  179DOPC   C2121895   6.304   4.583  11.896  0.6605  0.1783  0.2543
  179DOPC   O2221896   6.199   4.601  11.832 -0.7072 -0.3733 -0.0609
  179DOPC   C2221897   6.384   4.679  11.975  0.0375  0.0764 -0.0786
  179DOPC   H2R21898   6.419   4.754  11.900  0.3484  0.4906  0.4744
  179DOPC   H2S21899   6.480   4.631  12.004  0.8270 -0.0450 -2.6617
  179DOPC    C321900   6.382   4.222  11.907 -0.1220  0.1518  0.0664
  179DOPC    HX21901   6.483   4.235  11.865 -1.0829  1.2926 -2.0518
  179DOPC    HY21902   6.323   4.133  11.876 -1.5700 -0.2748  3.5231
  179DOPC   O3121903   6.397   4.228  12.051 -0.1680  0.2870 -0.7063
  179DOPC   C3121904   6.476   4.141  12.110 -0.4568 -0.9664  0.0173
  179DOPC   O3221905   6.542   4.055  12.059 -0.3105  0.5986 -0.2841
  179DOPC   C3221906   6.486   4.177  12.258  0.1742 -0.8675 -0.3080
  179DOPC   H2X21907   6.413   4.111  12.308 -1.9299  0.8169 -1.0188
  179DOPC   H2Y21908   6.590   4.158  12.292  0.0052 -0.8731  0.2092
  179DOPC   C2321909   6.299   4.747  12.083  0.1321  0.1521  0.3632
  179DOPC   H3R21910   6.193   4.749  12.052  0.3427 -0.7241 -0.4525
  179DOPC   H3S21911   6.344   4.848  12.096 -1.2003  0.7803  0.2471
  179DOPC   C2421912   6.314   4.689  12.227  0.3303  0.1951  0.3874
  179DOPC   H4R21913   6.419   4.686  12.261  0.2786  2.0062  0.8352
  179DOPC   H4S21914   6.279   4.584  12.238 -0.4035  0.4407  0.4778
  179DOPC   C2521915   6.228   4.779  12.326 -0.4851  0.0041  0.3152
  179DOPC   H5R21916   6.127   4.777  12.279 -0.0250 -3.8422 -0.8536
  179DOPC   H5S21917   6.259   4.886  12.319  0.6023 -0.3167  0.0293
  179DOPC   C2621918   6.223   4.729  12.473  0.0829  0.2412 -0.6626
  179DOPC   H6R21919   6.329   4.741  12.501 -0.2356  0.9141  0.2934
  179DOPC   H6S21920   6.197   4.621  12.484 -0.0333  0.3575  0.2736
  179DOPC   C2721921   6.141   4.815  12.566  1.3173 -0.3699 -0.3103
  179DOPC   H7R21922   6.035   4.820  12.534  0.9131 -1.2125  0.8267
  179DOPC   H7S21923   6.182   4.918  12.555  0.6934 -0.3371 -2.9080
  179DOPC   C2821924   6.146   4.781  12.714  0.3963 -0.3976  0.2205
  179DOPC   H8R21925   6.092   4.853  12.778  2.6743  0.2508  1.5333
  179DOPC   H8S21926   6.253   4.785  12.746  0.2378  0.3613  0.6902
  179DOPC   C2921927   6.073   4.644  12.736 -0.3214 -0.6949 -0.1796
  179DOPC   H9R21928   6.018   4.602  12.650  0.1998  0.2082 -0.9659
  179DOPC  C21021929   6.066   4.571  12.851  0.7052 -0.4400 -0.5294
  179DOPC  H10R21930   6.018   4.473  12.838  2.6802 -1.7251  1.1870
  179DOPC  C21121931   6.132   4.601  12.984  0.9239 -0.1467  0.6431
  179DOPC  H11R21932   6.212   4.671  12.952 -0.1234  0.6367 -0.3431
  179DOPC  H11S21933   6.177   4.508  13.023  2.3245  0.7699  1.3226
  179DOPC  C21221934   6.051   4.659  13.104  0.4890  0.6146 -0.3751
  179DOPC  H12R21935   5.974   4.594  13.151  1.6105 -0.7934 -0.4080
  179DOPC  H12S21936   5.999   4.750  13.066 -2.2257 -1.5465 -2.2639
  179DOPC  C21321937   6.143   4.701  13.222 -0.0739 -0.2141 -0.1780
  179DOPC  H13R21938   6.240   4.752  13.204  0.7979 -2.0453 -0.9739
  179DOPC  H13S21939   6.185   4.602  13.250  3.2883 -0.2914 -4.4019
  179DOPC  C21421940   6.070   4.759  13.342  0.5164 -0.1760  0.0023
  179DOPC  H14R21941   5.973   4.706  13.352 -0.2538  1.2059  0.1595
  179DOPC  H14S21942   6.033   4.859  13.311 -2.3761 -1.0750  0.3113
  179DOPC  C21521943   6.146   4.769  13.471 -0.1930  0.2194 -0.2266
  179DOPC  H15R21944   6.085   4.805  13.556 -1.2666 -0.9815 -0.4376
  179DOPC  H15S21945   6.225   4.843  13.447 -0.6663  0.7825 -0.0746
  179DOPC  C21621946   6.209   4.639  13.526  0.4490  0.3921  0.4514
  179DOPC  H16R21947   6.269   4.595  13.443 -1.0675  0.9011 -0.9612
  179DOPC  H16S21948   6.128   4.571  13.558  1.4494 -0.7447  0.6409
  179DOPC  C21721949   6.309   4.659  13.653 -0.0453 -0.2637 -0.0028
  179DOPC  H17R21950   6.247   4.708  13.731  1.1261 -1.8169  1.9696
  179DOPC  H17S21951   6.379   4.744  13.635  1.7770 -1.4788  1.1003
  179DOPC  C21821952   6.374   4.531  13.700 -0.2206 -0.3356 -0.0083
  179DOPC  H18R21953   6.457   4.567  13.764 -0.6503 -1.3819  1.2072
  179DOPC  H18S21954   6.411   4.488  13.605 -0.6791  0.6458 -0.6393
  179DOPC  H18T21955   6.308   4.465  13.761  1.8821 -1.0601  1.6108
  179DOPC   C3321956   6.454   4.321  12.294 -0.7949  0.0976 -1.1384
  179DOPC   H3X21957   6.347   4.326  12.267 -1.2523 -0.7844  0.3555
  179DOPC   H3Y21958   6.521   4.387  12.235  1.8185 -2.0178 -0.7382
  179DOPC   C3421959   6.463   4.358  12.446 -0.7058 -0.8081  0.2281
  179DOPC   H4X21960   6.472   4.265  12.507  0.0441 -0.3956  0.7586
  179DOPC   H4Y21961   6.367   4.404  12.477 -0.6358 -0.8838  0.5649
  179DOPC   C3521962   6.583   4.446  12.479 -0.0640  0.0478 -0.5670
  179DOPC   H5X21963   6.587   4.541  12.423 -1.7158 -0.1609 -1.0750
  179DOPC   H5Y21964   6.672   4.381  12.459 -0.6285 -1.0937  0.4465
  179DOPC   C3621965   6.615   4.479  12.630 -0.3509  0.7365  0.4367
  179DOPC   H6X21966   6.621   4.380  12.680  1.7206  0.3634 -0.4719
  179DOPC   H6Y21967   6.709   4.536  12.643  0.9104 -1.2220  0.2587
  179DOPC   C3721968   6.501   4.571  12.691 -0.2041 -0.0760  0.1694
  179DOPC   H7X21969   6.504   4.671  12.643  2.0864 -0.0172  0.3558
  179DOPC   H7Y21970   6.405   4.519  12.668 -0.1169 -0.6074  0.9536
  179DOPC   C3821971   6.508   4.583  12.844  0.1879 -0.1573 -0.1580
  179DOPC   H8X21972   6.431   4.649  12.888  0.4410 -0.2954  0.4983
  179DOPC   H8Y21973   6.591   4.648  12.878 -1.0395 -0.1380  3.2019
  179DOPC   C3921974   6.498   4.457  12.923  0.1620  0.2282  0.5682
  179DOPC   H9X21975   6.428   4.384  12.881 -1.5210  2.2415 -0.3287
  179DOPC  C31021976   6.580   4.420  13.025  0.3030 -0.1342 -0.0214
  179DOPC  H10X21977   6.548   4.329  13.080  2.1859  0.1505  1.6817
  179DOPC  C31121978   6.697   4.497  13.077  0.1688 -0.1165  0.2276
  179DOPC  H11X21979   6.699   4.600  13.034  0.9903 -0.5664 -0.8509
  179DOPC  H11Y21980   6.790   4.454  13.036  1.3522  1.3243  1.2944
  179DOPC  C31221981   6.707   4.494  13.235  0.6381  0.5341  0.5158
  179DOPC  H12X21982   6.614   4.533  13.282 -0.5710 -1.3963 -0.1625
  179DOPC  H12Y21983   6.791   4.558  13.270  0.1419 -0.0997  2.9816
  179DOPC  C31321984   6.734   4.352  13.288  0.9096  0.5813 -0.4416
  179DOPC  H13X21985   6.658   4.282  13.247  1.6821 -1.6940  1.7666
  179DOPC  H13Y21986   6.835   4.313  13.264  1.2876  1.0892  0.2893
  179DOPC  C31421987   6.716   4.350  13.445  0.1426 -0.0935  0.3555
  179DOPC  H14X21988   6.614   4.380  13.477  0.3803  0.2627  0.7945
  179DOPC  H14Y21989   6.720   4.244  13.480 -1.5631  0.2433  1.7068
  179DOPC  C31521990   6.829   4.423  13.521  0.4897 -0.1002 -1.1965
  179DOPC  H15X21991   6.798   4.454  13.623  1.9592 -1.8072 -0.1836
  179DOPC  H15Y21992   6.839   4.521  13.470 -0.4301  0.2454 -0.7427
  179DOPC  C31621993   6.960   4.346  13.548  0.2968 -0.0269  0.1053
  179DOPC  H16X21994   7.000   4.313  13.450 -2.1647  1.8954 -1.6740
  179DOPC  H16Y21995   7.041   4.412  13.587  0.0452  1.2636 -1.4614
  179DOPC  C31721996   6.940   4.219  13.629 -0.3325  0.2594 -0.3196
  179DOPC  H17X21997   6.855   4.228  13.700 -0.1156  1.6707 -0.2164
  179DOPC  H17Y21998   6.919   4.140  13.555 -0.2250  0.4654 -0.5716
  179DOPC  C31821999   7.063   4.187  13.697 -0.0410 -0.0579  0.7034
  179DOPC  H18X22000   7.101   4.270  13.760 -0.0561  0.3666  0.1545
  179DOPC  H18Y22001   7.040   4.102  13.765  1.1352  0.1425  1.3728
  179DOPC  H18Z22002   7.142   4.152  13.627 -1.6039  0.1067 -1.2362
  180DOPC     N22003   0.017   2.633  11.393 -0.2591 -0.3648 -0.0473
  180DOPC   C1222004  -0.004   2.666  11.251  0.0348 -0.4920  1.1636
  180DOPC  H12A22005   0.024   2.584  11.186  2.0962  1.5717 -0.7240
  180DOPC  H12B22006   0.057   2.746  11.213  0.1353 -0.8826  0.4834
  180DOPC   C1322007  -0.059   2.727  11.484  0.1703 -0.7422 -0.1467
  180DOPC  H13A22008  -0.048   2.832  11.460 -0.3795 -0.2352  1.6364
  180DOPC  H13B22009  -0.166   2.715  11.493  0.0452  0.7074  0.8117
  180DOPC  H13C22010  -0.019   2.720  11.584  0.8274  1.4728 -0.1810
  180DOPC   C1422011   0.165   2.652  11.426  0.0188 -0.3809 -0.2202
  180DOPC  H14A22012   0.197   2.755  11.421 -1.8321  0.2367 -0.1295
  180DOPC  H14B22013   0.181   2.615  11.526 -0.7905 -2.2431 -0.7236
  180DOPC  H14C22014   0.225   2.600  11.352  0.3150  2.1166 -1.8501
  180DOPC   C1522015  -0.015   2.489  11.417  0.9426 -0.2609 -0.9007
  180DOPC  H15A22016  -0.005   2.462  11.521 -1.4268  1.1457 -0.2330
  180DOPC  H15B22017   0.040   2.416  11.359  0.6511  0.2635 -1.8587
  180DOPC  H15C22018  -0.121   2.480  11.398  0.2974  2.9534  0.5694
  180DOPC   C1122019  -0.149   2.685  11.207  0.4832 -0.0663  0.4521
  180DOPC  H11A22020  -0.164   2.675  11.098 -1.5761 -1.1839  0.7823
  180DOPC  H11B22021  -0.215   2.609  11.255  0.1584  0.2953  0.5841
  180DOPC     P22022  -0.336   2.854  11.276  0.1193  0.2522 -0.5279
  180DOPC   O1322023  -0.414   2.781  11.175  0.5600 -0.1172 -0.7608
  180DOPC   O1422024  -0.355   3.000  11.276 -0.0733 -0.3204 -0.1278
  180DOPC   O1222025  -0.188   2.820  11.233 -0.2467 -0.2361 -0.0110
  180DOPC   O1122026  -0.357   2.794  11.426  1.1162 -0.5652 -0.1179
  180DOPC    C122027  -0.464   2.708  11.445  0.2547  0.0697  0.1278
  180DOPC    HA22028  -0.453   2.624  11.372  1.4152  1.6010 -1.5762
  180DOPC    HB22029  -0.555   2.763  11.412  1.5450  2.9285  1.0426
  180DOPC    C222030  -0.477   2.646  11.583 -0.1619  0.0941 -0.3313
  180DOPC    HS22031  -0.453   2.722  11.660  2.0705  1.1835 -1.9762
  180DOPC   O2122032  -0.387   2.541  11.599 -0.2700  0.1762 -0.4814
  180DOPC   C2122033  -0.345   2.509  11.725 -0.4229  0.4301  0.4754
  180DOPC   O2222034  -0.393   2.549  11.826  0.4904 -0.1746 -0.5607
  180DOPC   C2222035  -0.237   2.407  11.723  0.0925  0.2105 -0.1590
  180DOPC   H2R22036  -0.142   2.460  11.748  0.4036 -0.7099  0.6628
  180DOPC   H2S22037  -0.225   2.358  11.624 -0.4180 -0.6389  0.1889
  180DOPC    C322038  -0.625   2.595  11.609  0.5078 -0.0141  0.0560
  180DOPC    HX22039  -0.645   2.492  11.574 -1.3583  0.6255 -0.8504
  180DOPC    HY22040  -0.690   2.667  11.555  0.4456 -0.4302 -0.4290
  180DOPC   O3122041  -0.660   2.592  11.755 -0.1734 -0.2793 -0.1365
  180DOPC   C3122042  -0.674   2.710  11.818 -0.6979  0.1181 -0.5467
  180DOPC   O3222043  -0.651   2.819  11.768 -0.7784 -0.3021  0.4898
  180DOPC   C3222044  -0.708   2.670  11.960  0.6598  0.8623 -0.8463
  180DOPC   H2X22045  -0.807   2.620  11.956  0.6015  0.9587 -0.6034
  180DOPC   H2Y22046  -0.628   2.601  11.994  1.1179  1.7464 -0.0705
  180DOPC   C2322047  -0.253   2.302  11.839  0.0442 -1.2258  0.4118
  180DOPC   H3R22048  -0.354   2.257  11.844 -0.3444 -0.5039 -0.5878
  180DOPC   H3S22049  -0.248   2.360  11.933 -2.5771  0.7785 -0.5787
  180DOPC   C2422050  -0.140   2.196  11.852 -0.0299  0.2084  0.5640
  180DOPC   H4R22051  -0.037   2.234  11.862  0.1151 -0.1130  0.3075
  180DOPC   H4S22052  -0.136   2.146  11.752 -0.2980 -1.0935  1.1746
  180DOPC   C2522053  -0.176   2.093  11.953  0.1883  0.5897 -0.5367
  180DOPC   H5R22054  -0.102   2.010  11.953  0.5801  0.6927  3.9737
  180DOPC   H5S22055  -0.273   2.048  11.922  0.1472 -0.9106  1.5619
  180DOPC   C2622056  -0.190   2.132  12.103 -0.0175 -0.3162 -0.1373
  180DOPC   H6R22057  -0.221   2.038  12.154  0.9588 -0.2110  0.6729
  180DOPC   H6S22058  -0.275   2.203  12.107 -0.5433 -0.8441 -1.3790
  180DOPC   C2722059  -0.056   2.179  12.157  0.1219 -0.2016 -0.8565
  180DOPC   H7R22060  -0.036   2.283  12.122  0.4886 -0.1610 -0.5359
  180DOPC   H7S22061   0.025   2.123  12.105  0.2627 -1.1262  0.3399
  180DOPC   C2822062  -0.047   2.157  12.311  0.4719  0.0747  0.6968
  180DOPC   H8R22063  -0.145   2.189  12.353 -1.4343 -1.6408 -2.0430
  180DOPC   H8S22064   0.030   2.227  12.349 -2.8687  3.2866  2.2401
  180DOPC   C2922065  -0.018   2.020  12.347 -0.5145  0.1886  0.2870
  180DOPC   H9R22066   0.054   1.977  12.275  1.4611  2.3283  0.8744
  180DOPC  C21022067  -0.069   1.946  12.453  0.7499  0.0501  0.3300
  180DOPC  H10R22068  -0.046   1.839  12.462 -0.8688 -0.1593  3.2055
  180DOPC  C21122069  -0.162   2.007  12.558 -0.5036 -0.4338  0.2550
  180DOPC  H11R22070  -0.264   1.996  12.514 -0.2979 -1.3413 -0.0054
  180DOPC  H11S22071  -0.142   2.115  12.573 -1.4844 -0.0669 -0.8436
  180DOPC  C21222072  -0.182   1.917  12.683 -0.1604 -0.2517  0.3016
  180DOPC  H12R22073  -0.132   1.819  12.668 -0.6024 -0.7248  1.7405
  180DOPC  H12S22074  -0.291   1.901  12.697 -0.2013 -1.6487 -1.2194
  180DOPC  C21322075  -0.118   1.976  12.807 -0.3828 -0.1346 -0.1667
  180DOPC  H13R22076  -0.172   2.061  12.853  0.1015  0.0533  0.0628
  180DOPC  H13S22077  -0.023   2.016  12.766 -0.5634  3.3294  2.3830
  180DOPC  C21422078  -0.088   1.867  12.916 -0.0212  0.4303 -0.2243
  180DOPC  H14R22079  -0.005   1.910  12.977  1.3312 -0.7189 -1.1727
  180DOPC  H14S22080  -0.044   1.783  12.858 -0.6813 -0.6940  0.8829
  180DOPC  C21522081  -0.207   1.823  13.013 -0.4310 -0.1615  0.5323
  180DOPC  H15R22082  -0.268   1.756  12.948 -1.5600  1.3952 -0.0869
  180DOPC  H15S22083  -0.266   1.917  13.025  0.7436  0.7335 -0.4466
  180DOPC  C21622084  -0.189   1.764  13.145 -0.4281  0.4388 -0.5602
  180DOPC  H16R22085  -0.117   1.680  13.137  0.2085  0.9773 -0.4848
  180DOPC  H16S22086  -0.287   1.725  13.180  0.5051 -2.5676 -1.0252
  180DOPC  C21722087  -0.115   1.833  13.262 -0.8610 -0.3866  0.2236
  180DOPC  H17R22088  -0.172   1.921  13.301  1.9913  1.6288  0.1995
  180DOPC  H17S22089  -0.008   1.856  13.242 -0.5942 -1.2598  0.6157
  180DOPC  C21822090  -0.118   1.754  13.393 -0.3168  0.6287 -0.3587
  180DOPC  H18R22091  -0.076   1.653  13.374 -1.3583  0.0781  0.1969
  180DOPC  H18S22092  -0.220   1.735  13.432  0.1999 -1.4785  0.1250
  180DOPC  H18T22093  -0.056   1.807  13.469 -0.8294  0.4799  0.1680
  180DOPC   C3322094  -0.704   2.781  12.062 -0.1078  0.1274 -0.4853
  180DOPC   H3X22095  -0.774   2.864  12.037  1.0575  1.5838  0.8383
  180DOPC   H3Y22096  -0.603   2.827  12.051 -0.7173  1.5796 -0.3315
  180DOPC   C3422097  -0.733   2.719  12.200 -0.1895  0.6828  0.2113
  180DOPC   H4X22098  -0.662   2.639  12.230 -1.1056 -0.1557  0.1740
  180DOPC   H4Y22099  -0.829   2.664  12.202 -0.4502  1.1388  1.2020
  180DOPC   C3522100  -0.740   2.827  12.305 -0.2656 -0.1241  0.2803
  180DOPC   H5X22101  -0.789   2.912  12.252  0.3984 -1.0914 -2.0104
  180DOPC   H5Y22102  -0.638   2.852  12.339  0.5464 -0.0256 -2.0472
  180DOPC   C3622103  -0.815   2.779  12.435 -0.0435  0.0795  0.1866
  180DOPC   H6X22104  -0.855   2.876  12.472  0.6840  0.0924  0.9729
  180DOPC   H6Y22105  -0.903   2.716  12.409 -0.8615  0.9068  0.8912
  180DOPC   C3722106  -0.732   2.702  12.539  0.0736 -0.7994 -1.2132
  180DOPC   H7X22107  -0.708   2.598  12.509 -2.4805 -2.3428  1.5935
  180DOPC   H7Y22108  -0.634   2.751  12.561  0.3514 -2.0741  0.6089
  180DOPC   C3822109  -0.801   2.693  12.682  0.3339  0.2311  0.3600
  180DOPC   H8X22110  -0.732   2.635  12.746  0.5058  1.3540  1.2237
  180DOPC   H8Y22111  -0.899   2.643  12.664  1.0710 -0.2158 -3.1199
  180DOPC   C3922112  -0.807   2.827  12.744  0.5735  1.1125 -0.1454
  180DOPC   H9X22113  -0.894   2.885  12.708 -0.2911 -1.3357 -2.3496
  180DOPC  C31022114  -0.723   2.881  12.842  0.1062 -0.2927 -0.1831
  180DOPC  H10X22115  -0.762   2.972  12.891  0.0244  0.2990 -1.3247
  180DOPC  C31122116  -0.598   2.815  12.895 -0.8931  0.6455 -0.1775
  180DOPC  H11X22117  -0.517   2.887  12.922 -1.3986  1.0048  0.4122
  180DOPC  H11Y22118  -0.551   2.755  12.814 -0.7699 -1.1975  1.2190
  180DOPC  C31222119  -0.619   2.715  13.015  0.1368 -0.4530  0.1628
  180DOPC  H12X22120  -0.528   2.653  13.024  1.1611  0.8345 -0.9901
  180DOPC  H12Y22121  -0.689   2.639  12.974  2.5285 -1.9054 -1.4501
  180DOPC  C31322122  -0.655   2.785  13.149  0.2095  0.5774  0.1066
  180DOPC  H13X22123  -0.565   2.851  13.158 -0.3748  1.3516  0.3539
  180DOPC  H13Y22124  -0.742   2.850  13.128 -0.5346 -0.6317 -0.6396
  180DOPC  C31422125  -0.674   2.692  13.269  0.1889 -0.0308 -0.5807
  180DOPC  H14X22126  -0.752   2.725  13.342  1.3455 -0.1840  0.7760
  180DOPC  H14Y22127  -0.705   2.590  13.238 -1.9966  0.4388 -0.1238
  180DOPC  C31522128  -0.553   2.668  13.352 -0.5343  0.0775 -0.8916
  180DOPC  H15X22129  -0.517   2.761  13.400 -1.5093 -0.1763  0.4126
  180DOPC  H15Y22130  -0.479   2.621  13.284 -1.7176 -1.0706 -1.4256
  180DOPC  C31622131  -0.561   2.555  13.461 -0.2801 -0.0140 -0.2784
  180DOPC  H16X22132  -0.627   2.584  13.546 -0.2916  1.1822 -0.6874
  180DOPC  H16Y22133  -0.604   2.462  13.417 -0.5347  0.0754 -0.2189
  180DOPC  C31722134  -0.424   2.521  13.524 -0.3969 -0.2495 -0.8450
  180DOPC  H17X22135  -0.368   2.480  13.438 -0.7782  0.1140 -1.2721
  180DOPC  H17Y22136  -0.382   2.616  13.563  0.4596  0.1736 -2.6778
  180DOPC  C31822137  -0.445   2.413  13.630 -1.0266 -0.9348  0.5259
  180DOPC  H18X22138  -0.512   2.446  13.712 -0.7743  0.8596  0.0417
  180DOPC  H18Y22139  -0.490   2.320  13.587 -0.4828 -0.0999 -1.9836
  180DOPC  H18Z22140  -0.357   2.383  13.691  0.9701  3.4981  0.2143
  181DOPC     N22141   2.956   3.545  12.389  0.2953 -0.3190  0.4769
  181DOPC   C1222142   2.899   3.567  12.535  0.2652  0.5337  0.4630
  181DOPC  H12A22143   2.929   3.480  12.592  1.4806  0.9378  0.4499
  181DOPC  H12B22144   2.791   3.559  12.533  0.3520 -0.5807 -0.6831
  181DOPC   C1322145   2.926   3.657  12.292 -0.0340 -0.7572  0.1251
  181DOPC  H13A22146   2.956   3.751  12.335 -1.1139  0.3573 -1.4491
  181DOPC  H13B22147   2.969   3.635  12.195  1.9296 -1.0874  1.0237
  181DOPC  H13C22148   2.819   3.668  12.279  0.1512  1.1012 -0.0016
  181DOPC   C1422149   2.896   3.421  12.332  0.4956  0.1791 -0.1282
  181DOPC  H14A22150   2.941   3.392  12.238 -1.0839 -0.7377 -0.6468
  181DOPC  H14B22151   2.893   3.338  12.401 -2.7993 -0.9310 -1.3877
  181DOPC  H14C22152   2.791   3.440  12.313  0.4814  1.2666  0.9713
  181DOPC   C1522153   3.102   3.529  12.404 -1.3578 -0.8389  0.5329
  181DOPC  H15A22154   3.123   3.433  12.448 -0.4544 -0.3633  1.1902
  181DOPC  H15B22155   3.145   3.613  12.458  0.0175 -1.6587  0.7735
  181DOPC  H15C22156   3.143   3.528  12.304 -0.7701  0.1231  0.7463
  181DOPC   C1122157   2.944   3.690  12.614 -0.1203 -0.1216  0.5884
  181DOPC  H11A22158   2.934   3.778  12.547  3.1074  1.0186  1.4084
  181DOPC  H11B22159   2.875   3.711  12.699 -0.5143  0.6977  0.0808
  181DOPC     P22160   3.105   3.590  12.792 -0.1692 -0.2028  0.1036
  181DOPC   O1322161   3.248   3.596  12.828  0.3107 -0.3921  0.6345
  181DOPC   O1422162   3.048   3.457  12.785  0.1365  0.4381 -0.4435
  181DOPC   O1222163   3.079   3.672  12.659  0.0308 -0.3643 -0.1125
  181DOPC   O1122164   3.023   3.676  12.905  0.2689  0.3899  0.7156
  181DOPC    C122165   3.071   3.810  12.939 -0.1130 -0.4471  0.3404
  181DOPC    HA22166   3.031   3.885  12.867 -1.3850 -1.1578  0.2706
  181DOPC    HB22167   3.181   3.825  12.934 -0.0531 -1.1526 -0.6435
  181DOPC    C222168   3.034   3.847  13.087 -0.0932  0.3191  0.0227
  181DOPC    HS22169   3.073   3.948  13.113  1.2464 -0.4696  1.2423
  181DOPC   O2122170   3.082   3.745  13.176  0.0219  0.6012  0.3771
  181DOPC   C2122171   3.215   3.745  13.199  0.2806  0.1305  0.8198
  181DOPC   O2222172   3.289   3.836  13.167  0.1707  0.1948 -0.0254
  181DOPC   C2222173   3.252   3.615  13.270 -0.5066  0.0331  0.2054
  181DOPC   H2R22174   3.350   3.586  13.226  0.9100  1.9124  1.9641
  181DOPC   H2S22175   3.185   3.529  13.245  1.5519 -1.7464  0.5343
  181DOPC    C322176   2.874   3.865  13.089 -0.4680  0.6442 -0.0419
  181DOPC    HX22177   2.825   3.782  13.034 -0.7039  0.0969  0.9584
  181DOPC    HY22178   2.862   3.965  13.043  0.7982  1.2831  0.9551
  181DOPC   O3122179   2.824   3.873  13.221  0.2353 -0.2079 -0.4621
  181DOPC   C3122180   2.804   3.763  13.282  0.9871  0.3936  0.2481
  181DOPC   O3222181   2.827   3.652  13.232 -0.2347  0.4596 -0.3951
  181DOPC   C3222182   2.747   3.776  13.420  0.2648  0.1947 -0.7416
  181DOPC   H2X22183   2.837   3.779  13.485  1.1626 -1.6476 -1.8149
  181DOPC   H2Y22184   2.683   3.867  13.422  1.2861  0.9112  0.1713
  181DOPC   C2322185   3.252   3.630  13.422  0.1649  0.8450  1.0457
  181DOPC   H3R22186   3.312   3.720  13.447  2.6983 -0.3183 -0.5343
  181DOPC   H3S22187   3.304   3.546  13.472 -0.3192  0.1178  0.3503
  181DOPC   C2422188   3.109   3.640  13.477  0.2421 -0.3072 -0.1973
  181DOPC   H4R22189   3.062   3.543  13.449 -1.9181  0.3834  0.8295
  181DOPC   H4S22190   3.055   3.726  13.432 -1.9738 -2.0037 -1.0356
  181DOPC   C2522191   3.103   3.648  13.632 -0.2208 -0.2488  0.1367
  181DOPC   H5R22192   2.997   3.663  13.660 -0.7038 -0.1550 -1.6263
  181DOPC   H5S22193   3.163   3.730  13.678 -1.2903  1.0404 -0.7021
  181DOPC   C2622194   3.152   3.520  13.699 -0.4020 -0.1273 -0.7310
  181DOPC   H6R22195   3.259   3.494  13.686 -0.2109 -1.3130  2.3187
  181DOPC   H6S22196   3.095   3.438  13.651  0.8829 -0.2525 -2.1046
  181DOPC   C2722197   3.111   3.513  13.854  0.4030  0.1286  0.6052
  181DOPC   H7R22198   3.002   3.531  13.857  0.1269 -1.4353  1.1937
  181DOPC   H7S22199   3.156   3.593  13.917 -0.1883  0.2179  0.9206
  181DOPC   C2822200   3.147   3.377  13.918 -0.4306 -0.0909 -0.8553
  181DOPC   H8R22201   3.123   3.387  14.026 -2.9288 -1.4924 -1.1918
  181DOPC   H8S22202   3.254   3.372  13.891 -0.2808  1.1474 -0.5324
  181DOPC   C2922203   3.060   3.271  13.860 -0.5818  0.0765 -0.6315
  181DOPC   H9R22204   3.038   3.264  13.752  0.3460 -2.6981 -0.7316
  181DOPC  C21022205   3.000   3.175  13.932 -0.7550 -0.2614 -0.5236
  181DOPC  H10R22206   2.939   3.100  13.881 -1.8562 -0.4249  0.9575
  181DOPC  C21122207   3.019   3.140  14.075 -0.2911 -0.2453 -1.0397
  181DOPC  H11R22208   3.090   3.212  14.121 -1.5234  0.7369 -0.5849
  181DOPC  H11S22209   3.043   3.033  14.093 -0.8470 -0.0244  1.4720
  181DOPC  C21222210   2.879   3.155  14.147 -0.4950  0.1026  0.1201
  181DOPC  H12R22211   2.902   3.112  14.248 -2.2359 -0.3783  0.3390
  181DOPC  H12S22212   2.801   3.084  14.113 -0.1207 -0.1897 -0.1476
  181DOPC  C21322213   2.825   3.299  14.142  0.0771 -0.0822  0.1267
  181DOPC  H13R22214   2.816   3.325  14.034  0.4185  0.2961  0.1867
  181DOPC  H13S22215   2.907   3.364  14.180  0.7662 -0.6644 -0.3425
  181DOPC  C21422216   2.701   3.315  14.228  0.6768 -0.8269 -0.7240
  181DOPC  H14R22217   2.730   3.307  14.335 -0.7090  1.3413 -0.1262
  181DOPC  H14S22218   2.621   3.242  14.203  0.8774 -0.5640 -2.2310
  181DOPC  C21522219   2.635   3.454  14.210  0.1864  0.1802 -0.5298
  181DOPC  H15R22220   2.707   3.531  14.245  0.7420 -0.7114  0.3450
  181DOPC  H15S22221   2.547   3.462  14.277 -0.6581  0.7636 -1.6570
  181DOPC  C21622222   2.607   3.484  14.063  0.8746 -0.0404  0.5683
  181DOPC  H16R22223   2.562   3.396  14.011  0.0120  0.5613  0.2692
  181DOPC  H16S22224   2.700   3.510  14.009  0.1529  2.5032  0.4446
  181DOPC  C21722225   2.510   3.602  14.046 -0.5486 -0.2662 -0.3723
  181DOPC  H17R22226   2.570   3.695  14.048 -0.3970 -0.3740  0.2398
  181DOPC  H17S22227   2.441   3.611  14.133  0.9431 -0.5243  0.8629
  181DOPC  C21822228   2.441   3.608  13.906 -0.2218  0.9484 -0.3936
  181DOPC  H18R22229   2.359   3.680  13.882 -1.0597  0.4749  0.9032
  181DOPC  H18S22230   2.384   3.513  13.894  1.3671  0.0278 -0.9132
  181DOPC  H18T22231   2.510   3.608  13.819 -1.1376 -2.9245 -1.3101
  181DOPC   C3322232   2.659   3.651  13.471 -0.4037 -0.0345 -0.2086
  181DOPC   H3X22233   2.572   3.625  13.407 -1.5888  0.7620  1.0317
  181DOPC   H3Y22234   2.607   3.687  13.562  0.1793  1.2180 -0.3538
  181DOPC   C3422235   2.737   3.524  13.509  0.0830 -0.1702  0.0534
  181DOPC   H4X22236   2.806   3.553  13.590 -0.0473 -0.5508  0.3019
  181DOPC   H4Y22237   2.804   3.495  13.425 -0.8606 -1.1710 -0.3802
  181DOPC   C3522238   2.646   3.412  13.568 -0.9030  0.1076  0.2650
  181DOPC   H5X22239   2.576   3.383  13.486 -0.9339 -2.1314  1.0285
  181DOPC   H5Y22240   2.594   3.456  13.656 -1.5554 -0.6361  0.2656
  181DOPC   C3622241   2.741   3.301  13.607  0.4824 -1.0781 -0.1699
  181DOPC   H6X22242   2.798   3.263  13.520  1.3545  2.3941 -1.2669
  181DOPC   H6Y22243   2.819   3.338  13.678  1.7999 -2.6756 -0.7016
  181DOPC   C3722244   2.668   3.188  13.668  0.4578  0.1349  0.2434
  181DOPC   H7X22245   2.753   3.118  13.687  0.9164  0.2253 -1.2629
  181DOPC   H7Y22246   2.608   3.200  13.760 -0.9759 -1.2908 -0.4462
  181DOPC   C3822247   2.562   3.118  13.580  0.3643  0.0152 -0.2567
  181DOPC   H8X22248   2.586   3.130  13.472 -1.6861 -2.3363 -1.0670
  181DOPC   H8Y22249   2.465   3.172  13.573 -0.7180 -1.3216  2.6056
  181DOPC   C3922250   2.539   2.974  13.594  0.8210  0.5132  0.5548
  181DOPC   H9X22251   2.513   2.924  13.499  1.5758  0.1518  0.5223
  181DOPC  C31022252   2.575   2.883  13.695  0.6187 -0.0841  0.3807
  181DOPC  H10X22253   2.547   2.777  13.683 -1.0088  0.5160 -1.5564
  181DOPC  C31122254   2.631   2.925  13.828 -0.8629  0.6219 -0.2830
  181DOPC  H11X22255   2.580   3.009  13.879  0.4253  0.0460  2.1431
  181DOPC  H11Y22256   2.740   2.949  13.825 -0.6083 -0.3604  0.5088
  181DOPC  C31222257   2.615   2.805  13.928  0.5522  0.3146  0.7521
  181DOPC  H12X22258   2.665   2.715  13.886  2.0884  1.8722 -0.9658
  181DOPC  H12Y22259   2.508   2.781  13.944  0.5488  1.2310  2.3645
  181DOPC  C31322260   2.675   2.843  14.057 -0.3632 -0.4637 -0.6065
  181DOPC  H13X22261   2.767   2.903  14.041 -1.0349  1.2719  1.6538
  181DOPC  H13Y22262   2.614   2.910  14.121 -1.3677 -1.0052 -0.9615
  181DOPC  C31422263   2.699   2.709  14.139  0.0455  0.2825 -1.1502
  181DOPC  H14X22264   2.607   2.648  14.149  0.8551 -0.5678  2.2742
  181DOPC  H14Y22265   2.777   2.644  14.094  0.0075 -1.5993  1.3249
  181DOPC  C31522266   2.752   2.733  14.281 -0.0334  0.9686  0.4314
  181DOPC  H15X22267   2.846   2.792  14.267 -0.4085  1.8631  1.5489
  181DOPC  H15Y22268   2.767   2.641  14.341  0.7566 -0.3328 -1.6526
  181DOPC  C31622269   2.652   2.816  14.365 -0.0264 -0.5290  0.4573
  181DOPC  H16X22270   2.611   2.912  14.326 -1.8826 -1.1657  0.7351
  181DOPC  H16Y22271   2.568   2.747  14.390  0.6332 -1.1111  1.0904
  181DOPC  C31722272   2.709   2.853  14.506 -0.0313  0.0124  0.1084
  181DOPC  H17X22273   2.748   2.766  14.562 -1.2456  0.3901  1.5842
  181DOPC  H17Y22274   2.797   2.918  14.485  0.1938 -0.4911 -0.5806
  181DOPC  C31822275   2.602   2.926  14.597 -0.4223 -0.5272  0.2887
  181DOPC  H18X22276   2.507   2.870  14.607 -1.6079  1.1864 -0.8963
  181DOPC  H18Y22277   2.651   2.953  14.693 -0.0386  0.0276 -0.0555
  181DOPC  H18Z22278   2.562   3.021  14.557 -0.5080 -0.9766 -0.7279
  182DOPC     N22279   1.816   0.658  11.133  0.1305  0.0336 -0.2166
  182DOPC   C1222280   1.757   0.685  10.997 -0.1413  0.7950  1.1161
  182DOPC  H12A22281   1.805   0.620  10.926 -1.0620 -1.0566  2.1266
  182DOPC  H12B22282   1.783   0.784  10.962 -0.4980  0.3581 -0.4462
  182DOPC   C1322283   1.970   0.686  11.138  0.9225  0.0406  0.2808
  182DOPC  H13A22284   1.998   0.710  11.239  1.3945  0.2982  0.0894
  182DOPC  H13B22285   2.020   0.597  11.101 -1.7383 -2.4230  2.1112
  182DOPC  H13C22286   2.008   0.773  11.088  1.5538 -0.0828  0.5390
  182DOPC   C1422287   1.807   0.520  11.173 -0.8360  0.5929 -0.5250
  182DOPC  H14A22288   1.865   0.503  11.263 -1.5204 -1.1549 -0.3810
  182DOPC  H14B22289   1.707   0.486  11.193 -0.0191 -0.2583  2.7503
  182DOPC  H14C22290   1.848   0.451  11.100 -0.2070  0.7704 -0.3513
  182DOPC   C1522291   1.760   0.736  11.245  0.5103 -0.1956  0.1221
  182DOPC  H15A22292   1.821   0.729  11.333 -2.3362 -1.0672  2.1857
  182DOPC  H15B22293   1.659   0.707  11.273 -0.0694  0.0128 -1.6146
  182DOPC  H15C22294   1.730   0.830  11.201 -1.2102 -0.7454  0.0250
  182DOPC   C1122295   1.599   0.686  10.982 -0.2412  0.2655 -0.0064
  182DOPC  H11A22296   1.571   0.786  11.021  0.1032 -0.0964  1.1887
  182DOPC  H11B22297   1.578   0.693  10.873 -3.0858 -0.2015  0.4428
  182DOPC     P22298   1.399   0.622  11.122 -0.0676 -0.3517 -0.2047
  182DOPC   O1322299   1.303   0.508  11.129 -0.2782 -0.3671 -0.1718
  182DOPC   O1422300   1.346   0.742  11.056 -0.1428 -0.5457 -0.3445
  182DOPC   O1222301   1.525   0.575  11.040 -0.2592 -0.6957 -0.3905
  182DOPC   O1122302   1.457   0.657  11.258  0.2773  0.3980 -0.2273
  182DOPC    C122303   1.439   0.567  11.372 -0.0870 -0.4451  0.2770
  182DOPC    HA22304   1.535   0.515  11.394  1.5352  2.4862  0.7623
  182DOPC    HB22305   1.362   0.488  11.360 -0.3368  0.0889 -1.9942
  182DOPC    C222306   1.402   0.642  11.495 -0.1853 -0.3241 -0.6263
  182DOPC    HS22307   1.367   0.567  11.569 -0.3552  0.7908  0.4555
  182DOPC   O2122308   1.298   0.744  11.478 -0.2328 -0.0916  0.0088
  182DOPC   C2122309   1.179   0.710  11.424 -0.6809 -0.4869  0.0374
  182DOPC   O2222310   1.148   0.596  11.392  0.1958 -0.2771  0.0979
  182DOPC   C2222311   1.095   0.830  11.408 -0.5687 -0.9644  0.4039
  182DOPC   H2R22312   1.103   0.866  11.303  1.0024 -0.2260  0.7342
  182DOPC   H2S22313   1.139   0.913  11.468 -0.2068 -1.4475  0.8094
  182DOPC    C322314   1.531   0.702  11.565  0.4175 -0.3384  1.4351
  182DOPC    HX22315   1.530   0.809  11.535 -2.2180 -1.0871 -1.7075
  182DOPC    HY22316   1.622   0.652  11.524 -0.9232 -0.4407 -1.6982
  182DOPC   O3122317   1.512   0.705  11.709 -0.4575  0.7758  0.0074
  182DOPC   C3122318   1.535   0.591  11.767  1.0090 -0.0169 -0.4982
  182DOPC   O3222319   1.565   0.486  11.716  0.1211 -0.1581  0.3163
  182DOPC   C3222320   1.517   0.603  11.922 -0.0318  0.1282 -0.3000
  182DOPC   H2X22321   1.562   0.704  11.937 -0.6641  0.5272 -1.0320
  182DOPC   H2Y22322   1.408   0.613  11.936  0.1119  0.0743  0.9848
  182DOPC   C2322323   0.946   0.816  11.453  0.1136  0.3629 -0.1472
  182DOPC   H3R22324   0.905   0.723  11.407 -0.5365  0.3268  0.4840
  182DOPC   H3S22325   0.894   0.904  11.410  1.0919  0.9501 -0.1406
  182DOPC   C2422326   0.931   0.821  11.605 -0.9152  0.5263 -0.0518
  182DOPC   H4R22327   0.831   0.860  11.636 -0.3702  1.9119  0.0548
  182DOPC   H4S22328   1.007   0.898  11.630 -1.2416  0.2768  1.8740
  182DOPC   C2522329   0.973   0.689  11.676 -0.5615  0.2045 -0.9281
  182DOPC   H5R22330   1.082   0.680  11.656 -0.8265  0.8773 -2.9970
  182DOPC   H5S22331   0.917   0.603  11.634 -0.3369 -0.6975  0.5607
  182DOPC   C2622332   0.954   0.689  11.830  0.2048 -0.2782  0.7185
  182DOPC   H6R22333   0.923   0.590  11.868 -0.5603 -1.2155 -2.1021
  182DOPC   H6S22334   0.873   0.763  11.847  0.4002  0.0887  0.0754
  182DOPC   C2722335   1.080   0.728  11.912  0.3102 -0.1722  0.2749
  182DOPC   H7R22336   1.150   0.804  11.873  0.7547  0.8431  2.8507
  182DOPC   H7S22337   1.148   0.641  11.912  2.3683  1.3622 -1.0966
  182DOPC   C2822338   1.044   0.767  12.054  0.2901  0.1288  0.0554
  182DOPC   H8R22339   0.965   0.844  12.052 -1.4224 -1.5613 -1.2083
  182DOPC   H8S22340   1.125   0.826  12.103 -0.1150  0.1588  0.7082
  182DOPC   C2922341   1.006   0.639  12.132 -0.2150  0.0546 -0.3879
  182DOPC   H9R22342   1.013   0.547  12.072 -2.3833 -0.3435 -0.1213
  182DOPC  C21022343   0.929   0.623  12.238 -0.2940 -0.7290 -0.6285
  182DOPC  H10R22344   0.914   0.520  12.273 -1.2837 -0.7267 -1.0258
  182DOPC  C21122345   0.882   0.730  12.332  0.1607 -0.1225 -1.1163
  182DOPC  H11R22346   0.771   0.727  12.331  0.1646 -1.2809 -0.2989
  182DOPC  H11S22347   0.919   0.832  12.308 -0.1978  0.0521 -0.9292
  182DOPC  C21222348   0.911   0.708  12.486 -0.3963  0.1288 -0.1600
  182DOPC  H12R22349   1.021   0.719  12.497 -0.2917  0.9723 -1.7800
  182DOPC  H12S22350   0.872   0.610  12.520 -0.9625  0.9721  1.7605
  182DOPC  C21322351   0.866   0.823  12.581  0.4381  0.8566 -0.4806
  182DOPC  H13R22352   0.757   0.814  12.601  0.5597 -1.9487 -0.6346
  182DOPC  H13S22353   0.903   0.913  12.529  1.5155  0.3095 -0.6903
  182DOPC  C21422354   0.944   0.814  12.709  0.1509 -0.2767 -0.1923
  182DOPC  H14R22355   1.042   0.864  12.690 -0.4996  0.5075 -1.5970
  182DOPC  H14S22356   0.977   0.710  12.733 -1.3165  0.0737  4.4807
  182DOPC  C21522357   0.872   0.868  12.831 -0.1754  0.1911 -0.1078
  182DOPC  H15R22358   0.785   0.799  12.831 -1.1221  1.1614 -4.0689
  182DOPC  H15S22359   0.831   0.971  12.819 -1.3296 -0.0866  1.1511
  182DOPC  C21622360   0.941   0.857  12.965  0.7896 -0.1053 -0.4319
  182DOPC  H16R22361   1.037   0.913  12.963  0.6433  0.1854  0.3715
  182DOPC  H16S22362   0.963   0.748  12.961  1.1515 -0.0221 -0.7999
  182DOPC  C21722363   0.872   0.874  13.103  0.2335 -0.3913  0.1549
  182DOPC  H17R22364   0.783   0.808  13.101  0.4918 -0.7356 -0.3792
  182DOPC  H17S22365   0.844   0.981  13.113 -0.3236 -0.6456  1.5546
  182DOPC  C21822366   0.965   0.833  13.212  0.7608  0.0791 -0.3267
  182DOPC  H18R22367   1.061   0.888  13.199  0.8819 -0.1120 -0.2479
  182DOPC  H18S22368   0.962   0.723  13.220 -1.5833  0.1916  1.8270
  182DOPC  H18T22369   0.922   0.884  13.302 -0.6801 -0.5638 -0.6273
  182DOPC   C3322370   1.590   0.510  12.009 -0.3825  0.4359 -0.6371
  182DOPC   H3X22371   1.575   0.406  11.971 -0.1134 -0.2795  1.0966
  182DOPC   H3Y22372   1.552   0.535  12.111 -0.2598  1.9677 -0.9438
  182DOPC   C3422373   1.742   0.531  12.008 -1.0327  0.1735 -0.6124
  182DOPC   H4X22374   1.756   0.641  12.017  0.3632  0.3474 -3.6427
  182DOPC   H4Y22375   1.784   0.508  11.908  0.8709  2.4789 -0.4206
  182DOPC   C3522376   1.808   0.454  12.126  0.1434  0.2897  0.3552
  182DOPC   H5X22377   1.917   0.452  12.104  0.0756 -0.4190  0.0562
  182DOPC   H5Y22378   1.780   0.347  12.111  0.8748 -0.2411  2.4240
  182DOPC   C3622379   1.798   0.509  12.269 -0.0393  0.3822 -0.4564
  182DOPC   H6X22380   1.693   0.511  12.306  0.5016  1.6103  1.1292
  182DOPC   H6Y22381   1.856   0.441  12.334  2.1397  1.8221 -0.7633
  182DOPC   C3722382   1.851   0.651  12.279 -0.1244 -0.6891  0.0722
  182DOPC   H7X22383   1.928   0.661  12.199 -2.9717  1.1962 -2.6710
  182DOPC   H7Y22384   1.770   0.720  12.247 -0.8110 -1.1897  0.6974
  182DOPC   C3822385   1.888   0.685  12.420 -0.2316  0.2265  0.3937
  182DOPC   H8X22386   1.796   0.668  12.480 -0.8415 -0.2345 -0.6435
  182DOPC   H8Y22387   1.925   0.789  12.411 -0.5301  0.2180 -1.2026
  182DOPC   C3922388   2.001   0.614  12.495  0.2356 -0.1159  0.1849
  182DOPC   H9X22389   2.088   0.600  12.429  0.5669  0.4556  0.4943
  182DOPC  C31022390   1.996   0.560  12.619 -0.3173  0.6268  0.3471
  182DOPC  H10X22391   2.081   0.503  12.658 -0.6647  0.1812  0.4643
  182DOPC  C31122392   1.884   0.576  12.723  0.0700 -0.0487 -0.0592
  182DOPC  H11X22393   1.821   0.486  12.737  0.9330 -0.5363  0.8266
  182DOPC  H11Y22394   1.820   0.665  12.708  0.2669  0.1469  0.2429
  182DOPC  C31222395   1.946   0.597  12.862  0.1123  0.5399 -0.1219
  182DOPC  H12X22396   2.012   0.686  12.865 -0.9053  1.4373 -2.2421
  182DOPC  H12Y22397   2.010   0.510  12.888  0.8828  0.5149 -1.9620
  182DOPC  C31322398   1.846   0.629  12.973  0.0135  0.9816  0.0363
  182DOPC  H13X22399   1.802   0.728  12.948 -0.6113  0.9079  0.8226
  182DOPC  H13Y22400   1.761   0.560  12.989 -0.5165  1.6632  0.2177
  182DOPC  C31422401   1.914   0.635  13.110 -0.4491 -0.2907 -0.7173
  182DOPC  H14X22402   1.972   0.541  13.120 -1.4253 -0.8148  0.3523
  182DOPC  H14Y22403   1.980   0.724  13.114 -1.6201  0.6218 -1.0994
  182DOPC  C31522404   1.807   0.654  13.219  0.3306 -0.0377 -0.5273
  182DOPC  H15X22405   1.726   0.579  13.206 -0.0936  0.1524  0.8196
  182DOPC  H15Y22406   1.754   0.752  13.212  1.8522  0.8601  0.1037
  182DOPC  C31622407   1.860   0.642  13.362 -0.0302 -0.1761 -1.1220
  182DOPC  H16X22408   1.790   0.592  13.433  1.6959 -1.7633 -0.4439
  182DOPC  H16Y22409   1.943   0.571  13.378  1.3991  2.1713  3.7378
  182DOPC  C31722410   1.903   0.779  13.417  0.3577  0.0001 -0.1183
  182DOPC  H17X22411   1.993   0.816  13.365  0.5073 -0.5200 -0.2401
  182DOPC  H17Y22412   1.815   0.844  13.397 -0.1976 -0.9946 -1.0650
  182DOPC  C31822413   1.928   0.775  13.572  0.2124 -0.0878  0.2368
  182DOPC  H18X22414   1.848   0.726  13.631  0.4875 -1.1666 -0.2504
  182DOPC  H18Y22415   2.014   0.707  13.592  2.6558  2.6874 -0.2129
  182DOPC  H18Z22416   1.960   0.875  13.607  0.9389 -0.3700  0.3989
  183DOPC     N22417   0.714   2.388  11.486 -0.1981 -0.0636 -0.4946
  183DOPC   C1222418   0.603   2.360  11.593  0.3678  0.2521  0.1386
  183DOPC  H12A22419   0.593   2.253  11.609  1.2996  0.4489  2.3613
  183DOPC  H12B22420   0.508   2.389  11.552  0.8664 -0.2340 -1.4545
  183DOPC   C1322421   0.857   2.345  11.537 -0.3584 -0.2263  0.0034
  183DOPC  H13A22422   0.872   2.238  11.537  1.4449 -0.0188  1.7772
  183DOPC  H13B22423   0.934   2.372  11.466  0.8533 -0.1323  1.3294
  183DOPC  H13C22424   0.888   2.387  11.631 -0.7839  0.0185  0.0390
  183DOPC   C1422425   0.726   2.537  11.454 -0.2280 -1.1440 -0.4929
  183DOPC  H14A22426   0.746   2.602  11.538  2.0778 -0.9242 -1.1506
  183DOPC  H14B22427   0.800   2.567  11.381  0.9831 -0.0237  1.1301
  183DOPC  H14C22428   0.630   2.570  11.416  0.2407  1.4628  0.3533
  183DOPC   C1522429   0.694   2.308  11.358  0.1462 -0.2082 -0.2002
  183DOPC  H15A22430   0.702   2.203  11.384 -1.5728  0.0219  1.4165
  183DOPC  H15B22431   0.770   2.329  11.284  0.6824 -0.7175  0.1938
  183DOPC  H15C22432   0.592   2.335  11.332 -0.4333  1.8278  3.5978
  183DOPC   C1122433   0.611   2.433  11.726  0.0947 -0.4068 -0.6776
  183DOPC  H11A22434   0.542   2.393  11.803  2.3966 -0.2050  1.6225
  183DOPC  H11B22435   0.710   2.407  11.771 -0.3365 -2.5540 -0.8497
  183DOPC     P22436   0.454   2.632  11.658 -0.0518 -0.3064 -0.0732
  183DOPC   O1322437   0.407   2.546  11.547  0.2893 -0.1994 -0.3541
  183DOPC   O1422438   0.499   2.766  11.619 -0.8013 -0.0353 -0.2823
  183DOPC   O1222439   0.585   2.566  11.709  0.0740  0.0373 -0.1187
  183DOPC   O1122440   0.340   2.635  11.773  0.4555  0.6441  0.1471
  183DOPC    C122441   0.350   2.713  11.896 -1.0317 -0.3635  0.7639
  183DOPC    HA22442   0.248   2.741  11.931 -1.4040  0.5546 -0.9656
  183DOPC    HB22443   0.412   2.803  11.875  1.4320 -1.7964  1.5330
  183DOPC    C222444   0.420   2.639  12.015  0.2199 -0.7567 -0.2396
  183DOPC    HS22445   0.523   2.605  11.991  0.0343 -1.0735 -0.6003
  183DOPC   O2122446   0.341   2.523  12.055 -0.3452  0.2999  0.6161
  183DOPC   C2122447   0.393   2.440  12.134 -0.2451 -0.4314  0.0475
  183DOPC   O2222448   0.502   2.442  12.187 -0.0773 -0.0456 -0.0123
  183DOPC   C2222449   0.280   2.337  12.144  0.4340  0.1482  0.2151
  183DOPC   H2R22450   0.261   2.302  12.041  3.7071  0.3979 -0.5642
  183DOPC   H2S22451   0.186   2.387  12.176 -0.2667  0.5201 -2.2624
  183DOPC    C322452   0.430   2.742  12.130 -0.3385 -0.6991  0.5638
  183DOPC    HX22453   0.510   2.811  12.096 -1.1010  0.3619  0.9027
  183DOPC    HY22454   0.473   2.696  12.222  1.3089  0.3036  0.3335
  183DOPC   O3122455   0.309   2.801  12.176 -0.3012 -0.2195  0.0753
  183DOPC   C3122456   0.319   2.935  12.199  0.1216 -0.6840  0.4585
  183DOPC   O3222457   0.403   3.012  12.157  0.4699  0.0300 -0.3499
  183DOPC   C3222458   0.199   2.978  12.275 -0.0098 -0.0948  0.0667
  183DOPC   H2X22459   0.110   2.919  12.245  0.1088  0.7590 -2.2037
  183DOPC   H2Y22460   0.216   2.958  12.383  0.4475  1.9577  0.4060
  183DOPC   C2322461   0.320   2.215  12.240  0.6501 -0.4358 -0.1575
  183DOPC   H3R22462   0.423   2.185  12.211  0.7473  1.7709 -2.4588
  183DOPC   H3S22463   0.256   2.128  12.214  1.9519 -1.4378 -0.1413
  183DOPC   C2422464   0.313   2.256  12.389  0.0270  0.3281 -0.1722
  183DOPC   H4R22465   0.213   2.297  12.416 -0.7890 -1.3562 -0.5232
  183DOPC   H4S22466   0.389   2.336  12.404  2.5177 -1.4639 -2.2872
  183DOPC   C2522467   0.347   2.145  12.487 -0.3178 -0.1678 -0.5226
  183DOPC   H5R22468   0.431   2.091  12.438  0.3837  1.1664 -0.8488
  183DOPC   H5S22469   0.265   2.072  12.503 -1.8484  1.2783 -1.4181
  183DOPC   C2622470   0.391   2.200  12.625  0.1543 -1.0730 -0.0808
  183DOPC   H6R22471   0.309   2.272  12.642 -0.8243 -2.5646  1.9681
  183DOPC   H6S22472   0.485   2.260  12.629 -0.6218  0.1000  1.1248
  183DOPC   C2722473   0.404   2.095  12.744 -0.0184 -0.7757  0.4734
  183DOPC   H7R22474   0.503   2.049  12.727  1.0279  0.9956  1.3957
  183DOPC   H7S22475   0.329   2.014  12.746 -0.7123 -0.2317 -1.5714
  183DOPC   C2822476   0.415   2.166  12.886  0.2882 -0.2704 -0.0139
  183DOPC   H8R22477   0.491   2.247  12.879 -1.0060  0.8869 -1.6184
  183DOPC   H8S22478   0.464   2.092  12.952  0.8477 -1.0354 -1.2658
  183DOPC   C2922479   0.288   2.209  12.957 -0.1527  0.3575  1.0434
  183DOPC   H9R22480   0.253   2.309  12.927 -0.1386 -0.1131 -0.6408
  183DOPC  C21022481   0.220   2.126  13.043 -0.3490 -0.5814  0.0297
  183DOPC  H10R22482   0.130   2.162  13.094  0.1384  0.8709 -0.0778
  183DOPC  C21122483   0.250   1.989  13.091 -0.0866  0.0991 -0.2494
  183DOPC  H11R22484   0.352   1.964  13.054 -0.4476 -0.4075 -0.9138
  183DOPC  H11S22485   0.190   1.905  13.051  1.9307 -0.8484 -1.4758
  183DOPC  C21222486   0.247   1.978  13.247 -0.7497  0.2950  1.0108
  183DOPC  H12R22487   0.145   2.011  13.277 -0.8713 -0.9362  2.0380
  183DOPC  H12S22488   0.320   2.041  13.303  0.3915 -1.2719  1.3405
  183DOPC  C21322489   0.258   1.834  13.295 -0.5493 -0.4265  0.4826
  183DOPC  H13R22490   0.362   1.807  13.269  0.2713  2.3905  0.4533
  183DOPC  H13S22491   0.184   1.763  13.252  0.5688 -0.9421 -0.6480
  183DOPC  C21422492   0.264   1.821  13.453  0.1009  0.2171 -0.2486
  183DOPC  H14R22493   0.172   1.862  13.500 -0.0334  0.5406 -0.7952
  183DOPC  H14S22494   0.350   1.878  13.494 -0.2898  0.6048  0.0422
  183DOPC  C21522495   0.277   1.670  13.495 -0.6017 -0.1173  0.0144
  183DOPC  H15R22496   0.373   1.629  13.458 -1.0016 -1.2780  0.2375
  183DOPC  H15S22497   0.203   1.611  13.438 -0.6670 -0.7625  0.7517
  183DOPC  C21622498   0.273   1.638  13.643 -0.3126  1.1190  0.3326
  183DOPC  H16R22499   0.269   1.531  13.671 -0.2118  1.2955  1.0615
  183DOPC  H16S22500   0.193   1.688  13.702  1.9877  0.1842  4.7043
  183DOPC  C21722501   0.400   1.678  13.718  0.2828 -0.5011 -0.7083
  183DOPC  H17R22502   0.377   1.680  13.827 -0.4081  0.2768 -0.8565
  183DOPC  H17S22503   0.416   1.786  13.699 -0.8439 -0.2385 -0.2775
  183DOPC  C21822504   0.525   1.594  13.691 -0.4306 -0.0417 -0.3442
  183DOPC  H18R22505   0.559   1.607  13.586  1.3757  3.1830  0.5461
  183DOPC  H18S22506   0.509   1.490  13.727 -0.5584  0.1728  0.2321
  183DOPC  H18T22507   0.610   1.631  13.751  0.9096 -1.2352 -1.4429
  183DOPC   C3322508   0.162   3.132  12.257  0.2062  0.3962  0.4973
  183DOPC   H3X22509   0.108   3.141  12.161  2.4547  0.8173 -0.7888
  183DOPC   H3Y22510   0.251   3.196  12.239 -0.3677  0.6960 -1.5109
  183DOPC   C3422511   0.085   3.187  12.367 -0.4203  0.5940 -0.1453
  183DOPC   H4X22512   0.058   3.294  12.366  0.2658  0.7966  0.9161
  183DOPC   H4Y22513   0.146   3.174  12.459 -2.1664 -0.4293  0.9244
  183DOPC   C3522514  -0.045   3.103  12.391 -0.2073 -0.3501  0.1076
  183DOPC   H5X22515  -0.047   3.001  12.348 -2.1592 -0.2198 -0.1681
  183DOPC   H5Y22516  -0.125   3.152  12.332 -2.9482 -1.0433  3.0061
  183DOPC   C3622517  -0.078   3.092  12.537  0.4916  0.3323 -0.6117
  183DOPC   H6X22518  -0.091   3.188  12.593  1.2398 -0.1528  0.4214
  183DOPC   H6Y22519  -0.177   3.042  12.527  0.6767 -1.0988  3.1534
  183DOPC   C3722520   0.023   3.004  12.614 -0.1152  0.7306 -0.1209
  183DOPC   H7X22521   0.044   2.914  12.554 -0.9361  0.7384 -0.4253
  183DOPC   H7Y22522   0.120   3.059  12.621  0.4106  0.5119 -3.7467
  183DOPC   C3822523  -0.030   2.963  12.760 -0.1096  0.0438  0.0344
  183DOPC   H8X22524   0.046   2.885  12.782 -1.5988 -1.8217 -1.1354
  183DOPC   H8Y22525  -0.131   2.919  12.745 -0.0484 -0.5160  1.1761
  183DOPC   C3922526  -0.026   3.086  12.844 -0.3158 -0.2223 -0.2309
  183DOPC   H9X22527  -0.069   3.180  12.806 -0.1357  0.1875  0.5541
  183DOPC  C31022528   0.014   3.095  12.972  0.5155 -0.1114  0.0288
  183DOPC  H10X22529   0.003   3.193  13.020  3.0121 -0.2863  1.1695
  183DOPC  C31122530   0.062   2.985  13.067 -0.0258  0.3376 -0.1754
  183DOPC  H11X22531   0.172   2.987  13.078  0.0186 -0.6013 -0.3416
  183DOPC  H11Y22532   0.034   2.891  13.013  0.3360  0.5619 -0.7616
  183DOPC  C31222533  -0.017   2.995  13.197  0.0565  0.1866  0.1663
  183DOPC  H12X22534  -0.120   2.961  13.174 -1.0097  2.8355  0.6392
  183DOPC  H12Y22535  -0.024   3.098  13.239  0.3113 -0.5838  2.2161
  183DOPC  C31322536   0.039   2.921  13.315  0.0341  0.4331  0.8590
  183DOPC  H13X22537   0.035   2.813  13.289  0.8349  0.5160  0.3388
  183DOPC  H13Y22538   0.146   2.944  13.334 -0.5093  2.0893  2.1047
  183DOPC  C31422539  -0.029   2.954  13.454  0.0252 -0.3979  0.8652
  183DOPC  H14X22540  -0.043   3.064  13.457 -0.0116 -0.4182  1.5694
  183DOPC  H14Y22541  -0.128   2.905  13.449  0.8146 -2.3023  2.3100
  183DOPC  C31522542   0.029   2.905  13.584 -0.0786  0.0732 -0.2127
  183DOPC  H15X22543   0.135   2.939  13.594 -0.3611  0.6160  1.1523
  183DOPC  H15Y22544   0.028   2.794  13.586 -0.4382  0.0599 -0.9863
  183DOPC  C31622545  -0.059   2.949  13.701  0.0071 -0.0271  0.7972
  183DOPC  H16X22546  -0.011   2.927  13.799  1.3139  1.1227  0.4403
  183DOPC  H16Y22547  -0.050   3.060  13.702 -1.0130  0.1390 -1.6415
  183DOPC  C31722548  -0.205   2.904  13.711  0.4407 -0.7056 -0.4477
  183DOPC  H17X22549  -0.257   2.959  13.630  0.5235  4.4753  2.6105
  183DOPC  H17Y22550  -0.203   2.795  13.689 -0.1421 -0.9462  0.6369
  183DOPC  C31822551  -0.272   2.950  13.838 -0.3926 -0.0798  0.1362
  183DOPC  H18X22552  -0.281   3.060  13.851  0.3074  0.1743 -1.3083
  183DOPC  H18Y22553  -0.376   2.911  13.835  0.0474 -1.4245  1.1139
  183DOPC  H18Z22554  -0.212   2.913  13.924 -2.0232 -0.9906  0.9178
  184DOPC     N22555   3.764   6.302  11.695 -0.0811  0.8317 -0.4071
  184DOPC   C1222556   3.884   6.369  11.765 -0.0943  0.3739  1.0096
  184DOPC  H12A22557   3.958   6.376  11.687 -0.9307 -1.6293 -0.0544
  184DOPC  H12B22558   3.916   6.299  11.840  2.3155  0.2714 -0.0398
  184DOPC   C1322559   3.796   6.168  11.652  0.1437 -0.5627 -0.1822
  184DOPC  H13A22560   3.882   6.164  11.586  0.1682 -0.7328 -0.1394
  184DOPC  H13B22561   3.807   6.101  11.736 -0.3730  1.9517  2.0371
  184DOPC  H13C22562   3.714   6.139  11.589  0.2487 -1.0025 -0.1201
  184DOPC   C1422563   3.738   6.379  11.567 -0.4882  0.2286  0.5569
  184DOPC  H14A22564   3.835   6.390  11.521  0.7596 -3.7336  1.8482
  184DOPC  H14B22565   3.676   6.317  11.503  1.6096 -2.0639  0.5866
  184DOPC  H14C22566   3.691   6.474  11.589 -0.9725 -0.0615  0.7977
  184DOPC   C1522567   3.651   6.293  11.787  0.5630 -0.1779  0.1652
  184DOPC  H15A22568   3.664   6.240  11.880 -2.2283  0.3234  0.9374
  184DOPC  H15B22569   3.571   6.244  11.732  0.4530  0.4928 -0.2840
  184DOPC  H15C22570   3.610   6.392  11.799  0.1834  0.0486 -2.4287
  184DOPC   C1122571   3.863   6.511  11.826 -0.2337 -0.1190  0.0761
  184DOPC  H11A22572   3.966   6.548  11.848  1.0606 -1.9481 -2.3896
  184DOPC  H11B22573   3.821   6.571  11.743  0.1016 -0.4292 -0.3242
  184DOPC     P22574   3.657   6.606  11.964  0.3422 -0.1366 -0.2565
  184DOPC   O1322575   3.540   6.532  12.015  0.0516  0.0325  0.4998
  184DOPC   O1422576   3.635   6.685  11.839 -0.3998 -0.5989  0.0163
  184DOPC   O1222577   3.789   6.514  11.949 -0.2389  0.4850  0.2708
  184DOPC   O1122578   3.704   6.702  12.072  0.3012  0.0175  0.3818
  184DOPC    C122579   3.838   6.750  12.081  0.0450  0.0337  0.1208
  184DOPC    HA22580   3.849   6.858  12.104  1.5974 -0.7185  3.3786
  184DOPC    HB22581   3.893   6.732  11.986 -0.6868 -0.5447 -0.2133
  184DOPC    C222582   3.917   6.679  12.192  0.0513 -0.2020  0.5396
  184DOPC    HS22583   3.915   6.571  12.167 -1.9720  0.0129 -0.4040
  184DOPC   O2122584   3.833   6.699  12.309 -0.3421  0.0028  0.9646
  184DOPC   C2122585   3.886   6.640  12.416  0.3703  0.1970 -0.2300
  184DOPC   O2222586   3.962   6.544  12.412 -0.4447  0.1839 -0.3657
  184DOPC   C2222587   3.824   6.697  12.546 -0.3302 -0.3315 -0.7163
  184DOPC   H2R22588   3.715   6.678  12.552 -0.4795  0.7251  0.4087
  184DOPC   H2S22589   3.831   6.808  12.552  0.3888 -0.4448  1.2953
  184DOPC    C322590   4.067   6.727  12.211 -0.2750 -0.4672 -0.5875
  184DOPC    HX22591   4.118   6.717  12.113  0.5140 -0.3525 -0.1948
  184DOPC    HY22592   4.120   6.661  12.283  0.2927 -0.8852 -1.3669
  184DOPC   O3122593   4.077   6.865  12.260 -0.5463 -0.3506  0.6736
  184DOPC   C3122594   4.199   6.917  12.277 -0.1519  0.4724 -0.5722
  184DOPC   O3222595   4.302   6.857  12.263 -1.5754  0.3756  0.3534
  184DOPC   C3222596   4.190   7.058  12.331  1.1873  0.1748 -0.5384
  184DOPC   H2X22597   4.237   7.112  12.245  1.4610 -1.5612 -1.5238
  184DOPC   H2Y22598   4.082   7.085  12.328  0.7724 -1.2728  0.5377
  184DOPC   C2322599   3.896   6.626  12.669  0.2385 -0.1434  0.0759
  184DOPC   H3R22600   3.997   6.672  12.681  0.3961 -0.2310 -0.8108
  184DOPC   H3S22601   3.911   6.517  12.655 -2.9773 -0.7922  1.0048
  184DOPC   C2422602   3.819   6.640  12.798 -0.2849  0.2741  0.1832
  184DOPC   H4R22603   3.724   6.584  12.787 -0.6720  1.2681 -2.0719
  184DOPC   H4S22604   3.793   6.746  12.817  0.1517  0.2792  0.8011
  184DOPC   C2522605   3.898   6.560  12.904 -0.3903 -0.0555  0.0464
  184DOPC   H5R22606   4.003   6.597  12.907 -0.3425 -0.1682 -0.1880
  184DOPC   H5S22607   3.905   6.455  12.867 -2.3311  0.4743 -2.0602
  184DOPC   C2622608   3.836   6.562  13.045  0.1307 -0.6525  0.3359
  184DOPC   H6R22609   3.744   6.501  13.038  0.3284 -0.8163 -1.2652
  184DOPC   H6S22610   3.812   6.667  13.070 -1.4259 -0.6678 -0.9271
  184DOPC   C2722611   3.930   6.497  13.151 -0.7788 -0.0267  0.8344
  184DOPC   H7R22612   4.032   6.540  13.140 -1.0435  0.5817  0.7230
  184DOPC   H7S22613   3.928   6.397  13.104  0.5996 -0.5630  1.8638
  184DOPC   C2822614   3.870   6.502  13.295  0.4227  0.1200  0.6759
  184DOPC   H8R22615   3.771   6.452  13.290 -0.0710  1.1078  0.5244
  184DOPC   H8S22616   3.854   6.609  13.319  1.8517  0.4227  0.4274
  184DOPC   C2922617   3.963   6.434  13.387 -0.0180  0.2398  0.8970
  184DOPC   H9R22618   4.035   6.363  13.342 -1.3863 -0.5460 -0.1232
  184DOPC  C21022619   3.966   6.455  13.522 -0.7558 -0.0821  0.6392
  184DOPC  H10R22620   4.042   6.406  13.583 -0.8375 -2.0177 -0.7275
  184DOPC  C21122621   3.887   6.541  13.607  0.0718 -0.4022  0.6068
  184DOPC  H11R22622   3.790   6.553  13.555 -0.0160 -1.3107  0.5388
  184DOPC  H11S22623   3.951   6.632  13.610  3.7805 -2.6408 -1.4746
  184DOPC  C21222624   3.857   6.489  13.747  0.0489 -0.4273 -1.0909
  184DOPC  H12R22625   3.837   6.380  13.738  0.6325 -0.5318 -1.1298
  184DOPC  H12S22626   3.772   6.546  13.790 -1.2169 -1.7580 -1.7256
  184DOPC  C21322627   3.989   6.509  13.838 -0.0943 -0.1655 -0.0498
  184DOPC  H13R22628   4.041   6.606  13.826 -2.4662  1.0534 -1.0519
  184DOPC  H13S22629   4.057   6.439  13.785 -0.4317 -0.8238  0.3717
  184DOPC  C21422630   3.962   6.482  13.984  0.8492 -0.5711  0.4874
  184DOPC  H14R22631   3.894   6.397  14.009  1.0965 -0.0771  3.1792
  184DOPC  H14S22632   3.915   6.572  14.029  2.8065  1.1563 -0.7695
  184DOPC  C21522633   4.090   6.461  14.071  0.1491 -0.2701 -0.2694
  184DOPC  H15R22634   4.164   6.402  14.013 -1.2275 -1.4064 -0.9566
  184DOPC  H15S22635   4.056   6.400  14.157 -0.5605  0.7357  0.1712
  184DOPC  C21622636   4.154   6.585  14.123  0.2032 -0.3072  0.1063
  184DOPC  H16R22637   4.080   6.653  14.170 -0.7267 -0.4676 -1.0774
  184DOPC  H16S22638   4.185   6.643  14.034  0.2163  1.0524  0.9642
  184DOPC  C21722639   4.271   6.559  14.221  0.2060 -0.0229  0.2745
  184DOPC  H17R22640   4.331   6.481  14.170 -1.2811 -1.3334  0.4360
  184DOPC  H17S22641   4.220   6.502  14.302 -2.2751 -0.1044 -1.2581
  184DOPC  C21822642   4.363   6.683  14.271  0.7910 -0.5187  0.4250
  184DOPC  H18R22643   4.438   6.647  14.345  0.2095 -0.2094  1.1800
  184DOPC  H18S22644   4.297   6.754  14.325 -0.3427  0.5047 -2.1378
  184DOPC  H18T22645   4.409   6.738  14.187 -1.6959  1.5569  0.3067
  184DOPC   C3322646   4.252   7.076  12.468 -0.2086 -0.6529  0.3070
  184DOPC   H3X22647   4.249   7.181  12.504  4.1643  0.6110 -2.1953
  184DOPC   H3Y22648   4.362   7.063  12.460 -0.0889 -1.3868  2.3136
  184DOPC   C3422649   4.184   6.999  12.584  0.2860 -0.0962 -0.1978
  184DOPC   H4X22650   4.203   6.890  12.574  0.3934 -0.4563  2.8957
  184DOPC   H4Y22651   4.074   7.012  12.573  0.3149  1.6673  1.1155
  184DOPC   C3522652   4.232   7.042  12.723  0.5226  0.2038 -0.1162
  184DOPC   H5X22653   4.197   7.146  12.740 -1.9154 -0.6617  0.5985
  184DOPC   H5Y22654   4.342   7.051  12.718  0.5908 -0.8454 -0.9221
  184DOPC   C3622655   4.162   6.963  12.835 -0.2807  0.9333  0.1693
  184DOPC   H6X22656   4.061   6.926  12.808  0.6312  0.5792 -3.3442
  184DOPC   H6Y22657   4.226   6.872  12.841  1.1278  1.9812  1.5689
  184DOPC   C3722658   4.161   7.028  12.971 -0.6150  0.2023 -0.0522
  184DOPC   H7X22659   4.263   7.043  13.012 -0.9358 -1.4585  1.5017
  184DOPC   H7Y22660   4.129   7.134  12.964  0.5471  0.5483 -0.3176
  184DOPC   C3822661   4.083   6.947  13.068  0.3164 -0.0095  0.0319
  184DOPC   H8X22662   3.982   6.917  13.032 -0.1336 -0.5625  1.6980
  184DOPC   H8Y22663   4.060   7.010  13.156  2.1664  1.3042 -0.3606
  184DOPC   C3922664   4.144   6.815  13.117 -0.7832  0.3546  0.2382
  184DOPC   H9X22665   4.132   6.732  13.046 -2.5956  2.0344 -1.5837
  184DOPC  C31022666   4.201   6.784  13.240  0.0883 -0.4907  0.6534
  184DOPC  H10X22667   4.219   6.680  13.271 -0.1547 -1.4789 -2.2751
  184DOPC  C31122668   4.229   6.880  13.349 -0.9307  0.8383  0.3933
  184DOPC  H11X22669   4.181   6.979  13.337  1.2636  2.0346  0.8978
  184DOPC  H11Y22670   4.338   6.901  13.348 -0.6898 -0.2319 -2.1039
  184DOPC  C31222671   4.205   6.824  13.489  0.5171 -0.1416 -0.2788
  184DOPC  H12X22672   4.278   6.741  13.498  2.0674  1.3177  1.3632
  184DOPC  H12Y22673   4.109   6.773  13.510  1.1344 -0.5422  1.7785
  184DOPC  C31322674   4.226   6.933  13.596 -0.6211  0.4850 -0.5186
  184DOPC  H13X22675   4.334   6.962  13.597 -0.2135 -0.6189  2.9716
  184DOPC  H13Y22676   4.163   7.021  13.572  0.3480  1.1009 -0.8401
  184DOPC  C31422677   4.203   6.886  13.743 -0.1788 -0.5203 -0.5155
  184DOPC  H14X22678   4.097   6.856  13.749 -0.8340  1.7909  0.6743
  184DOPC  H14Y22679   4.259   6.796  13.777  1.4674 -0.4431 -2.7594
  184DOPC  C31522680   4.201   7.001  13.851  0.6358 -1.2996  0.3979
  184DOPC  H15X22681   4.137   7.083  13.812  0.1221 -2.1571 -0.6391
  184DOPC  H15Y22682   4.305   7.038  13.856 -0.1029  0.9423  0.5479
  184DOPC  C31622683   4.150   6.950  13.994  0.3166  0.0476 -0.0246
  184DOPC  H16X22684   4.043   6.926  13.979 -0.5084  2.4978  1.3479
  184DOPC  H16Y22685   4.201   6.865  14.044 -0.1596  0.2548  0.8311
  184DOPC  C31722686   4.145   7.070  14.092 -0.9655 -0.1442 -0.8920
  184DOPC  H17X22687   4.090   7.158  14.054 -0.5574 -0.1023 -1.4015
  184DOPC  H17Y22688   4.096   7.031  14.184  1.9457  0.6722  1.1534
  184DOPC  C31822689   4.289   7.107  14.147 -0.4557 -0.7205  0.0320
  184DOPC  H18X22690   4.343   7.011  14.165  0.0751 -0.7086 -1.3797
  184DOPC  H18Y22691   4.341   7.164  14.067  0.5054 -1.6296 -0.0216
  184DOPC  H18Z22692   4.293   7.157  14.246 -1.2237 -0.6647  0.0370
  185DOPC     N22693   0.026   5.055  11.699 -0.5779 -0.2458 -0.6587
  185DOPC   C1222694  -0.032   4.983  11.819 -0.0118  0.1819  0.3561
  185DOPC  H12A22695  -0.058   4.886  11.779 -1.4460  0.8366 -0.3628
  185DOPC  H12B22696  -0.130   5.022  11.840  0.0545  1.1351 -0.9796
  185DOPC   C1322697   0.048   5.198  11.734  0.2882 -0.1138  0.6286
  185DOPC  H13A22698   0.052   5.256  11.643 -0.6431  1.3389  1.4712
  185DOPC  H13B22699  -0.033   5.233  11.796  0.6293 -0.6998  1.4217
  185DOPC  H13C22700   0.142   5.207  11.787  0.9380  0.7838 -0.6313
  185DOPC   C1422701  -0.075   5.051  11.590 -0.2997  0.8033  0.5286
  185DOPC  H14A22702  -0.102   4.947  11.587  0.4978  0.5425  1.8924
  185DOPC  H14B22703  -0.167   5.105  11.610 -2.1418 -1.8522 -0.2065
  185DOPC  H14C22704  -0.024   5.075  11.498 -1.0237 -0.5407 -0.2539
  185DOPC   C1522705   0.155   5.001  11.657 -0.5437 -0.2912  0.1932
  185DOPC  H15A22706   0.224   5.006  11.740 -0.8408  1.7242  0.3751
  185DOPC  H15B22707   0.199   5.063  11.581 -0.5735 -1.4209 -0.7687
  185DOPC  H15C22708   0.147   4.904  11.611 -1.9297 -1.0371  1.8594
  185DOPC   C1122709   0.056   4.974  11.953  0.4253  0.2860  0.1059
  185DOPC  H11A22710   0.070   5.076  11.994  3.9422 -0.3586  0.8466
  185DOPC  H11B22711  -0.005   4.910  12.020  1.1754 -0.7409 -0.1652
  185DOPC     P22712   0.215   4.756  11.960  0.4102 -0.3079  0.1559
  185DOPC   O1322713   0.358   4.741  11.923 -0.2801  0.2921 -0.0956
  185DOPC   O1422714   0.118   4.663  11.888 -0.4474 -0.4377  0.1307
  185DOPC   O1222715   0.181   4.910  11.936 -0.2812 -0.0421  0.3999
  185DOPC   O1122716   0.204   4.740  12.112  0.0229 -0.4300 -0.3770
  185DOPC    C122717   0.314   4.737  12.202 -0.1117  0.4433  0.3650
  185DOPC    HA22718   0.282   4.797  12.290 -0.4082  1.9236 -0.7118
  185DOPC    HB22719   0.407   4.784  12.164  1.2557 -1.5632  1.0146
  185DOPC    C222720   0.361   4.592  12.244 -0.6227 -0.5899 -0.0131
  185DOPC    HS22721   0.366   4.530  12.152  0.1143  1.3598 -1.3616
  185DOPC   O2122722   0.266   4.548  12.336  0.1736  0.0419  0.2402
  185DOPC   C2122723   0.281   4.430  12.383  0.1953  0.6132 -0.2662
  185DOPC   O2222724   0.344   4.342  12.328 -0.1704  0.5098  0.5841
  185DOPC   C2222725   0.177   4.417  12.500  0.0545  0.0425 -0.0015
  185DOPC   H2R22726   0.105   4.333  12.491  1.7346 -1.6728  1.8084
  185DOPC   H2S22727   0.113   4.507  12.506 -0.6378 -0.4679  0.3723
  185DOPC    C322728   0.509   4.597  12.300  0.6328  0.2417  0.2673
  185DOPC    HX22729   0.586   4.616  12.221  1.7676  0.6273  1.4303
  185DOPC    HY22730   0.538   4.500  12.345  0.3206  0.4783  0.9948
  185DOPC   O3122731   0.519   4.695  12.399  0.5041 -0.2138 -1.0242
  185DOPC   C3122732   0.605   4.795  12.380  0.4990 -0.6521  0.2032
  185DOPC   O3222733   0.667   4.811  12.275  0.8732 -0.2489  0.4054
  185DOPC   C3222734   0.619   4.874  12.502 -0.0338 -1.0237 -0.2572
  185DOPC   H2X22735   0.548   4.844  12.582 -1.0003  2.0201  0.1439
  185DOPC   H2Y22736   0.712   4.849  12.556  1.2852  4.3405  0.4921
  185DOPC   C2322737   0.262   4.397  12.625  0.8163  0.4514 -0.1814
  185DOPC   H3R22738   0.350   4.465  12.626  1.1415  0.0782 -1.5189
  185DOPC   H3S22739   0.297   4.292  12.620 -2.3065 -0.6590 -2.2910
  185DOPC   C2422740   0.187   4.413  12.760 -0.0173 -0.9053 -0.3222
  185DOPC   H4R22741   0.101   4.343  12.763  0.4150 -1.5418 -1.6700
  185DOPC   H4S22742   0.149   4.516  12.747 -0.7192 -1.1425 -0.1724
  185DOPC   C2522743   0.281   4.394  12.870  0.0833 -0.4347 -0.4226
  185DOPC   H5R22744   0.239   4.437  12.963  0.8278 -1.1414  0.2500
  185DOPC   H5S22745   0.369   4.460  12.857 -1.4989  1.9885  0.3120
  185DOPC   C2622746   0.319   4.252  12.894 -0.5769 -0.3375 -0.2807
  185DOPC   H6R22747   0.377   4.216  12.807  0.4257  0.0017  0.2316
  185DOPC   H6S22748   0.228   4.188  12.901 -1.6034  1.0102 -0.7941
  185DOPC   C2722749   0.418   4.236  13.012 -0.2581  0.7412  0.4640
  185DOPC   H7R22750   0.505   4.306  13.006 -0.2413  0.8253  1.4883
  185DOPC   H7S22751   0.457   4.132  13.005 -0.1596  0.7898  0.2996
  185DOPC   C2822752   0.341   4.273  13.143  0.3523  0.2624  0.0775
  185DOPC   H8R22753   0.242   4.223  13.151  0.8253 -0.9221 -1.1244
  185DOPC   H8S22754   0.311   4.379  13.129  3.7652  1.3613  0.1607
  185DOPC   C2922755   0.402   4.259  13.278  0.1270  0.4432  0.3249
  185DOPC   H9R22756   0.409   4.153  13.309  2.6896 -0.8980 -3.8657
  185DOPC  C21022757   0.475   4.351  13.340  0.7961 -0.3370  0.0692
  185DOPC  H10R22758   0.530   4.315  13.428  2.1849 -1.8071 -1.3560
  185DOPC  C21122759   0.481   4.497  13.298 -0.4784 -0.5159 -0.5010
  185DOPC  H11R22760   0.383   4.540  13.327 -0.2197  0.4550 -1.0145
  185DOPC  H11S22761   0.506   4.509  13.191 -0.6465 -1.5888 -0.6662
  185DOPC  C21222762   0.586   4.567  13.389  0.4249 -0.0827 -0.8965
  185DOPC  H12R22763   0.600   4.674  13.362 -1.8281  0.8681  1.3376
  185DOPC  H12S22764   0.682   4.520  13.356  0.5368 -1.5112  1.2618
  185DOPC  C21322765   0.580   4.567  13.543 -0.5725 -0.0559 -1.2621
  185DOPC  H13R22766   0.657   4.638  13.578 -2.2918  2.0421 -1.5091
  185DOPC  H13S22767   0.593   4.464  13.581  0.3616  1.3542  2.6040
  185DOPC  C21422768   0.445   4.634  13.587  0.1642  0.2354 -0.2216
  185DOPC  H14R22769   0.353   4.581  13.554 -1.5819  2.0969  1.3592
  185DOPC  H14S22770   0.443   4.733  13.536 -0.6045  0.2199 -0.2343
  185DOPC  C21522771   0.428   4.657  13.736  0.2870 -0.4331  0.0882
  185DOPC  H15R22772   0.535   4.649  13.763 -0.0147 -1.2654  1.0817
  185DOPC  H15S22773   0.379   4.576  13.793  1.7781 -1.2217  0.3021
  185DOPC  C21622774   0.379   4.795  13.788  0.1852 -0.5165 -0.4146
  185DOPC  H16R22775   0.275   4.820  13.760  0.0844 -0.2581  0.1771
  185DOPC  H16S22776   0.443   4.878  13.750 -2.6832  1.9145 -0.3617
  185DOPC  C21722777   0.381   4.810  13.937  0.8037 -0.1827  0.2127
  185DOPC  H17R22778   0.315   4.730  13.976 -1.3484 -0.5323 -3.6365
  185DOPC  H17S22779   0.327   4.900  13.972  1.4427 -0.6103  2.4513
  185DOPC  C21822780   0.515   4.816  13.999 -0.1886  0.0870 -0.6243
  185DOPC  H18R22781   0.552   4.712  14.015 -2.2453 -0.7101 -0.7097
  185DOPC  H18S22782   0.508   4.863  14.100 -0.9543  0.3308 -0.7807
  185DOPC  H18T22783   0.590   4.859  13.930  1.2400 -2.3641 -0.7147
  185DOPC   C3322784   0.613   5.026  12.479  0.6954 -0.2649 -1.0100
  185DOPC   H3X22785   0.520   5.045  12.421  0.0815 -2.4318 -0.8103
  185DOPC   H3Y22786   0.704   5.036  12.415  0.0993 -0.7952 -1.9686
  185DOPC   C3422787   0.608   5.107  12.606  0.8296  0.4926  0.6657
  185DOPC   H4X22788   0.689   5.082  12.678  0.8407 -0.5256  0.3205
  185DOPC   H4Y22789   0.517   5.086  12.666  2.0627 -4.1528  1.3170
  185DOPC   C3522790   0.601   5.255  12.580  0.1634 -0.5283 -0.2403
  185DOPC   H5X22791   0.523   5.275  12.503  0.8182  0.5777 -0.6455
  185DOPC   H5Y22792   0.690   5.296  12.528 -1.0706  2.1227 -0.4790
  185DOPC   C3622793   0.579   5.338  12.708  0.0964 -0.4003  0.4949
  185DOPC   H6X22794   0.475   5.320  12.743  0.1051  0.6826  1.0977
  185DOPC   H6Y22795   0.658   5.323  12.784 -0.6157  3.6524  2.2963
  185DOPC   C3722796   0.593   5.486  12.675  0.2054 -0.5137  0.1689
  185DOPC   H7X22797   0.625   5.552  12.759 -1.0578 -0.1628  0.3952
  185DOPC   H7Y22798   0.679   5.494  12.605 -0.9080 -2.6596 -1.5554
  185DOPC   C3822799   0.471   5.553  12.610 -0.2261 -0.6196 -0.4946
  185DOPC   H8X22800   0.398   5.554  12.695  2.0402  3.0184  1.6639
  185DOPC   H8Y22801   0.431   5.502  12.520  0.6932  2.2244 -2.6339
  185DOPC   C3922802   0.487   5.700  12.575  0.0726 -0.2167 -0.9711
  185DOPC   H9X22803   0.560   5.707  12.492  0.9481 -1.2740 -0.3177
  185DOPC  C31022804   0.441   5.816  12.636 -0.0259 -0.3032 -0.1864
  185DOPC  H10X22805   0.507   5.898  12.602  0.9184  0.4254  3.0065
  185DOPC  C31122806   0.353   5.831  12.752  0.5039  0.1292 -0.6322
  185DOPC  H11X22807   0.293   5.740  12.772 -3.0555  2.2912 -0.6821
  185DOPC  H11Y22808   0.275   5.904  12.722  0.5771  0.8269  0.7590
  185DOPC  C31222809   0.415   5.874  12.888  0.1594  0.2139  0.6109
  185DOPC  H12X22810   0.481   5.961  12.868 -0.7000  0.6092 -0.6231
  185DOPC  H12Y22811   0.473   5.786  12.923 -0.3929  0.5915  2.6136
  185DOPC  C31322812   0.307   5.902  12.993 -0.2285  0.1361  0.7807
  185DOPC  H13X22813   0.351   5.948  13.084 -2.2884  1.4767  1.1759
  185DOPC  H13Y22814   0.234   5.975  12.952 -0.9161 -0.4090  1.0088
  185DOPC  C31422815   0.236   5.781  13.038 -0.6077 -0.2302 -0.2414
  185DOPC  H14X22816   0.206   5.714  12.955 -1.9364  1.7366 -1.4250
  185DOPC  H14Y22817   0.306   5.716  13.095 -0.0417  0.4934 -0.1030
  185DOPC  C31522818   0.120   5.810  13.129 -0.1942  0.1728  0.0500
  185DOPC  H15X22819   0.084   5.717  13.178 -0.6468  0.6525  0.6433
  185DOPC  H15Y22820   0.039   5.833  13.057 -0.7850  1.1352  0.9974
  185DOPC  C31622821   0.124   5.921  13.233  0.2149  0.1530  0.4029
  185DOPC  H16X22822   0.189   5.878  13.312 -2.0576 -3.5184  0.4905
  185DOPC  H16Y22823   0.160   6.020  13.197  0.0813  0.5151  1.2449
  185DOPC  C31722824  -0.007   5.951  13.311  0.2357  0.0137  0.4580
  185DOPC  H17X22825  -0.058   5.858  13.343  2.3953 -1.4060  0.0219
  185DOPC  H17Y22826   0.017   6.012  13.401 -0.3029  1.2999 -0.2506
  185DOPC  C31822827  -0.109   6.020  13.215 -0.8451  0.0855  0.6541
  185DOPC  H18X22828  -0.092   6.007  13.106  2.1863  1.5108  0.8492
  185DOPC  H18Y22829  -0.212   5.987  13.240 -0.8120  0.9080  1.9422
  185DOPC  H18Z22830  -0.114   6.128  13.240  1.8092  0.9467 -1.9777
  186DOPC     N22831   1.223   1.290  10.654  0.2226  0.5225  0.2008
  186DOPC   C1222832   1.094   1.302  10.736 -0.2291  0.2988  0.7053
  186DOPC  H12A22833   1.027   1.235  10.685  1.1495 -0.8559  0.3609
  186DOPC  H12B22834   1.057   1.403  10.745 -0.8259  0.0795  0.7807
  186DOPC   C1322835   1.264   1.146  10.652  0.1851  0.0396  0.3139
  186DOPC  H13A22836   1.354   1.130  10.594  0.1933 -1.4932  0.7012
  186DOPC  H13B22837   1.284   1.110  10.752  2.2979 -1.3122 -0.5234
  186DOPC  H13C22838   1.190   1.080  10.609 -0.8030  0.0833  1.8843
  186DOPC   C1422839   1.329   1.376  10.715 -0.6304 -0.1000  0.4343
  186DOPC  H14A22840   1.425   1.363  10.667 -0.8015  0.3960 -0.0397
  186DOPC  H14B22841   1.308   1.481  10.714 -1.0722 -0.1919 -0.4393
  186DOPC  H14C22842   1.344   1.337  10.815 -0.3533 -2.4114 -0.4495
  186DOPC   C1522843   1.189   1.339  10.515 -0.8048 -0.3544 -0.7158
  186DOPC  H15A22844   1.282   1.341  10.461 -0.7888  1.7471 -0.6632
  186DOPC  H15B22845   1.158   1.442  10.511  1.6344  0.4445 -0.6007
  186DOPC  H15C22846   1.110   1.281  10.470 -0.9157  0.2042 -1.2534
  186DOPC   C1122847   1.112   1.246  10.880  1.2020  0.3139 -0.2667
  186DOPC  H11A22848   1.015   1.241  10.933  0.0877  0.2753 -2.2436
  186DOPC  H11B22849   1.146   1.140  10.871 -0.4227 -0.1782 -0.7694
  186DOPC     P22850   1.154   1.457  11.030 -0.6143 -0.4108 -0.1391
  186DOPC   O1322851   1.073   1.527  10.930  0.7266 -0.1887  0.2681
  186DOPC   O1422852   1.280   1.533  11.055  0.3506  0.5430  0.4796
  186DOPC   O1222853   1.200   1.315  10.969  0.0514 -0.9816 -0.4550
  186DOPC   O1122854   1.072   1.426  11.165 -0.9377 -0.0045  0.5104
  186DOPC    C122855   1.137   1.330  11.251 -0.1476 -0.4350  0.6170
  186DOPC    HA22856   1.246   1.323  11.235 -0.3714  1.1034 -2.4440
  186DOPC    HB22857   1.093   1.230  11.232  1.7975 -1.3061  0.4972
  186DOPC    C222858   1.108   1.360  11.403  0.4212 -0.1977 -0.4404
  186DOPC    HS22859   1.150   1.275  11.460  1.4201  0.2438 -0.4905
  186DOPC   O2122860   0.971   1.389  11.430  0.0081  0.3847 -0.2486
  186DOPC   C2122861   0.884   1.286  11.416 -0.4951 -0.0792  0.0549
  186DOPC   O2222862   0.917   1.175  11.389 -0.0444  0.7920 -0.3137
  186DOPC   C2222863   0.743   1.339  11.446  0.9040  0.2568 -0.1634
  186DOPC   H2R22864   0.692   1.372  11.353  1.9367  0.4019 -0.6920
  186DOPC   H2S22865   0.756   1.424  11.516 -1.8888 -0.5462  1.4816
  186DOPC    C322866   1.197   1.483  11.450 -0.3524 -0.0916  0.1285
  186DOPC    HX22867   1.146   1.575  11.414  1.6336  1.3237  0.7976
  186DOPC    HY22868   1.295   1.498  11.400 -1.0200 -0.2968 -1.2955
  186DOPC   O3122869   1.202   1.483  11.595  0.3818 -0.1471 -0.4365
  186DOPC   C3122870   1.211   1.592  11.667 -0.0116 -0.2278  0.8919
  186DOPC   O3222871   1.234   1.703  11.613  0.4368  0.2507  0.0316
  186DOPC   C3222872   1.189   1.554  11.812 -0.2025 -0.1309 -0.0649
  186DOPC   H2X22873   1.098   1.492  11.807  0.2848 -0.9169  0.5352
  186DOPC   H2Y22874   1.275   1.491  11.842 -0.4523 -1.1919 -1.4862
  186DOPC   C2322875   0.645   1.235  11.505  0.1344  0.5186 -0.3138
  186DOPC   H3R22876   0.662   1.135  11.459  1.9418 -0.4734  2.3134
  186DOPC   H3S22877   0.539   1.258  11.479 -0.3410 -1.3971 -0.2483
  186DOPC   C2422878   0.661   1.215  11.653 -0.1418 -0.3271  0.2545
  186DOPC   H4R22879   0.659   1.315  11.703 -0.0937  0.7798 -1.8157
  186DOPC   H4S22880   0.753   1.170  11.696 -0.0072 -0.0487  0.2622
  186DOPC   C2522881   0.552   1.115  11.702 -0.2747  0.1153 -0.0915
  186DOPC   H5R22882   0.572   1.012  11.666  0.5401  0.8592 -1.8733
  186DOPC   H5S22883   0.455   1.145  11.655 -0.8345 -0.3000  0.7592
  186DOPC   C2622884   0.521   1.113  11.846 -0.2745 -0.4141  0.2064
  186DOPC   H6R22885   0.507   1.217  11.885  2.0464 -0.0369  0.1923
  186DOPC   H6S22886   0.606   1.055  11.888 -0.2212 -1.0415 -0.7532
  186DOPC   C2722887   0.398   1.027  11.877  0.6983 -0.2041 -0.3917
  186DOPC   H7R22888   0.409   0.923  11.839  1.9732 -0.2973  0.1760
  186DOPC   H7S22889   0.303   1.067  11.835 -0.6229 -2.0431  0.7152
  186DOPC   C2822890   0.373   0.997  12.027 -0.3119 -0.2849 -0.0339
  186DOPC   H8R22891   0.271   0.953  12.016 -0.2846 -0.1239 -1.0754
  186DOPC   H8S22892   0.354   1.087  12.088  0.6444 -0.8597  1.1578
  186DOPC   C2922893   0.458   0.910  12.117  0.1777  0.1153  0.2488
  186DOPC   H9R22894   0.432   0.803  12.108  0.6143  0.1054 -1.0847
  186DOPC  C21022895   0.538   0.953  12.214  0.1076 -0.4157 -0.2163
  186DOPC  H10R22896   0.570   0.872  12.282 -2.5983  0.0448  1.7417
  186DOPC  C21122897   0.581   1.092  12.252 -0.2261 -0.0323  0.2875
  186DOPC  H11R22898   0.568   1.162  12.167  0.7042 -1.8276 -1.4122
  186DOPC  H11S22899   0.692   1.090  12.263 -0.2530  1.7644  1.2362
  186DOPC  C21222900   0.520   1.147  12.383  0.3057  0.2805  0.3423
  186DOPC  H12R22901   0.416   1.162  12.346 -0.8153 -5.0903  0.4291
  186DOPC  H12S22902   0.556   1.248  12.412 -0.6060  0.8208 -0.3325
  186DOPC  C21322903   0.535   1.046  12.499 -0.2526 -0.8281  0.4568
  186DOPC  H13R22904   0.639   1.008  12.513 -0.7836 -2.5732 -0.1664
  186DOPC  H13S22905   0.474   0.955  12.482 -0.6552 -0.7788  1.5499
  186DOPC  C21422906   0.495   1.106  12.638  0.1037  0.0890  0.4199
  186DOPC  H14R22907   0.393   1.148  12.620 -0.1840 -0.4979  0.6633
  186DOPC  H14S22908   0.579   1.169  12.674  2.2573 -3.1258  1.3901
  186DOPC  C21522909   0.483   0.995  12.743 -0.0657  0.2676 -0.0241
  186DOPC  H15R22910   0.580   0.944  12.759 -0.6806 -0.7496  0.6545
  186DOPC  H15S22911   0.414   0.916  12.706  0.3961  0.8031 -2.1322
  186DOPC  C21622912   0.420   1.033  12.883 -0.5789 -0.3209 -0.3192
  186DOPC  H16R22913   0.361   0.948  12.921 -0.4950 -0.1813  0.1253
  186DOPC  H16S22914   0.352   1.121  12.872  1.9556  1.8239 -0.0301
  186DOPC  C21722915   0.534   1.057  12.993  0.2905  0.0950  0.7345
  186DOPC  H17R22916   0.610   1.133  12.965  1.6615 -1.3278  0.4330
  186DOPC  H17S22917   0.582   0.957  12.998  1.9580  0.7456 -0.8523
  186DOPC  C21822918   0.477   1.100  13.130 -0.3859 -0.2353 -0.1173
  186DOPC  H18R22919   0.417   1.194  13.134 -0.3575 -0.2485  2.6759
  186DOPC  H18S22920   0.569   1.121  13.189 -1.2080 -2.3348  2.1260
  186DOPC  H18T22921   0.431   1.009  13.175 -0.3784 -0.3130 -0.2687
  186DOPC   C3322922   1.168   1.666  11.902  0.0707 -0.2037  0.2539
  186DOPC   H3X22923   1.103   1.739  11.850  1.9047 -0.7036 -2.9953
  186DOPC   H3Y22924   1.261   1.718  11.932  0.4697 -1.2165  0.8419
  186DOPC   C3422925   1.102   1.617  12.030  0.0232  0.0020 -0.7992
  186DOPC   H4X22926   1.150   1.520  12.056 -1.7235 -0.9449 -0.9427
  186DOPC   H4Y22927   1.001   1.574  12.014 -0.0168 -0.0876 -0.3492
  186DOPC   C3522928   1.098   1.732  12.131  0.9931  0.6894 -0.4100
  186DOPC   H5X22929   1.030   1.811  12.092 -1.7927 -1.1072  0.5559
  186DOPC   H5Y22930   1.199   1.776  12.149  0.5902  1.2685  0.5166
  186DOPC   C3622931   1.032   1.702  12.262  0.4148  0.2622  0.1709
  186DOPC   H6X22932   1.098   1.631  12.315  0.6019 -0.9204 -1.5728
  186DOPC   H6Y22933   1.044   1.792  12.326  2.5818  0.1727 -0.0417
  186DOPC   C3722934   0.889   1.648  12.255 -0.7675 -0.7428  0.8783
  186DOPC   H7X22935   0.836   1.720  12.189 -0.6829  0.5678  2.1819
  186DOPC   H7Y22936   0.886   1.553  12.197 -1.4358 -0.9846  1.3007
  186DOPC   C3822937   0.812   1.622  12.386  0.0006  0.5022  0.5829
  186DOPC   H8X22938   0.885   1.563  12.445  0.6901  0.0965 -0.6263
  186DOPC   H8Y22939   0.722   1.564  12.359 -0.5537  1.2920  0.6932
  186DOPC   C3922940   0.776   1.760  12.445 -0.0351 -0.1133 -0.3407
  186DOPC   H9X22941   0.807   1.847  12.385  1.4894 -0.3145  0.1167
  186DOPC  C31022942   0.721   1.785  12.567 -0.4062  0.2626  0.7855
  186DOPC  H10X22943   0.705   1.892  12.586  1.1468  1.0789 -1.8983
  186DOPC  C31122944   0.692   1.685  12.679 -0.0202  0.1377  0.5202
  186DOPC  H11X22945   0.765   1.604  12.696  1.6241  1.7427  1.4097
  186DOPC  H11Y22946   0.599   1.629  12.654  0.2061 -0.2097  0.4675
  186DOPC  C31222947   0.673   1.757  12.816 -0.2519  0.6663  1.2652
  186DOPC  H12X22948   0.605   1.844  12.803  0.1686  0.7689 -0.4300
  186DOPC  H12Y22949   0.764   1.794  12.868 -1.3550 -0.5891  4.2860
  186DOPC  C31322950   0.597   1.663  12.909 -0.5493  0.1976  0.4741
  186DOPC  H13X22951   0.507   1.624  12.856  1.6582 -2.4627 -1.5817
  186DOPC  H13Y22952   0.657   1.572  12.929  0.9434  0.6867 -1.4908
  186DOPC  C31422953   0.552   1.713  13.048 -1.0294 -0.4167 -0.8993
  186DOPC  H14X22954   0.481   1.797  13.033 -0.9195 -0.0090  0.6968
  186DOPC  H14Y22955   0.498   1.639  13.110  0.0135  1.1096  2.0004
  186DOPC  C31522956   0.676   1.765  13.129 -0.1115  0.4405 -0.1764
  186DOPC  H15X22957   0.694   1.871  13.101  1.7342 -0.0708 -1.0970
  186DOPC  H15Y22958   0.770   1.716  13.098  0.0990  0.1225  0.9264
  186DOPC  C31622959   0.656   1.753  13.282  0.3546 -0.3266  0.2006
  186DOPC  H16X22960   0.558   1.800  13.304 -0.0245  0.7125 -3.1063
  186DOPC  H16Y22961   0.659   1.648  13.317  1.0667 -0.6711 -0.8537
  186DOPC  C31722962   0.756   1.840  13.356  0.6918 -0.3283 -0.0744
  186DOPC  H17X22963   0.744   1.944  13.317  0.8998  0.7028  2.4247
  186DOPC  H17Y22964   0.739   1.840  13.465  3.3729 -2.5610  0.4525
  186DOPC  C31822965   0.896   1.782  13.335  0.2915 -0.1933 -0.0231
  186DOPC  H18X22966   0.924   1.751  13.232 -0.0143  0.1183 -0.2026
  186DOPC  H18Y22967   0.970   1.855  13.374 -0.8586  0.2572  1.4531
  186DOPC  H18Z22968   0.923   1.691  13.393  1.3081  0.6921  0.9368
  187DOPC     N22969   5.574   1.248  10.958  0.0098  0.1771  0.1883
  187DOPC   C1222970   5.484   1.368  10.994 -0.0451 -0.1438 -0.2318
  187DOPC  H12A22971   5.439   1.410  10.905  1.7380 -1.1912 -1.7082
  187DOPC  H12B22972   5.561   1.438  11.025 -0.6463  0.1692  0.6079
  187DOPC   C1322973   5.661   1.279  10.845 -0.7091 -0.3989 -0.1094
  187DOPC  H13A22974   5.710   1.189  10.811  0.7784  1.1542 -2.3366
  187DOPC  H13B22975   5.617   1.333  10.762  0.3114  1.0508  0.2685
  187DOPC  H13C22976   5.735   1.351  10.876  0.0328 -0.8883 -0.6989
  187DOPC   C1422977   5.488   1.126  10.938 -0.0329 -0.0788  0.2957
  187DOPC  H14A22978   5.398   1.155  10.888  0.5751 -1.4848 -1.7227
  187DOPC  H14B22979   5.532   1.051  10.874 -0.8906 -0.7177  0.4399
  187DOPC  H14C22980   5.461   1.068  11.025  0.6046 -0.6023  0.1595
  187DOPC   C1522981   5.675   1.226  11.070 -0.4162  0.4496 -0.1564
  187DOPC  H15A22982   5.631   1.193  11.163 -1.9220 -1.3171 -1.4241
  187DOPC  H15B22983   5.720   1.321  11.094  0.1773 -0.0786  0.8408
  187DOPC  H15C22984   5.749   1.154  11.038 -2.3113  0.5272 -6.0461
  187DOPC   C1122985   5.386   1.350  11.113  0.6558  0.3564 -0.0548
  187DOPC  H11A22986   5.341   1.450  11.130  1.6489  0.6497  0.9393
  187DOPC  H11B22987   5.312   1.278  11.069  3.1077 -2.1521 -0.3550
  187DOPC     P22988   5.399   1.179  11.307  0.2449  0.1380 -0.3971
  187DOPC   O1322989   5.486   1.063  11.274  0.6202  0.1323  0.2495
  187DOPC   O1422990   5.252   1.169  11.286 -0.0665 -0.4548 -0.3980
  187DOPC   O1222991   5.452   1.303  11.232  1.1378 -0.1430  0.1656
  187DOPC   O1122992   5.430   1.230  11.455 -0.0142  0.2177  0.2848
  187DOPC    C122993   5.568   1.260  11.491  0.0854 -0.0332  0.2839
  187DOPC    HA22994   5.608   1.344  11.430 -0.2598 -0.2826 -0.3006
  187DOPC    HB22995   5.624   1.165  11.476 -2.9161 -1.9405  0.1212
  187DOPC    C222996   5.583   1.297  11.638  0.0690 -0.4306 -0.1028
  187DOPC    HS22997   5.555   1.206  11.695 -0.2727  1.1313  2.3523
  187DOPC   O2122998   5.496   1.410  11.682  0.5364 -0.2466 -0.3350
  187DOPC   C2122999   5.442   1.414  11.806 -0.1273 -0.3982  0.1335
  187DOPC   O2223000   5.468   1.337  11.893 -0.4601  0.3799 -0.4971
  187DOPC   C2223001   5.352   1.539  11.808  0.7252 -0.2385 -0.2932
  187DOPC   H2R23002   5.261   1.523  11.747 -0.5646  2.3515  0.8123
  187DOPC   H2S23003   5.409   1.619  11.756 -0.4439  0.2328 -0.8894
  187DOPC    C323004   5.728   1.324  11.660 -0.5029 -0.2520 -0.2839
  187DOPC    HX23005   5.757   1.425  11.624  2.6089 -0.9101  0.1363
  187DOPC    HY23006   5.787   1.251  11.601 -1.9932  0.1984 -2.4412
  187DOPC   O3123007   5.762   1.305  11.802 -0.3992  0.1805  0.2810
  187DOPC   C3123008   5.766   1.412  11.872  0.0858 -0.4182 -0.2177
  187DOPC   O3223009   5.755   1.526  11.831  0.6651 -0.4138  0.0858
  187DOPC   C3223010   5.798   1.382  12.019 -0.1379  0.3052  0.0446
  187DOPC   H2X23011   5.703   1.385  12.077  0.5858 -2.2500  1.5194
  187DOPC   H2Y23012   5.837   1.278  12.023 -0.2142  0.2000 -1.3616
  187DOPC   C2323013   5.296   1.571  11.945  0.1066 -0.1462 -0.2382
  187DOPC   H3R23014   5.231   1.486  11.973  1.7500 -0.8037  1.8130
  187DOPC   H3S23015   5.231   1.661  11.938  0.2833 -0.0227 -0.3057
  187DOPC   C2423016   5.407   1.593  12.049 -0.0937 -0.3673 -0.1940
  187DOPC   H4R23017   5.478   1.671  12.016  1.6460 -2.1532 -0.9075
  187DOPC   H4S23018   5.455   1.495  12.074 -0.2404 -0.2378  0.6237
  187DOPC   C2523019   5.335   1.648  12.175  0.3467 -0.0944 -0.4945
  187DOPC   H5R23020   5.268   1.732  12.147  1.1481  0.6214 -0.2933
  187DOPC   H5S23021   5.404   1.690  12.251 -0.0521 -0.1445 -0.1043
  187DOPC   C2623022   5.252   1.546  12.250  0.0186  0.2403  0.1449
  187DOPC   H6R23023   5.303   1.450  12.275 -1.2805 -0.4317  0.3372
  187DOPC   H6S23024   5.157   1.532  12.194 -1.0970  0.0783  2.0044
  187DOPC   C2723025   5.199   1.610  12.381 -0.3502 -0.0103 -0.2702
  187DOPC   H7R23026   5.135   1.699  12.365  0.1843  0.4182 -0.0832
  187DOPC   H7S23027   5.282   1.655  12.440 -2.5479  0.7607  2.4795
  187DOPC   C2823028   5.110   1.523  12.464  0.2554  0.6107  0.0114
  187DOPC   H8R23029   5.048   1.455  12.403  0.9772 -0.2170  0.1781
  187DOPC   H8S23030   5.043   1.580  12.532  2.1710 -0.8283  3.3483
  187DOPC   C2923031   5.196   1.439  12.554 -0.0659  0.3432  0.1249
  187DOPC   H9R23032   5.249   1.349  12.520 -0.7703 -0.9729  2.2801
  187DOPC  C21023033   5.218   1.458  12.688  0.1802 -0.3967  0.7114
  187DOPC  H10R23034   5.281   1.389  12.747  0.3004  0.4894  1.6521
  187DOPC  C21123035   5.154   1.564  12.769 -0.2092 -0.3883 -0.0467
  187DOPC  H11R23036   5.066   1.522  12.822 -0.4357 -0.4964 -0.5076
  187DOPC  H11S23037   5.120   1.655  12.715  1.1623  0.0129 -0.2567
  187DOPC  C21223038   5.252   1.613  12.886  0.2971  0.3338  0.2860
  187DOPC  H12R23039   5.245   1.722  12.903  0.5470  0.1442  1.7703
  187DOPC  H12S23040   5.358   1.593  12.859 -0.6096 -2.1255 -1.9429
  187DOPC  C21323041   5.208   1.556  13.024 -0.0182 -0.5306  0.6560
  187DOPC  H13R23042   5.191   1.446  13.016 -0.0544 -0.4677 -0.2510
  187DOPC  H13S23043   5.108   1.599  13.047 -1.5681 -3.0532 -0.7816
  187DOPC  C21423044   5.303   1.584  13.142  0.2200  0.8252 -0.2760
  187DOPC  H14R23045   5.315   1.693  13.159  2.7594  0.1741  3.1149
  187DOPC  H14S23046   5.408   1.552  13.119  0.3443 -0.1785  1.5376
  187DOPC  C21523047   5.248   1.496  13.257  0.7362 -0.3732 -0.2859
  187DOPC  H15R23048   5.286   1.392  13.261 -1.1543 -1.1017 -0.1486
  187DOPC  H15S23049   5.137   1.503  13.264  0.5386 -3.4576  1.3938
  187DOPC  C21623050   5.279   1.555  13.404  0.5290  0.4312  0.2749
  187DOPC  H16R23051   5.390   1.554  13.416  0.7998  0.8091 -1.8573
  187DOPC  H16S23052   5.243   1.478  13.476  1.9741 -0.1205  0.4486
  187DOPC  C21723053   5.217   1.696  13.429  0.2140 -0.3417  0.1064
  187DOPC  H17R23054   5.112   1.698  13.392  1.0643 -0.8650 -2.5851
  187DOPC  H17S23055   5.277   1.775  13.380  1.6775  1.3561  4.2431
  187DOPC  C21823056   5.204   1.723  13.582 -0.4983  0.1111 -0.5133
  187DOPC  H18R23057   5.304   1.716  13.630 -0.4697 -0.4335 -0.6434
  187DOPC  H18S23058   5.133   1.652  13.629  1.4085 -1.6799 -0.1843
  187DOPC  H18T23059   5.180   1.829  13.606  2.3425  0.3175  2.0272
  187DOPC   C3323060   5.894   1.481  12.085 -0.9978  0.1724  0.2467
  187DOPC   H3X23061   5.873   1.585  12.050  0.8687 -0.1631 -2.1038
  187DOPC   H3Y23062   5.994   1.451  12.048 -1.5142  0.6480 -1.6501
  187DOPC   C3423063   5.889   1.496  12.236 -0.3814  0.0395 -0.4344
  187DOPC   H4X23064   5.971   1.570  12.245  0.4179 -0.4242 -3.1344
  187DOPC   H4Y23065   5.920   1.406  12.293 -1.2517 -0.2073 -0.3263
  187DOPC   C3523066   5.747   1.548  12.294 -0.3654  0.2857 -0.7695
  187DOPC   H5X23067   5.670   1.477  12.256  0.0681 -0.1749 -0.8007
  187DOPC   H5Y23068   5.738   1.650  12.251  0.2293  0.5634 -0.2432
  187DOPC   C3623069   5.746   1.551  12.440 -0.0751  0.7904  0.4042
  187DOPC   H6X23070   5.778   1.452  12.480  0.2488  0.1271 -1.4280
  187DOPC   H6Y23071   5.821   1.625  12.475 -1.5822  2.6313 -0.0815
  187DOPC   C3723072   5.607   1.584  12.499  0.4814 -0.8740  0.2513
  187DOPC   H7X23073   5.584   1.689  12.470  1.0449 -0.9988 -0.6634
  187DOPC   H7Y23074   5.528   1.515  12.462  1.4191 -1.1564 -1.2653
  187DOPC   C3823075   5.602   1.564  12.656  0.3006  0.5935 -0.3411
  187DOPC   H8X23076   5.498   1.590  12.684 -0.0053 -0.2512 -0.6606
  187DOPC   H8Y23077   5.678   1.629  12.704 -1.4256  1.3825  1.4201
  187DOPC   C3923078   5.630   1.420  12.685  1.5555 -0.0276  0.0906
  187DOPC   H9X23079   5.584   1.353  12.612 -0.8944 -1.2047  2.5123
  187DOPC  C31023080   5.720   1.372  12.770 -0.3396  0.5638  0.2993
  187DOPC  H10X23081   5.714   1.264  12.793 -2.3736  0.3211 -1.1510
  187DOPC  C31123082   5.801   1.458  12.866 -0.4506  0.0080 -0.2017
  187DOPC  H11X23083   5.839   1.556  12.829 -1.2277  0.0041 -1.0495
  187DOPC  H11Y23084   5.899   1.407  12.882  0.0989  0.9438 -0.4902
  187DOPC  C31223085   5.731   1.489  13.004 -0.2828 -0.2773 -0.2864
  187DOPC  H12X23086   5.640   1.550  12.987 -1.5293 -1.3218  2.2090
  187DOPC  H12Y23087   5.808   1.548  13.060  2.0736  1.5532 -4.8971
  187DOPC  C31323088   5.693   1.359  13.088 -0.0566  0.0759 -0.2251
  187DOPC  H13X23089   5.599   1.315  13.048 -0.5393  0.4993  0.4028
  187DOPC  H13Y23090   5.774   1.284  13.077 -1.4844 -1.3728 -1.3468
  187DOPC  C31423091   5.662   1.388  13.238  0.1071  0.8866 -0.1927
  187DOPC  H14X23092   5.746   1.452  13.273  0.0452  1.0416 -0.3267
  187DOPC  H14Y23093   5.566   1.440  13.258 -0.8901  0.0368 -2.4707
  187DOPC  C31523094   5.657   1.255  13.306  0.4160  0.5201  0.4240
  187DOPC  H15X23095   5.761   1.220  13.323 -0.0837 -1.1195  0.2743
  187DOPC  H15Y23096   5.614   1.183  13.233  3.3088  1.1550 -2.0972
  187DOPC  C31623097   5.579   1.265  13.440 -0.2613 -0.3279 -0.4591
  187DOPC  H16X23098   5.478   1.301  13.413 -0.0628  0.3978 -0.2629
  187DOPC  H16Y23099   5.576   1.165  13.490  0.1490 -0.6126 -1.0010
  187DOPC  C31723100   5.634   1.379  13.545  0.3954  0.4801  0.8640
  187DOPC  H17X23101   5.745   1.373  13.546  0.3367 -2.9553 -0.8493
  187DOPC  H17Y23102   5.615   1.474  13.491 -2.2345 -0.4065  0.0643
  187DOPC  C31823103   5.583   1.369  13.688 -0.2999 -0.1153  0.2505
  187DOPC  H18X23104   5.473   1.378  13.704 -0.2011  0.1379  0.8238
  187DOPC  H18Y23105   5.615   1.272  13.734  3.0496  0.3873 -0.7700
  187DOPC  H18Z23106   5.636   1.441  13.753  4.1712 -0.4372 -2.6493
  188DOPC     N23107   1.927   0.095  11.794 -0.7760 -0.3932 -0.9012
  188DOPC   C1223108   2.024   0.012  11.877  0.1457 -0.1250  0.3709
  188DOPC  H12A23109   2.115  -0.013  11.825 -1.1112  0.0615 -2.0859
  188DOPC  H12B23110   1.978  -0.084  11.896 -0.5511  0.2861  0.8404
  188DOPC   C1323111   1.827   0.167  11.881 -0.1882 -0.2948 -0.1458
  188DOPC  H13A23112   1.784   0.243  11.817  0.3033 -1.2103 -1.6088
  188DOPC  H13B23113   1.747   0.104  11.917 -1.4665  1.1958 -0.2501
  188DOPC  H13C23114   1.872   0.219  11.965 -0.5580  0.6836 -0.5313
  188DOPC   C1423115   1.846   0.006  11.703 -0.6426 -0.7328  0.1781
  188DOPC  H14A23116   1.780   0.064  11.640 -0.8412 -2.6461 -1.4484
  188DOPC  H14B23117   1.907  -0.053  11.637 -3.4135 -0.5191 -2.8146
  188DOPC  H14C23118   1.786  -0.066  11.757  0.3725  0.1938  2.6843
  188DOPC   C1523119   2.004   0.189  11.709 -0.6263 -0.1386  0.2071
  188DOPC  H15A23120   1.944   0.264  11.660  0.7649  0.1400 -1.1467
  188DOPC  H15B23121   2.063   0.140  11.633 -0.2393 -0.6756  0.8438
  188DOPC  H15C23122   2.084   0.238  11.762 -0.2048  0.3991 -0.8854
  188DOPC   C1123123   2.083   0.086  12.010  0.4918  0.2833 -0.0531
  188DOPC  H11A23124   2.124   0.186  11.986 -0.9359  0.3975 -2.3916
  188DOPC  H11B23125   1.987   0.110  12.061  0.9819  3.2567 -0.3797
  188DOPC     P23126   2.304  -0.033  12.032 -0.3691  0.2529 -0.2621
  188DOPC   O1323127   2.354   0.062  11.934  0.1263 -0.1850  0.1161
  188DOPC   O1423128   2.296  -0.170  11.988 -0.0006  0.8237  0.1754
  188DOPC   O1223129   2.160  -0.002  12.089 -0.0721  0.1104  0.1978
  188DOPC   O1123130   2.392  -0.021  12.163  0.2083  0.4323 -0.4696
  188DOPC    C123131   2.396   0.088  12.255 -0.8352 -0.5131 -0.6704
  188DOPC    HA23132   2.339   0.175  12.216 -1.0876 -0.5645 -0.4207
  188DOPC    HB23133   2.502   0.120  12.263 -1.2813  1.4333 -1.9184
  188DOPC    C223134   2.349   0.040  12.400 -0.1330 -0.0121  0.5728
  188DOPC    HS23135   2.363   0.123  12.473 -0.9923 -0.8388  1.7188
  188DOPC   O2123136   2.411  -0.081  12.447 -0.1453 -0.8457  0.0493
  188DOPC   C2123137   2.542  -0.066  12.484 -0.0435  0.3137 -0.0287
  188DOPC   O2223138   2.599   0.039  12.484  0.0387  0.0958 -0.2458
  188DOPC   C2223139   2.597  -0.199  12.533  0.0067 -0.1902 -0.4826
  188DOPC   H2R23140   2.708  -0.202  12.533  0.0094 -0.0761 -0.5960
  188DOPC   H2S23141   2.564  -0.276  12.460 -0.3955  0.9928 -1.5793
  188DOPC    C323142   2.197   0.018  12.393 -0.2153  0.4144  0.4877
  188DOPC    HX23143   2.169  -0.068  12.329  0.4298 -0.9049  1.9298
  188DOPC    HY23144   2.146   0.108  12.352 -3.2096 -1.2385  0.2953
  188DOPC   O3123145   2.141  -0.007  12.527  0.4351  0.0475  0.3170
  188DOPC   C3123146   2.135   0.104  12.603  0.1846  0.2104 -0.1609
  188DOPC   O3223147   2.152   0.219  12.563  0.1776 -0.2506  0.3682
  188DOPC   C3223148   2.107   0.066  12.751  0.0788  0.0982  0.7808
  188DOPC   H2X23149   2.010   0.012  12.759  0.0635  0.4080  4.6625
  188DOPC   H2Y23150   2.184  -0.007  12.786  0.3212 -2.0165 -3.4884
  188DOPC   C2323151   2.538  -0.231  12.673  0.4468  0.1480 -0.5963
  188DOPC   H3R23152   2.564  -0.337  12.690 -0.3117 -0.2797 -1.9103
  188DOPC   H3S23153   2.428  -0.218  12.682  0.4982 -0.3109  0.7994
  188DOPC   C2423154   2.600  -0.163  12.794  0.0567 -0.1478  0.1932
  188DOPC   H4R23155   2.592  -0.055  12.772 -2.6176 -0.6989 -2.1893
  188DOPC   H4S23156   2.707  -0.193  12.802 -0.5362 -1.9591  2.1035
  188DOPC   C2523157   2.540  -0.191  12.936 -0.0374  0.3573  0.3648
  188DOPC   H5R23158   2.567  -0.296  12.959  0.5592  0.3769 -0.2023
  188DOPC   H5S23159   2.429  -0.184  12.927 -0.1340 -1.0767  0.1797
  188DOPC   C2623160   2.594  -0.095  13.040 -0.2522  0.1931  0.1523
  188DOPC   H6R23161   2.576   0.010  13.011 -3.5222 -0.3719 -0.2075
  188DOPC   H6S23162   2.703  -0.112  13.032 -0.4566 -3.4982  2.5851
  188DOPC   C2723163   2.541  -0.128  13.183 -0.3776 -0.3902 -0.2469
  188DOPC   H7R23164   2.621  -0.134  13.261 -0.8321 -3.2760  0.1100
  188DOPC   H7S23165   2.505  -0.233  13.179 -1.3385 -0.2027  1.8520
  188DOPC   C2823166   2.433  -0.032  13.223  0.6965 -0.3238 -0.0069
  188DOPC   H8R23167   2.362  -0.021  13.138  0.9591  1.2672 -0.0515
  188DOPC   H8S23168   2.479   0.068  13.238  2.7836 -0.9788 -1.5535
  188DOPC   C2923169   2.359  -0.067  13.351  0.5394  0.3253  0.4876
  188DOPC   H9R23170   2.284  -0.147  13.346  0.5097  0.3642  0.3210
  188DOPC  C21023171   2.377  -0.003  13.475 -0.5257 -0.1588  0.3213
  188DOPC  H10R23172   2.312  -0.045  13.553 -0.2177 -0.6824  0.3073
  188DOPC  C21123173   2.480   0.092  13.510 -0.2073 -0.8426  0.1698
  188DOPC  H11R23174   2.421   0.184  13.529  0.1522 -0.4262 -0.6764
  188DOPC  H11S23175   2.537   0.108  13.417 -0.0967 -1.3955  0.1437
  188DOPC  C21223176   2.581   0.058  13.621  0.0002  0.3838 -0.6932
  188DOPC  H12R23177   2.642   0.150  13.633  2.7356 -1.5802  1.5868
  188DOPC  H12S23178   2.657  -0.014  13.583 -1.4026 -1.8091  0.4804
  188DOPC  C21323179   2.511   0.025  13.755 -1.4466 -0.6220 -0.0757
  188DOPC  H13R23180   2.513  -0.086  13.763  2.0105 -0.6422  0.3965
  188DOPC  H13S23181   2.409   0.068  13.748 -0.4065  1.7114 -2.8186
  188DOPC  C21423182   2.590   0.080  13.876  0.0804  0.2002 -1.1432
  188DOPC  H14R23183   2.579   0.190  13.878 -1.7562  0.0499  0.3225
  188DOPC  H14S23184   2.696   0.048  13.866 -0.3516 -2.7457  1.6841
  188DOPC  C21523185   2.546   0.044  14.021  0.5247  0.3666 -0.3593
  188DOPC  H15R23186   2.436   0.063  14.027  0.3766 -0.3837 -0.5533
  188DOPC  H15S23187   2.600   0.112  14.090  0.4142 -1.2555  1.4279
  188DOPC  C21623188   2.577  -0.105  14.060  0.5869  0.7546 -0.4085
  188DOPC  H16R23189   2.683  -0.127  14.082 -0.3926 -0.4662  4.2550
  188DOPC  H16S23190   2.550  -0.178  13.982  1.0975 -0.7076  0.7416
  188DOPC  C21723191   2.515  -0.143  14.196 -0.0201  0.1358  0.4921
  188DOPC  H17R23192   2.408  -0.167  14.178 -0.2178  0.8327  0.6799
  188DOPC  H17S23193   2.531  -0.064  14.272 -1.8856  0.0212  1.0598
  188DOPC  C21823194   2.589  -0.267  14.244 -0.0756 -0.2282  0.1236
  188DOPC  H18R23195   2.556  -0.301  14.344  0.3929 -2.4623 -0.4186
  188DOPC  H18S23196   2.699  -0.274  14.247 -0.0797  0.0798  1.0523
  188DOPC  H18T23197   2.557  -0.360  14.191  2.1720 -1.6905  1.1835
  188DOPC   C3323198   2.108   0.187  12.843 -0.2090 -0.3647 -0.3343
  188DOPC   H3X23199   2.017   0.246  12.820 -0.2082  0.1069  0.8444
  188DOPC   H3Y23200   2.199   0.251  12.838  0.8623 -1.9152 -2.3384
  188DOPC   C3423201   2.095   0.144  12.989  0.7476  0.1221  0.2581
  188DOPC   H4X23202   2.187   0.086  13.014  1.8275  2.4772  2.1350
  188DOPC   H4Y23203   2.008   0.076  13.002  0.4557  0.6461  1.1393
  188DOPC   C3523204   2.081   0.261  13.089  0.3152 -0.4322  0.4399
  188DOPC   H5X23205   1.977   0.299  13.086  0.5915  0.6532  2.8707
  188DOPC   H5Y23206   2.151   0.346  13.068  0.4824 -0.4794  0.8039
  188DOPC   C3623207   2.106   0.217  13.227 -0.4356 -0.5303 -0.4833
  188DOPC   H6X23208   2.071   0.117  13.260 -0.6681 -0.2503  0.1357
  188DOPC   H6Y23209   2.216   0.221  13.242 -0.3035 -0.9510 -1.2742
  188DOPC   C3723210   2.057   0.326  13.325  0.1892 -0.5085 -0.4098
  188DOPC   H7X23211   2.073   0.424  13.277 -2.2930 -0.0722 -0.4886
  188DOPC   H7Y23212   1.946   0.322  13.334  0.2601  0.0302  0.7719
  188DOPC   C3823213   2.127   0.314  13.467  0.2625 -0.6499  0.5677
  188DOPC   H8X23214   2.228   0.358  13.454  1.3782 -3.3259 -0.7109
  188DOPC   H8Y23215   2.130   0.203  13.478 -0.5533 -0.8700 -1.1404
  188DOPC   C3923216   2.042   0.370  13.579 -0.6730 -0.1875 -0.5858
  188DOPC   H9X23217   2.049   0.479  13.588 -0.6289 -0.2200 -0.2219
  188DOPC  C31023218   1.963   0.297  13.664  0.2963 -0.3242  0.1326
  188DOPC  H10X23219   1.914   0.355  13.744  0.2863  1.4638 -1.1063
  188DOPC  C31123220   1.937   0.151  13.667  0.3416  0.2265 -0.0552
  188DOPC  H11X23221   1.913   0.109  13.567  1.4489 -1.3909  0.3129
  188DOPC  H11Y23222   1.844   0.129  13.723 -0.3070 -0.4657 -1.3398
  188DOPC  C31223223   2.050   0.077  13.740  0.7767  0.4642  0.2950
  188DOPC  H12X23224   2.047   0.094  13.849  2.2509  0.2742  0.3883
  188DOPC  H12Y23225   2.149   0.110  13.701  0.9137 -0.0850  0.1662
  188DOPC  C31323226   2.037  -0.075  13.707  0.0338 -0.2916 -0.8381
  188DOPC  H13X23227   1.934  -0.108  13.732  0.6642 -2.3391 -0.7987
  188DOPC  H13Y23228   2.060  -0.087  13.599  0.0813 -1.0125 -0.7514
  188DOPC  C31423229   2.143  -0.149  13.796  0.2899  0.2610  0.5826
  188DOPC  H14X23230   2.235  -0.088  13.784  0.2245  0.4605  1.0659
  188DOPC  H14Y23231   2.122  -0.144  13.905 -0.9316 -0.3088  0.3875
  188DOPC  C31523232   2.167  -0.292  13.745 -0.0296  0.0444 -0.7372
  188DOPC  H15X23233   2.190  -0.294  13.636  0.0741 -0.4357 -0.7089
  188DOPC  H15Y23234   2.071  -0.344  13.764 -0.3077  0.2432 -1.5744
  188DOPC  C31623235   2.290  -0.363  13.816 -0.3763 -0.1835  0.2724
  188DOPC  H16X23236   2.305  -0.460  13.764  2.1058  0.1428  0.2389
  188DOPC  H16Y23237   2.385  -0.310  13.793 -0.5958  0.0444 -0.1228
  188DOPC  C31723238   2.279  -0.386  13.963 -0.4191  0.3757 -0.4138
  188DOPC  H17X23239   2.278  -0.287  14.013  0.9013  0.3112 -0.2149
  188DOPC  H17Y23240   2.180  -0.437  13.972 -0.1920  0.1478  0.9660
  188DOPC  C31823241   2.394  -0.484  13.997  1.0393 -0.1343 -0.5551
  188DOPC  H18X23242   2.392  -0.582  13.943  1.7967 -0.0301 -0.7734
  188DOPC  H18Y23243   2.493  -0.435  13.991  2.3176 -2.6668 -2.6382
  188DOPC  H18Z23244   2.379  -0.517  14.102 -1.7511 -2.8283 -1.6063
  189DOPC     N23245   2.645   6.444  11.819 -0.4891 -0.0488 -0.0652
  189DOPC   C1223246   2.693   6.585  11.843 -0.3332 -0.5265  0.3057
  189DOPC  H12A23247   2.631   6.635  11.916 -1.7679 -0.7876 -0.6921
  189DOPC  H12B23248   2.683   6.658  11.764 -2.2370  0.5136  1.4371
  189DOPC   C1323249   2.734   6.374  11.717 -0.0849 -0.5758 -0.1097
  189DOPC  H13A23250   2.738   6.434  11.627  0.5754  0.0625  0.3321
  189DOPC  H13B23251   2.834   6.378  11.757 -1.6722 -0.4835  4.4713
  189DOPC  H13C23252   2.710   6.269  11.707  1.1623 -0.9036  0.1371
  189DOPC   C1423253   2.517   6.461  11.755  0.4539  0.4744 -1.2549
  189DOPC  H14A23254   2.475   6.369  11.715  0.2522  0.3489 -0.7625
  189DOPC  H14B23255   2.447   6.503  11.825  1.3740  1.1613 -0.7312
  189DOPC  H14C23256   2.518   6.540  11.682  0.3590  1.2834 -0.3923
  189DOPC   C1523257   2.637   6.360  11.945  0.3544 -0.0939  0.1277
  189DOPC  H15A23258   2.733   6.342  11.990 -0.1165  0.4126  1.4004
  189DOPC  H15B23259   2.590   6.265  11.924  0.9104 -0.1691 -0.8255
  189DOPC  H15C23260   2.587   6.412  12.026 -0.1024 -0.1074 -0.1446
  189DOPC   C1123261   2.840   6.588  11.889  0.5877 -0.1707  0.0449
  189DOPC  H11A23262   2.860   6.695  11.910 -0.4006  0.2527 -1.0705
  189DOPC  H11B23263   2.860   6.526  11.979  1.5223  1.2188  0.8327
  189DOPC     P23264   3.078   6.550  11.818 -0.3583  0.4474 -0.2304
  189DOPC   O1323265   3.160   6.627  11.716  0.2054 -0.1320 -0.1377
  189DOPC   O1423266   3.109   6.407  11.837  0.5485  0.0081  0.0634
  189DOPC   O1223267   2.924   6.567  11.777  0.0991  0.0903  0.2649
  189DOPC   O1123268   3.089   6.625  11.956 -0.7982 -0.1154 -0.2451
  189DOPC    C123269   3.122   6.764  11.976  0.1149  0.6442  0.3594
  189DOPC    HA23270   3.072   6.822  11.895  1.5057  0.5008 -0.6224
  189DOPC    HB23271   3.230   6.781  11.955 -0.1739  2.9397  0.5025
  189DOPC    C223272   3.107   6.811  12.118  0.1525  0.0895 -0.0569
  189DOPC    HS23273   3.133   6.918  12.135 -0.3454 -0.1864  3.1438
  189DOPC   O2123274   3.180   6.736  12.221 -0.1404  0.1941  0.0315
  189DOPC   C2123275   3.308   6.757  12.215 -0.4794  0.0969 -0.2603
  189DOPC   O2223276   3.372   6.825  12.138  0.5249  0.1407  0.0889
  189DOPC   C2223277   3.384   6.682  12.329 -0.3614 -0.1060 -0.1565
  189DOPC   H2R23278   3.488   6.672  12.288 -0.4831  0.2854 -0.5760
  189DOPC   H2S23279   3.343   6.580  12.344 -0.6628 -0.1834 -1.3716
  189DOPC    C323280   2.950   6.815  12.153 -0.8420  1.0622  0.7358
  189DOPC    HX23281   2.917   6.711  12.171 -1.7346  1.2149  0.0423
  189DOPC    HY23282   2.888   6.851  12.068 -0.3997 -2.0216 -1.0339
  189DOPC   O3123283   2.932   6.906  12.266  0.5930  0.3693 -0.2822
  189DOPC   C3123284   2.935   6.849  12.392 -0.0561 -0.5288  0.1530
  189DOPC   O3223285   2.949   6.730  12.411 -0.2551 -0.1251  0.0422
  189DOPC   C3223286   2.918   6.963  12.497 -0.2144 -0.0372 -0.1758
  189DOPC   H2X23287   3.015   7.017  12.496  0.2695 -0.8968 -0.6588
  189DOPC   H2Y23288   2.836   7.030  12.465 -1.8108 -1.4352  0.8511
  189DOPC   C2323289   3.407   6.759  12.456  0.0547  0.2103 -0.5781
  189DOPC   H3R23290   3.430   6.866  12.433 -2.1391  1.3870  2.1418
  189DOPC   H3S23291   3.496   6.713  12.503 -1.0834  0.3850  1.8974
  189DOPC   C2423292   3.287   6.756  12.562 -0.4033  0.0759 -0.4377
  189DOPC   H4R23293   3.261   6.650  12.585  0.1964 -0.4968 -2.2481
  189DOPC   H4S23294   3.192   6.791  12.518 -0.5750 -0.3232 -0.3869
  189DOPC   C2523295   3.315   6.834  12.698 -0.8360  0.3742 -0.2117
  189DOPC   H5R23296   3.219   6.821  12.752 -0.9662  2.2606  0.0654
  189DOPC   H5S23297   3.337   6.941  12.679 -2.3198  0.9338  1.0724
  189DOPC   C2623298   3.418   6.767  12.790  0.1653 -0.2211 -0.4550
  189DOPC   H6R23299   3.519   6.764  12.743  2.5962 -0.1960  4.1924
  189DOPC   H6S23300   3.396   6.663  12.821 -0.1151  0.4138  1.6243
  189DOPC   C2723301   3.431   6.850  12.919 -0.2792  0.1706 -0.6626
  189DOPC   H7R23302   3.339   6.852  12.981  1.0570  2.3857  1.4541
  189DOPC   H7S23303   3.437   6.957  12.891 -0.9901  1.4548  3.3528
  189DOPC   C2823304   3.550   6.812  13.008  1.1642 -0.5456  0.0702
  189DOPC   H8R23305   3.635   6.786  12.941  1.3210 -0.6167  0.2959
  189DOPC   H8S23306   3.514   6.731  13.075 -0.5278  0.3412  0.2871
  189DOPC   C2923307   3.579   6.928  13.111  0.5200  0.1034  0.7444
  189DOPC   H9R23308   3.576   7.028  13.064 -0.9074 -0.2106  0.0824
  189DOPC  C21023309   3.583   6.933  13.247 -0.9102 -0.1519 -0.9278
  189DOPC  H10R23310   3.593   7.032  13.294 -0.9140  0.2761 -1.8018
  189DOPC  C21123311   3.571   6.821  13.341  0.6379  0.4658  0.2722
  189DOPC  H11R23312   3.648   6.748  13.306 -0.3340 -0.5899  0.2977
  189DOPC  H11S23313   3.468   6.779  13.338  0.9680 -0.3509 -1.8041
  189DOPC  C21223314   3.605   6.846  13.494 -0.1601 -0.4529  0.0309
  189DOPC  H12R23315   3.617   6.747  13.542 -0.7215  0.3010  1.7767
  189DOPC  H12S23316   3.521   6.897  13.546 -0.9135 -2.2324  0.6285
  189DOPC  C21323317   3.742   6.917  13.519 -0.3711 -0.1861  0.0371
  189DOPC  H13R23318   3.717   7.020  13.489  1.4095  0.1374 -0.4529
  189DOPC  H13S23319   3.814   6.879  13.443 -0.1984  1.4033 -0.6195
  189DOPC  C21423320   3.791   6.902  13.664  0.4339 -0.4504 -0.0409
  189DOPC  H14R23321   3.894   6.942  13.676 -0.4592  1.9656  0.1915
  189DOPC  H14S23322   3.778   6.793  13.680 -1.6850 -0.2104  0.0755
  189DOPC  C21523323   3.704   6.977  13.767 -0.1528 -0.0227  0.4380
  189DOPC  H15R23324   3.599   6.944  13.751  0.1176 -0.6499 -0.1137
  189DOPC  H15S23325   3.691   7.086  13.750 -1.0507  0.3955  3.3046
  189DOPC  C21623326   3.747   6.976  13.911 -0.0227 -0.1829 -0.0259
  189DOPC  H16R23327   3.690   7.051  13.969 -1.8080 -0.9591 -0.6932
  189DOPC  H16S23328   3.854   7.007  13.912  0.0429 -0.3902  1.2796
  189DOPC  C21723329   3.766   6.834  13.951 -0.4089  0.5821 -0.7231
  189DOPC  H17R23330   3.863   6.799  13.909 -0.7555 -1.4069  0.0230
  189DOPC  H17S23331   3.680   6.778  13.909  0.3153 -1.7099  0.5999
  189DOPC  C21823332   3.780   6.817  14.105 -0.0619  0.0065  0.0981
  189DOPC  H18R23333   3.852   6.892  14.144 -0.5969  0.4364  0.2649
  189DOPC  H18S23334   3.817   6.714  14.127 -1.2827 -0.2655  0.9781
  189DOPC  H18T23335   3.687   6.829  14.165  1.2664 -0.9558  2.4797
  189DOPC   C3323336   2.881   6.915  12.638  0.4326 -0.7317 -0.6410
  189DOPC   H3X23337   2.946   6.834  12.677  1.4506  0.4290  0.1137
  189DOPC   H3Y23338   2.787   6.857  12.626 -0.0936  0.4556 -2.8573
  189DOPC   C3423339   2.880   7.042  12.734 -0.1384  0.5921  0.3531
  189DOPC   H4X23340   2.822   7.120  12.680  3.0054  0.1672 -4.3035
  189DOPC   H4Y23341   2.984   7.080  12.733 -0.1789  0.7050 -0.1351
  189DOPC   C3523342   2.833   7.013  12.876 -0.1865  0.0100  0.4374
  189DOPC   H5X23343   2.727   6.978  12.876 -0.6626  1.3832  0.5200
  189DOPC   H5Y23344   2.839   7.113  12.926 -1.0868  0.4748 -0.3446
  189DOPC   C3623345   2.917   6.919  12.964  0.5079  0.1613  0.3247
  189DOPC   H6X23346   2.911   6.813  12.929  3.8894 -0.5646  1.5252
  189DOPC   H6Y23347   3.025   6.946  12.962 -0.0036  2.3412 -1.5740
  189DOPC   C3723348   2.863   6.913  13.105 -0.1495 -0.1255 -0.5680
  189DOPC   H7X23349   2.756   6.887  13.096  0.4125 -3.3396  0.6415
  189DOPC   H7Y23350   2.904   6.821  13.152  1.7864  1.1422  0.3771
  189DOPC   C3823351   2.885   7.027  13.197 -0.2755  0.1214  0.4162
  189DOPC   H8X23352   2.815   7.028  13.283  0.2586  0.4117  0.8512
  189DOPC   H8Y23353   2.858   7.126  13.154 -2.3514  0.2379  1.8200
  189DOPC   C3923354   3.026   7.034  13.244  0.3631  0.0228  0.0407
  189DOPC   H9X23355   3.094   7.072  13.166  1.1653  0.0636  0.7557
  189DOPC  C31023356   3.070   7.023  13.367 -0.1880 -0.0500  0.0979
  189DOPC  H10X23357   3.178   7.021  13.388 -0.1020 -0.5635 -0.3676
  189DOPC  C31123358   2.987   7.014  13.490  0.0486  0.4155 -0.6016
  189DOPC  H11X23359   2.942   6.913  13.497  2.8816 -1.0422 -1.9538
  189DOPC  H11Y23360   2.899   7.081  13.478 -0.4666  0.2055  1.6667
  189DOPC  C31223361   3.064   7.040  13.619  0.0640 -0.6154  0.5170
  189DOPC  H12X23362   2.997   7.052  13.708  0.2357 -1.3826  0.7555
  189DOPC  H12Y23363   3.130   7.130  13.618 -0.3907 -0.1250 -3.7051
  189DOPC  C31323364   3.132   6.914  13.677  0.0009 -0.4060  0.2838
  189DOPC  H13X23365   3.060   6.841  13.718  0.0724 -0.4577  0.3184
  189DOPC  H13Y23366   3.182   6.860  13.593  0.8416  1.3692 -0.4167
  189DOPC  C31423367   3.240   6.938  13.792  0.3034  0.9709  0.6058
  189DOPC  H14X23368   3.294   6.842  13.802 -0.8163  0.0370 -1.6602
  189DOPC  H14Y23369   3.305   7.021  13.757 -1.4903  2.5506  0.8434
  189DOPC  C31523370   3.182   6.988  13.921 -0.5957  0.0498  0.1817
  189DOPC  H15X23371   3.118   7.076  13.896 -0.1294  0.0604 -1.0736
  189DOPC  H15Y23372   3.271   7.021  13.978 -0.7835 -0.4812  0.7869
  189DOPC  C31623373   3.113   6.880  14.005  0.0346  0.4665  0.2142
  189DOPC  H16X23374   3.031   6.852  13.935 -0.5644 -0.6896  1.3277
  189DOPC  H16Y23375   3.187   6.797  14.010  0.8345  1.2201  1.2607
  189DOPC  C31723376   3.053   6.923  14.137  0.1419  0.3600  0.2168
  189DOPC  H17X23377   3.027   6.834  14.199 -2.5913 -1.9300 -3.6978
  189DOPC  H17Y23378   3.137   6.979  14.182  0.0370  1.1121 -0.4994
  189DOPC  C31823379   2.930   7.012  14.127  0.2184 -0.0041  0.1279
  189DOPC  H18X23380   2.945   7.103  14.065  0.8085  1.4997  2.3467
  189DOPC  H18Y23381   2.847   6.955  14.080  0.1645  1.4020 -1.5946
  189DOPC  H18Z23382   2.887   7.047  14.223  1.6205  1.1203  0.3879
  190DOPC     N23383   0.887   6.227  11.704 -0.0198  0.2953 -0.3511
  190DOPC   C1223384   0.954   6.234  11.840 -0.5523 -0.1472 -0.2226
  190DOPC  H12A23385   1.050   6.186  11.837  0.4535  1.7891 -1.0780
  190DOPC  H12B23386   0.894   6.184  11.914  0.6068  0.0863  0.9224
  190DOPC   C1323387   0.860   6.088  11.669  0.2424  0.0846  0.5999
  190DOPC  H13A23388   0.954   6.035  11.667  0.3731  0.3118 -0.9582
  190DOPC  H13B23389   0.793   6.031  11.731  0.0752 -1.0569 -0.5999
  190DOPC  H13C23390   0.826   6.074  11.567  1.3377  2.3381 -0.1655
  190DOPC   C1423391   0.976   6.274  11.595  0.3555 -0.1321 -0.0636
  190DOPC  H14A23392   1.080   6.247  11.608  1.1504  1.6216 -2.0974
  190DOPC  H14B23393   0.943   6.230  11.502  0.4721 -1.3258  0.4448
  190DOPC  H14C23394   0.980   6.382  11.591  0.7094 -0.1750 -1.7273
  190DOPC   C1523395   0.769   6.314  11.708 -0.0456  0.5381  0.2591
  190DOPC  H15A23396   0.714   6.307  11.615  1.4047 -0.8277 -0.5593
  190DOPC  H15B23397   0.797   6.414  11.736  0.4166  0.0297  1.7288
  190DOPC  H15C23398   0.701   6.283  11.786  1.9728 -0.7181  1.6399
  190DOPC   C1123399   0.987   6.380  11.899 -0.4802 -0.0845  0.4345
  190DOPC  H11A23400   0.893   6.439  11.904 -0.7660 -0.6323  2.4231
  190DOPC  H11B23401   1.013   6.354  12.004  2.1472 -1.5950 -0.4975
  190DOPC     P23402   1.240   6.437  11.888 -0.4990  0.1967 -0.2098
  190DOPC   O1323403   1.341   6.482  11.786  0.3978  0.8954  0.4553
  190DOPC   O1423404   1.259   6.304  11.952  0.3033  0.0505  0.3796
  190DOPC   O1223405   1.100   6.446  11.836 -0.1352 -0.8347  0.9361
  190DOPC   O1123406   1.234   6.555  11.996 -0.2078 -0.0754 -0.2058
  190DOPC    C123407   1.158   6.666  11.962  0.6170  0.5086 -0.0086
  190DOPC    HA23408   1.049   6.650  11.975 -0.1605  1.8290 -3.7334
  190DOPC    HB23409   1.174   6.693  11.856 -0.9538  0.3459 -0.3096
  190DOPC    C223410   1.188   6.786  12.065  0.6054 -0.7749  0.0458
  190DOPC    HS23411   1.298   6.792  12.068  0.6793 -1.6320 -0.4985
  190DOPC   O2123412   1.122   6.758  12.192 -0.3062  0.0613  0.5275
  190DOPC   C2123413   1.194   6.759  12.299 -0.2296 -0.0721 -0.0477
  190DOPC   O2223414   1.304   6.814  12.308  0.6990  0.7927 -0.2958
  190DOPC   C2223415   1.123   6.685  12.414  0.3659 -0.0366  0.0886
  190DOPC   H2R23416   1.151   6.579  12.402 -1.6895 -0.4333 -1.6673
  190DOPC   H2S23417   1.013   6.683  12.401  0.5506  0.5050 -1.9792
  190DOPC    C323418   1.133   6.920  12.010 -0.0149  0.1403 -0.4099
  190DOPC    HX23419   1.024   6.906  11.992 -0.0572 -0.3509  0.2254
  190DOPC    HY23420   1.176   6.936  11.908  0.3648  0.3572 -0.2168
  190DOPC   O3123421   1.144   7.032  12.098  0.5132 -0.7802  1.0659
  190DOPC   C3123422   1.259   7.094  12.100  0.0418 -1.4427  0.1745
  190DOPC   O3223423   1.353   7.078  12.025 -0.1341 -0.0102 -0.4347
  190DOPC   C3223424   1.269   7.200  12.207  0.1390  0.5991 -0.6293
  190DOPC   H2X23425   1.308   7.299  12.176  0.6910  0.7063  0.3625
  190DOPC   H2Y23426   1.164   7.222  12.233  0.4317  3.0491 -1.2861
  190DOPC   C2323427   1.175   6.749  12.550 -0.1392 -0.0532  0.5925
  190DOPC   H3R23428   1.134   6.852  12.560 -0.8291 -0.2707  0.1281
  190DOPC   H3S23429   1.285   6.753  12.539 -0.2167  0.9043  0.0703
  190DOPC   C2423430   1.131   6.660  12.670  0.1595  0.3264  0.0591
  190DOPC   H4R23431   1.179   6.561  12.657  1.3492  0.9510 -0.4755
  190DOPC   H4S23432   1.022   6.639  12.662  0.7842 -2.8641 -2.0855
  190DOPC   C2523433   1.165   6.737  12.797  0.3152 -0.3534 -0.5276
  190DOPC   H5R23434   1.118   6.837  12.796 -2.0111 -1.3439  0.4062
  190DOPC   H5S23435   1.274   6.736  12.813  0.3580  0.2368 -0.7912
  190DOPC   C2623436   1.099   6.672  12.919  0.3348  0.2744  0.0147
  190DOPC   H6R23437   1.140   6.569  12.919  0.6705  0.2652  3.8446
  190DOPC   H6S23438   0.990   6.660  12.902  0.4156 -2.0719  0.7275
  190DOPC   C2723439   1.125   6.746  13.047 -0.4482 -0.6494  0.1487
  190DOPC   H7R23440   1.056   6.699  13.120 -0.6501  1.1071  1.1418
  190DOPC   H7S23441   1.101   6.854  13.034 -0.3344 -0.6093  0.2760
  190DOPC   C2823442   1.269   6.726  13.112  0.2803 -0.2378  0.3631
  190DOPC   H8R23443   1.344   6.750  13.034  1.2721 -2.0802  0.6967
  190DOPC   H8S23444   1.301   6.620  13.125  2.0640  0.0647 -1.1461
  190DOPC   C2923445   1.296   6.807  13.239  0.8334  0.1533  0.6241
  190DOPC   H9R23446   1.325   6.913  13.234 -0.6152  0.5121 -0.9193
  190DOPC  C21023447   1.279   6.760  13.361  0.3472 -0.4011 -0.5295
  190DOPC  H10R23448   1.310   6.828  13.441  0.5458  0.6508 -1.4727
  190DOPC  C21123449   1.231   6.630  13.414  0.2679  0.2089 -0.0901
  190DOPC  H11R23450   1.303   6.589  13.488  0.4817  0.7744  0.0160
  190DOPC  H11S23451   1.223   6.555  13.332  1.1165 -1.2568  1.1070
  190DOPC  C21223452   1.094   6.661  13.486  0.4112 -0.4537 -0.1450
  190DOPC  H12R23453   1.048   6.561  13.506 -0.1368 -0.2390 -0.3095
  190DOPC  H12S23454   1.032   6.715  13.411  1.4345 -0.0165 -0.6985
  190DOPC  C21323455   1.095   6.730  13.619  0.3390 -0.8192 -0.3776
  190DOPC  H13R23456   1.142   6.830  13.619 -1.5739  0.1098 -0.6327
  190DOPC  H13S23457   1.159   6.675  13.692  2.2262  1.4377 -0.2292
  190DOPC  C21423458   0.947   6.752  13.659 -0.9902 -0.0236 -0.4951
  190DOPC  H14R23459   0.895   6.653  13.651 -2.3553  0.4197  2.0245
  190DOPC  H14S23460   0.896   6.828  13.596 -0.8331 -0.0472 -0.6518
  190DOPC  C21523461   0.941   6.791  13.810 -0.1304  0.1021  0.1048
  190DOPC  H15R23462   0.845   6.841  13.835 -1.6084 -2.1128 -0.8146
  190DOPC  H15S23463   1.022   6.867  13.822  2.2503 -1.9445 -1.7704
  190DOPC  C21623464   0.980   6.688  13.917  0.3428 -0.2929  0.3258
  190DOPC  H16R23465   1.085   6.653  13.915 -0.6580 -3.6103 -1.0115
  190DOPC  H16S23466   0.913   6.600  13.908 -0.4746  0.5220 -2.7766
  190DOPC  C21723467   0.967   6.741  14.060 -0.0191 -0.1937  0.5706
  190DOPC  H17R23468   0.859   6.766  14.073  0.1306  1.5324 -1.1325
  190DOPC  H17S23469   1.014   6.841  14.065  2.7641 -1.3658 -0.4019
  190DOPC  C21823470   1.018   6.651  14.173  0.7056  0.1592  0.0098
  190DOPC  H18R23471   1.123   6.629  14.143  0.7124  1.8644 -1.3906
  190DOPC  H18S23472   0.954   6.561  14.171  0.2223  0.4714 -3.4020
  190DOPC  H18T23473   1.021   6.702  14.272  2.9055 -0.4583  0.3188
  190DOPC   C3323474   1.347   7.139  12.331 -0.0999 -0.0527  0.0162
  190DOPC   H3X23475   1.442   7.104  12.286  1.6207  2.0105  1.8020
  190DOPC   H3Y23476   1.297   7.051  12.376  2.0922  0.1909  3.2654
  190DOPC   C3423477   1.372   7.257  12.438  0.4535 -0.0983  0.2531
  190DOPC   H4X23478   1.407   7.351  12.391 -0.3841 -0.2997 -0.8036
  190DOPC   H4Y23479   1.442   7.212  12.512 -0.1559 -1.0540  0.2730
  190DOPC   C3523480   1.245   7.288  12.523 -0.9615 -0.7667 -0.3793
  190DOPC   H5X23481   1.152   7.308  12.465 -0.3800  1.9245 -0.5230
  190DOPC   H5Y23482   1.266   7.387  12.570 -0.6382 -1.7224  1.6027
  190DOPC   C3623483   1.216   7.193  12.640 -0.6057  0.2450  0.7087
  190DOPC   H6X23484   1.176   7.113  12.575  1.0686 -0.0942  0.0423
  190DOPC   H6Y23485   1.309   7.165  12.694  0.0503  3.0097  1.1635
  190DOPC   C3723486   1.093   7.239  12.727 -0.3868  0.1902  0.1871
  190DOPC   H7X23487   1.117   7.338  12.771 -0.2915  0.3213 -0.1503
  190DOPC   H7Y23488   1.012   7.265  12.655 -1.3090 -0.9190  0.7974
  190DOPC   C3823489   1.047   7.136  12.833 -0.1332 -0.4303  0.1525
  190DOPC   H8X23490   1.018   7.038  12.790  0.9177 -0.7001  0.0527
  190DOPC   H8Y23491   0.955   7.174  12.883  1.0505  0.8312  1.4485
  190DOPC   C3923492   1.158   7.108  12.925  0.1651 -0.5154  0.1703
  190DOPC   H9X23493   1.252   7.083  12.875 -0.5806 -0.3949 -1.3310
  190DOPC  C31023494   1.149   7.123  13.060  0.4657 -0.3675 -0.0750
  190DOPC  H10X23495   1.239   7.098  13.118  0.1056  1.5056  1.4090
  190DOPC  C31123496   1.028   7.165  13.142 -0.6141 -0.0633  0.4967
  190DOPC  H11X23497   0.939   7.115  13.098  0.0336 -0.3311 -0.5564
  190DOPC  H11Y23498   1.013   7.274  13.126  2.5785  0.3930 -0.2298
  190DOPC  C31223499   1.029   7.132  13.290 -0.4767 -0.9210  0.1767
  190DOPC  H12X23500   1.049   7.024  13.302  3.2573 -0.4760 -0.6235
  190DOPC  H12Y23501   0.929   7.143  13.337  0.3423  1.5833  1.5143
  190DOPC  C31323502   1.115   7.210  13.395  0.5454  0.1583 -0.0523
  190DOPC  H13X23503   1.220   7.178  13.379  1.3282  1.5929  1.8570
  190DOPC  H13Y23504   1.103   7.320  13.386 -1.2105 -0.0828 -1.2457
  190DOPC  C31423505   1.074   7.173  13.538 -0.3909  0.6186  0.8021
  190DOPC  H14X23506   0.966   7.196  13.553 -0.6396 -1.6950  3.1330
  190DOPC  H14Y23507   1.082   7.062  13.537 -2.6948  0.2844 -3.4382
  190DOPC  C31523508   1.165   7.233  13.636  0.7557  0.8432 -0.3561
  190DOPC  H15X23509   1.163   7.344  13.636  0.8650  0.8825  1.6964
  190DOPC  H15Y23510   1.269   7.194  13.623  0.8807  1.1167 -0.1940
  190DOPC  C31623511   1.124   7.187  13.777 -0.1149 -0.3016  0.2382
  190DOPC  H16X23512   1.083   7.272  13.835 -0.0210 -0.7109  0.9139
  190DOPC  H16Y23513   1.050   7.105  13.765  1.7785 -1.8230 -2.2517
  190DOPC  C31723514   1.237   7.134  13.864 -0.3435 -0.4454  0.4332
  190DOPC  H17X23515   1.268   7.029  13.846  1.0546  0.1692 -0.8703
  190DOPC  H17Y23516   1.326   7.193  13.835 -2.0057  1.2912 -1.4747
  190DOPC  C31823517   1.201   7.149  14.012  0.1747 -0.9813 -0.4594
  190DOPC  H18X23518   1.198   7.260  14.024 -1.8179 -1.0899  0.3397
  190DOPC  H18Y23519   1.116   7.085  14.044 -0.0384 -1.9000 -2.6891
  190DOPC  H18Z23520   1.291   7.122  14.072  0.4993 -0.6631 -0.7979
  191DOPC     N23521   4.483   5.898  11.747 -0.0934 -0.1743  0.0025
  191DOPC   C1223522   4.551   5.973  11.864  0.1202  1.0793 -0.0692
  191DOPC  H12A23523   4.648   6.015  11.843  0.0312  1.1829 -0.2802
  191DOPC  H12B23524   4.576   5.906  11.945 -1.7397  1.1839  0.6414
  191DOPC   C1323525   4.571   5.800  11.697  0.4241 -0.2557  0.1436
  191DOPC  H13A23526   4.522   5.755  11.612  0.5967  1.0043 -0.6497
  191DOPC  H13B23527   4.658   5.856  11.668  0.3449 -0.1901  0.0312
  191DOPC  H13C23528   4.594   5.723  11.768 -1.4521 -0.3698  0.6932
  191DOPC   C1423529   4.440   5.996  11.634 -0.3325  0.7615 -1.1316
  191DOPC  H14A23530   4.526   6.029  11.577  0.4184 -1.0617 -1.1212
  191DOPC  H14B23531   4.372   5.946  11.566 -1.2263  0.0879  0.2265
  191DOPC  H14C23532   4.391   6.082  11.678 -1.4179  0.5972 -1.9776
  191DOPC   C1523533   4.368   5.829  11.804  0.5389 -0.5183 -0.1242
  191DOPC  H15A23534   4.316   5.789  11.718  0.6435 -0.4092 -0.2379
  191DOPC  H15B23535   4.299   5.894  11.856  1.0050  0.9507 -1.3068
  191DOPC  H15C23536   4.388   5.746  11.870  1.2654 -0.3465 -0.1180
  191DOPC   C1123537   4.469   6.093  11.925  1.0956 -0.6090  0.1322
  191DOPC  H11A23538   4.369   6.050  11.947  0.5634  1.8443  3.1773
  191DOPC  H11B23539   4.505   6.114  12.028  0.1725  1.1513  0.1278
  191DOPC     P23540   4.589   6.285  11.804  0.2748  0.2596  0.1227
  191DOPC   O1323541   4.535   6.403  11.731  0.2158  0.5675 -0.3168
  191DOPC   O1423542   4.678   6.199  11.728  0.8780  0.9459 -0.0566
  191DOPC   O1223543   4.459   6.208  11.838 -0.6173  0.5948  0.5137
  191DOPC   O1123544   4.657   6.309  11.943 -0.4528  0.1187  0.1687
  191DOPC    C123545   4.630   6.423  12.026 -0.2751  1.1318  0.3164
  191DOPC    HA23546   4.525   6.460  12.023 -1.0083 -0.8642 -1.8243
  191DOPC    HB23547   4.700   6.504  11.996  1.4139 -0.4052 -0.0728
  191DOPC    C223548   4.654   6.391  12.176 -0.5813  0.1238  0.7651
  191DOPC    HS23549   4.760   6.357  12.186  0.3942  3.1154  1.7126
  191DOPC   O2123550   4.563   6.281  12.212  0.9106 -0.4229 -0.3361
  191DOPC   C2123551   4.600   6.194  12.304 -0.5146 -0.1049  0.3617
  191DOPC   O2223552   4.709   6.199  12.362  0.7109  0.3617 -0.4344
  191DOPC   C2223553   4.491   6.086  12.323 -0.3991 -0.1190  0.0112
  191DOPC   H2R23554   4.484   6.036  12.224 -0.7104  1.0383 -0.5805
  191DOPC   H2S23555   4.396   6.142  12.340 -0.8553 -0.9049  0.0656
  191DOPC    C323556   4.621   6.519  12.261  0.3020 -0.2154  0.9107
  191DOPC    HX23557   4.513   6.545  12.251  0.9013  1.4771 -2.5898
  191DOPC    HY23558   4.676   6.605  12.218 -1.9813  1.1572  0.5698
  191DOPC   O3123559   4.648   6.502  12.397  0.3024  0.2044  0.1869
  191DOPC   C3123560   4.779   6.503  12.424  0.1586 -0.1966  0.4114
  191DOPC   O3223561   4.865   6.539  12.347 -0.0791  0.0867  0.7605
  191DOPC   C3223562   4.810   6.444  12.567 -0.7678  0.4717 -0.1127
  191DOPC   H2X23563   4.711   6.416  12.609 -0.7623  1.8799  0.9408
  191DOPC   H2Y23564   4.862   6.347  12.553  0.3867  1.2928 -1.9546
  191DOPC   C2323565   4.528   5.994  12.440 -0.0421  0.1940  0.4436
  191DOPC   H3R23566   4.628   5.953  12.414 -0.1840  1.0767 -1.6811
  191DOPC   H3S23567   4.457   5.909  12.432  1.3048 -0.8967 -0.4740
  191DOPC   C2423568   4.521   6.058  12.581 -0.0068  0.2861  0.0391
  191DOPC   H4R23569   4.412   6.072  12.595 -0.2241 -1.1416 -0.0691
  191DOPC   H4S23570   4.570   6.157  12.575 -0.3913  0.3966 -2.0604
  191DOPC   C2523571   4.581   5.964  12.686 -0.0206 -0.3686  0.5119
  191DOPC   H5R23572   4.689   5.952  12.665  0.0979 -1.4438  1.5948
  191DOPC   H5S23573   4.521   5.871  12.680 -4.5849  2.2221  1.3224
  191DOPC   C2623574   4.552   6.029  12.828  0.1384  0.0318  0.3903
  191DOPC   H6R23575   4.464   6.097  12.822  0.8613  1.0266  0.6543
  191DOPC   H6S23576   4.639   6.090  12.858  1.2183 -1.2173 -0.1123
  191DOPC   C2723577   4.527   5.921  12.940  0.4709 -0.2465 -0.1633
  191DOPC   H7R23578   4.623   5.867  12.951  0.7833  0.2884 -0.2442
  191DOPC   H7S23579   4.448   5.850  12.906  0.4251 -0.1352 -0.2926
  191DOPC   C2823580   4.490   5.994  13.073 -0.4187  0.3493 -0.8178
  191DOPC   H8R23581   4.400   6.053  13.046 -1.7291 -1.2376 -0.1127
  191DOPC   H8S23582   4.570   6.066  13.101 -1.4343  0.7501  1.2615
  191DOPC   C2923583   4.468   5.891  13.181 -0.1654  0.4016  0.5856
  191DOPC   H9R23584   4.364   5.857  13.184 -0.7919  1.5679 -2.9906
  191DOPC  C21023585   4.544   5.846  13.282  0.3835 -0.0557 -0.0139
  191DOPC  H10R23586   4.487   5.793  13.360  1.2580  2.6416  2.6387
  191DOPC  C21123587   4.689   5.880  13.305  0.8745 -0.4795 -0.0267
  191DOPC  H11R23588   4.740   5.937  13.224 -0.3865  0.0870 -0.4544
  191DOPC  H11S23589   4.749   5.787  13.311 -0.7791 -1.5755  0.4115
  191DOPC  C21223590   4.711   5.958  13.441  0.3603 -0.2364 -0.3734
  191DOPC  H12R23591   4.655   6.053  13.455 -1.7273 -1.4726 -0.0628
  191DOPC  H12S23592   4.814   5.999  13.431 -0.9042  2.7343 -3.2988
  191DOPC  C21323593   4.689   5.873  13.562  0.7153 -0.7936 -0.5685
  191DOPC  H13R23594   4.717   5.766  13.551 -1.5961 -1.5148  0.0592
  191DOPC  H13S23595   4.580   5.857  13.578  0.8353  0.2251  1.5564
  191DOPC  C21423596   4.747   5.924  13.699  0.0164 -0.6532 -0.0113
  191DOPC  H14R23597   4.723   5.847  13.775  3.0390  0.8216  2.6387
  191DOPC  H14S23598   4.701   6.020  13.729  2.7425  0.7945 -0.2209
  191DOPC  C21523599   4.904   5.949  13.692  0.5965  0.3548 -1.1367
  191DOPC  H15R23600   4.922   6.038  13.628 -2.3784  0.9446 -1.2988
  191DOPC  H15S23601   4.937   5.854  13.647 -0.4019 -1.2229  1.2497
  191DOPC  C21623602   4.963   5.962  13.827 -0.4423  0.1818  0.0716
  191DOPC  H16R23603   4.924   5.884  13.896  0.6947 -1.4838 -1.0972
  191DOPC  H16S23604   4.933   6.061  13.867 -1.7764 -0.9668  2.0870
  191DOPC  C21723605   5.123   5.980  13.814  1.4366  0.0969 -0.8074
  191DOPC  H17R23606   5.135   6.078  13.762  2.7834  0.5939  0.3685
  191DOPC  H17S23607   5.175   5.908  13.747  0.2639 -0.9954 -0.5815
  191DOPC  C21823608   5.197   5.996  13.950  0.0861  0.1681  0.1322
  191DOPC  H18R23609   5.193   5.897  14.002  2.5961  1.0506  2.2748
  191DOPC  H18S23610   5.144   6.073  14.009 -1.4600  1.6023 -2.9214
  191DOPC  H18T23611   5.307   6.011  13.948 -0.0011  0.7764 -0.0896
  191DOPC   C3323612   4.893   6.544  12.659  0.4592  0.3313 -0.0435
  191DOPC   H3X23613   4.822   6.624  12.692  0.0737 -0.3925  0.9214
  191DOPC   H3Y23614   4.980   6.587  12.605 -0.3512  1.9967 -0.0872
  191DOPC   C3423615   4.954   6.474  12.786 -0.9610 -0.4576 -0.7017
  191DOPC   H4X23616   5.024   6.540  12.841 -1.1830 -1.4501  0.8124
  191DOPC   H4Y23617   5.027   6.397  12.755 -0.6967  0.3456 -2.1820
  191DOPC   C3523618   4.842   6.430  12.873  0.3062  0.5978 -0.7316
  191DOPC   H5X23619   4.794   6.335  12.842 -0.6244  0.6873  0.4070
  191DOPC   H5Y23620   4.775   6.518  12.883  0.1613  0.2180  2.3069
  191DOPC   C3623621   4.892   6.418  13.017 -0.3757  0.4944  0.4804
  191DOPC   H6X23622   4.974   6.347  12.996 -0.5593 -0.6478  3.2008
  191DOPC   H6Y23623   4.943   6.510  13.054  0.0665  1.0891 -1.4863
  191DOPC   C3723624   4.795   6.340  13.100  0.2038  0.2585 -0.0384
  191DOPC   H7X23625   4.693   6.385  13.094 -0.6036 -1.0964  2.1864
  191DOPC   H7Y23626   4.771   6.237  13.067 -0.0250  0.0463  0.7562
  191DOPC   C3823627   4.845   6.331  13.247  0.3930  0.3284 -0.9476
  191DOPC   H8X23628   4.946   6.291  13.225  1.0010  2.5730 -2.6283
  191DOPC   H8Y23629   4.784   6.249  13.289 -0.7641  0.4373 -2.3704
  191DOPC   C3923630   4.854   6.453  13.340 -0.7181 -0.0010  0.2214
  191DOPC   H9X23631   4.879   6.546  13.287  0.4577 -0.1284  0.5214
  191DOPC  C31023632   4.876   6.454  13.472  0.4106  0.6803  0.5569
  191DOPC  H10X23633   4.858   6.549  13.523 -0.8811  0.9794 -0.4064
  191DOPC  C31123634   4.895   6.337  13.558  0.2840  0.3993  0.0478
  191DOPC  H11X23635   4.931   6.252  13.496 -3.0943 -0.0022 -1.5819
  191DOPC  H11Y23636   4.808   6.303  13.617  0.4500 -0.0504  0.0405
  191DOPC  C31223637   5.004   6.351  13.662  0.6363 -0.4243  0.6944
  191DOPC  H12X23638   5.106   6.365  13.619  0.5193 -3.2087 -0.6941
  191DOPC  H12Y23639   5.011   6.252  13.713 -2.7995 -1.1825 -0.0287
  191DOPC  C31323640   4.994   6.463  13.770  0.3915  0.0623 -0.5544
  191DOPC  H13X23641   5.003   6.564  13.724 -1.5423 -0.8319 -3.1507
  191DOPC  H13Y23642   4.895   6.449  13.820 -0.8910  1.1294 -2.6501
  191DOPC  C31423643   5.099   6.449  13.882  0.0103  0.8895 -0.3250
  191DOPC  H14X23644   5.114   6.347  13.923 -0.2187  0.2033 -1.8541
  191DOPC  H14Y23645   5.187   6.476  13.819  1.0866  1.2715  1.2764
  191DOPC  C31523646   5.075   6.545  14.002  0.3802  0.4706  0.0987
  191DOPC  H15X23647   4.993   6.498  14.061  0.8008  0.2461  0.5092
  191DOPC  H15Y23648   5.038   6.642  13.962 -1.5007 -0.1166  0.2947
  191DOPC  C31623649   5.194   6.568  14.096  0.0455  0.1207 -0.2229
  191DOPC  H16X23650   5.200   6.462  14.130  1.7790  0.2183 -0.1429
  191DOPC  H16Y23651   5.283   6.602  14.037 -0.9850  1.0270 -1.3064
  191DOPC  C31723652   5.169   6.649  14.211  0.2061  0.0009 -0.0698
  191DOPC  H17X23653   5.075   6.605  14.251 -1.2250 -0.3684 -3.4294
  191DOPC  H17Y23654   5.245   6.645  14.291 -1.9193 -2.8580  2.0254
  191DOPC  C31823655   5.125   6.793  14.189 -0.3461 -0.3038  0.2953
  191DOPC  H18X23656   5.210   6.839  14.134 -0.8870  0.0384 -0.2724
  191DOPC  H18Y23657   5.036   6.785  14.123  0.1108 -1.7021 -0.1922
  191DOPC  H18Z23658   5.092   6.848  14.279 -1.1026 -0.3207  0.0389
  192DOPC     N23659   1.604   2.596  11.821 -0.8816  0.3744 -0.6467
  192DOPC   C1223660   1.665   2.680  11.939 -0.3089  0.4745 -0.0259
  192DOPC  H12A23661   1.627   2.781  11.937  0.4636  0.8216  1.1883
  192DOPC  H12B23662   1.773   2.682  11.938 -0.1786 -1.3932  2.0672
  192DOPC   C1323663   1.625   2.669  11.687  0.3795  0.7560  0.4207
  192DOPC  H13A23664   1.586   2.767  11.711  0.1895  0.0669  3.2503
  192DOPC  H13B23665   1.731   2.679  11.671  0.4523 -0.4047  0.1316
  192DOPC  H13C23666   1.579   2.624  11.600 -0.7109  0.4453  1.1394
  192DOPC   C1423667   1.460   2.562  11.832  0.4460  0.5669  0.2216
  192DOPC  H14A23668   1.442   2.514  11.927  0.5223 -0.1828 -0.1324
  192DOPC  H14B23669   1.410   2.657  11.826 -1.5554 -0.2773  2.2340
  192DOPC  H14C23670   1.422   2.504  11.749 -1.0171 -0.5601  1.6194
  192DOPC   C1523671   1.688   2.466  11.810  0.1699 -0.5008 -0.8996
  192DOPC  H15A23672   1.667   2.401  11.727  0.2413 -1.2790 -0.3180
  192DOPC  H15B23673   1.697   2.414  11.904  1.4144  0.5044 -0.4389
  192DOPC  H15C23674   1.790   2.493  11.787 -0.1194  0.0860 -1.5310
  192DOPC   C1123675   1.610   2.622  12.070  0.4275 -0.2840 -0.2317
  192DOPC  H11A23676   1.507   2.661  12.085  0.2610 -0.2774 -1.3134
  192DOPC  H11B23677   1.613   2.511  12.070  0.2612 -0.3805 -3.2481
  192DOPC     P23678   1.829   2.641  12.215 -0.6589 -0.0211  0.1678
  192DOPC   O1323679   1.896   2.771  12.226  0.4152 -0.3498 -0.4933
  192DOPC   O1423680   1.886   2.547  12.120 -0.1981  0.2358  0.4522
  192DOPC   O1223681   1.684   2.673  12.177  0.2009 -0.3452 -0.5212
  192DOPC   O1123682   1.814   2.569  12.349 -0.1604 -0.5621  0.3749
  192DOPC    C123683   1.695   2.488  12.381 -0.8056 -0.4981  0.2217
  192DOPC    HA23684   1.717   2.424  12.468 -1.0448 -3.2000 -1.5912
  192DOPC    HB23685   1.667   2.421  12.297  0.1314 -1.7703  0.8991
  192DOPC    C223686   1.577   2.573  12.437  0.0289  0.0290  0.4592
  192DOPC    HS23687   1.569   2.670  12.385  0.0578  0.5133  1.3314
  192DOPC   O2123688   1.608   2.592  12.579 -0.2301  0.6659  0.1272
  192DOPC   C2123689   1.536   2.687  12.636 -0.1962 -0.3335  0.2360
  192DOPC   O2223690   1.466   2.766  12.578  0.1080 -0.0883  0.7085
  192DOPC   C2223691   1.554   2.694  12.781 -0.1137  0.4131  0.4241
  192DOPC   H2R23692   1.649   2.640  12.799 -1.5669 -1.9999  1.4633
  192DOPC   H2S23693   1.470   2.636  12.826  0.5582  0.8188  2.2759
  192DOPC    C323694   1.445   2.501  12.420 -0.1812 -0.2804 -0.1045
  192DOPC    HX23695   1.425   2.488  12.312 -0.9484  1.6362 -0.2262
  192DOPC    HY23696   1.364   2.569  12.453 -1.0440 -1.0337 -0.6208
  192DOPC   O3123697   1.451   2.374  12.491 -0.8670 -0.6684  0.2276
  192DOPC   C3123698   1.392   2.365  12.607  0.3269  0.3940 -0.3281
  192DOPC   O3223699   1.344   2.456  12.671  0.0201 -0.2812 -0.1418
  192DOPC   C3223700   1.372   2.220  12.653 -0.5035  0.1966  0.3927
  192DOPC   H2X23701   1.285   2.182  12.596  0.7678 -0.0464 -1.4766
  192DOPC   H2Y23702   1.468   2.171  12.627 -0.7050  0.1901 -0.3384
  192DOPC   C2323703   1.555   2.829  12.842  0.8718 -0.8809  0.6322
  192DOPC   H3R23704   1.457   2.872  12.811  0.4967 -2.3772 -0.3380
  192DOPC   H3S23705   1.641   2.882  12.794  0.3962 -2.3414 -2.0379
  192DOPC   C2423706   1.579   2.816  12.991  0.0790 -0.4363  0.1805
  192DOPC   H4R23707   1.683   2.784  13.012 -0.9933 -3.4831  1.3668
  192DOPC   H4S23708   1.521   2.734  13.038  0.2299  0.4726  2.0571
  192DOPC   C2523709   1.547   2.946  13.067 -0.2161  0.3939  0.3889
  192DOPC   H5R23710   1.442   2.964  13.037 -1.0111 -3.1699  0.6226
  192DOPC   H5S23711   1.611   3.031  13.034  3.3850 -1.8549  0.9590
  192DOPC   C2623712   1.554   2.932  13.216  0.5446  0.4174 -0.3309
  192DOPC   H6R23713   1.655   2.903  13.253  0.9961  0.1619 -1.6968
  192DOPC   H6S23714   1.493   2.844  13.246  2.2726 -0.7829 -0.1357
  192DOPC   C2723715   1.499   3.048  13.295 -0.2582  0.1978  0.6952
  192DOPC   H7R23716   1.390   3.051  13.277 -0.0668  1.0271 -0.4287
  192DOPC   H7S23717   1.552   3.134  13.248  0.5529 -0.7064 -0.0916
  192DOPC   C2823718   1.523   3.039  13.449 -0.3156 -0.2214  0.4298
  192DOPC   H8R23719   1.626   3.075  13.469 -0.2661 -0.7530  1.1852
  192DOPC   H8S23720   1.530   2.934  13.486  1.7645  0.1686  1.2714
  192DOPC   C2923721   1.424   3.127  13.514  0.0857  0.1116  0.2267
  192DOPC   H9R23722   1.439   3.236  13.521 -1.3926  0.2735  1.4512
  192DOPC  C21023723   1.318   3.084  13.587  0.3073 -0.3670  0.3350
  192DOPC  H10R23724   1.239   3.152  13.623 -0.5964 -1.4684  0.5157
  192DOPC  C21123725   1.282   2.943  13.614  0.0227  0.2668 -0.6414
  192DOPC  H11R23726   1.339   2.870  13.552  0.4564 -1.5380  1.7539
  192DOPC  H11S23727   1.174   2.928  13.597 -0.1400  0.9035 -0.1971
  192DOPC  C21223728   1.317   2.891  13.756  0.4568 -0.1592 -0.6073
  192DOPC  H12R23729   1.276   2.957  13.835  3.4957  1.8846 -0.5562
  192DOPC  H12S23730   1.427   2.905  13.763  0.6099 -1.8445  1.6145
  192DOPC  C21323731   1.301   2.739  13.777  0.1529 -0.3951  0.5006
  192DOPC  H13R23732   1.345   2.696  13.870  1.4284  1.9259  1.0314
  192DOPC  H13S23733   1.348   2.698  13.685 -1.6865  0.0651 -0.6916
  192DOPC  C21423734   1.154   2.719  13.798  0.4070 -0.3367 -0.0228
  192DOPC  H14R23735   1.098   2.747  13.706 -0.2426 -2.4625 -0.3146
  192DOPC  H14S23736   1.118   2.775  13.887 -3.7533 -2.0499 -0.3901
  192DOPC  C21523737   1.114   2.571  13.827  0.4047  0.2615 -0.3529
  192DOPC  H15R23738   1.178   2.536  13.911 -1.5312 -0.9549  0.7169
  192DOPC  H15S23739   1.133   2.505  13.739 -0.3101  0.7571 -0.8902
  192DOPC  C21623740   0.965   2.553  13.855 -0.0964 -0.6004  0.4379
  192DOPC  H16R23741   0.915   2.619  13.780 -0.5674  0.7999  1.9241
  192DOPC  H16S23742   0.941   2.592  13.956  2.6786  1.4491  0.4180
  192DOPC  C21723743   0.915   2.410  13.840  0.8733  0.4953  0.3962
  192DOPC  H17R23744   0.954   2.335  13.913  2.8686  1.2306  0.1364
  192DOPC  H17S23745   0.948   2.382  13.738 -0.7130 -0.8794  0.2120
  192DOPC  C21823746   0.763   2.396  13.841  0.5766 -0.4359 -0.1053
  192DOPC  H18R23747   0.738   2.420  13.946  2.6384  1.5091  0.0306
  192DOPC  H18S23748   0.715   2.298  13.817 -1.2440  0.7516 -1.5577
  192DOPC  H18T23749   0.723   2.471  13.770 -2.3101 -1.4870  0.2951
  192DOPC   C3323750   1.343   2.210  12.807  0.0427 -0.2088 -0.5444
  192DOPC   H3X23751   1.248   2.260  12.834  0.9206  1.9540 -1.2797
  192DOPC   H3Y23752   1.416   2.269  12.866 -0.2138 -0.9975  0.6006
  192DOPC   C3423753   1.343   2.063  12.861 -0.2136 -1.2281  0.6146
  192DOPC   H4X23754   1.447   2.026  12.873 -1.8095 -6.5754  0.4357
  192DOPC   H4Y23755   1.302   2.002  12.777 -2.5978 -1.3174  1.7729
  192DOPC   C3523756   1.268   2.040  12.994  0.2042 -0.1522  0.1751
  192DOPC   H5X23757   1.191   1.964  12.967  0.3067  0.3823 -1.7827
  192DOPC   H5Y23758   1.230   2.142  13.018 -1.4159 -0.7316  0.2222
  192DOPC   C3623759   1.363   1.983  13.104 -0.4932  0.9506  0.2383
  192DOPC   H6X23760   1.396   1.881  13.076 -0.4846  0.3284  2.3545
  192DOPC   H6Y23761   1.439   2.062  13.124 -0.5436  0.9852  0.2914
  192DOPC   C3723762   1.282   1.939  13.225 -0.1988  0.0059  0.6398
  192DOPC   H7X23763   1.236   2.024  13.281  1.9055  1.8002 -0.2216
  192DOPC   H7Y23764   1.198   1.869  13.202  1.7451 -1.1171 -4.2063
  192DOPC   C3823765   1.367   1.862  13.329  0.8309  0.0293  0.5723
  192DOPC   H8X23766   1.318   1.886  13.426  1.8201  0.0732  1.0831
  192DOPC   H8Y23767   1.467   1.907  13.349 -0.0571  1.3807  2.2635
  192DOPC   C3923768   1.369   1.713  13.301  0.6167 -0.3297  0.0744
  192DOPC   H9X23769   1.440   1.688  13.221 -0.9673 -0.0617 -1.4655
  192DOPC  C31023770   1.303   1.621  13.374  0.5543 -0.7711  0.3293
  192DOPC  H10X23771   1.309   1.512  13.358 -0.2955 -1.0888  1.9861
  192DOPC  C31123772   1.210   1.639  13.495 -0.1674  0.1850  0.1441
  192DOPC  H11X23773   1.127   1.566  13.487  0.4654 -0.3312 -2.9505
  192DOPC  H11Y23774   1.157   1.737  13.497 -0.0657  0.2360  0.4927
  192DOPC  C31223775   1.275   1.615  13.631  0.6482  0.5359 -0.3385
  192DOPC  H12X23776   1.346   1.699  13.651 -0.4504  1.0968  1.4556
  192DOPC  H12Y23777   1.340   1.525  13.623  2.7999  2.1224 -1.8362
  192DOPC  C31323778   1.172   1.603  13.741 -0.1671 -0.7105 -0.0312
  192DOPC  H13X23779   1.096   1.680  13.717  0.5616  0.2978  0.8269
  192DOPC  H13Y23780   1.132   1.499  13.743  0.1829 -0.8473  0.0822
  192DOPC  C31423781   1.245   1.630  13.875 -0.1683  0.6634 -0.1375
  192DOPC  H14X23782   1.339   1.579  13.906 -0.7510  1.1062  2.5912
  192DOPC  H14Y23783   1.285   1.734  13.879  0.6378  0.3292  1.7457
  192DOPC  C31523784   1.142   1.619  13.992  0.4451  0.4047  0.0665
  192DOPC  H15X23785   1.093   1.521  14.004  0.3028  0.5368  0.6024
  192DOPC  H15Y23786   1.057   1.684  13.964 -0.2049  1.1398  3.3035
  192DOPC  C31623787   1.207   1.669  14.123 -0.0361 -0.4342 -0.4192
  192DOPC  H16X23788   1.125   1.634  14.190 -0.4123  2.5719  0.8397
  192DOPC  H16Y23789   1.296   1.606  14.148  1.4335  1.7089 -0.0220
  192DOPC  C31723790   1.215   1.820  14.152 -0.2055 -0.6057  0.3604
  192DOPC  H17X23791   1.165   1.883  14.075  0.9926  0.2056  0.2160
  192DOPC  H17Y23792   1.160   1.847  14.245  2.5064  0.3314  1.8024
  192DOPC  C31823793   1.358   1.863  14.175  0.5540 -0.4535 -0.1224
  192DOPC  H18X23794   1.349   1.965  14.219 -1.6099  0.4978 -2.5357
  192DOPC  H18Y23795   1.411   1.783  14.231 -0.1335 -1.1907 -0.4952
  192DOPC  H18Z23796   1.414   1.872  14.080 -0.4714  0.1038 -0.6922
  193DOPC     N23797   0.467   2.085  10.940 -0.1960  0.5241  0.1465
  193DOPC   C1223798   0.592   2.035  10.877 -0.5050 -0.3293 -0.3521
  193DOPC  H12A23799   0.649   2.120  10.843 -1.9442 -0.0881 -2.3424
  193DOPC  H12B23800   0.570   1.988  10.782 -0.4907 -1.3342  0.1291
  193DOPC   C1323801   0.510   2.197  11.022  0.6920  1.0854  0.1437
  193DOPC  H13A23802   0.534   2.279  10.955  1.1184  2.6492  2.0931
  193DOPC  H13B23803   0.427   2.231  11.083  2.1719  1.2001  2.1990
  193DOPC  H13C23804   0.601   2.181  11.078  0.7741  4.0823  1.0919
  193DOPC   C1423805   0.396   1.975  11.023 -0.2614  0.5993  0.3600
  193DOPC  H14A23806   0.311   2.011  11.078 -0.2413  0.8415  0.2300
  193DOPC  H14B23807   0.372   1.892  10.957 -0.4135  0.5386  0.4907
  193DOPC  H14C23808   0.464   1.931  11.095  0.6020  1.6247  0.1867
  193DOPC   C1523809   0.374   2.145  10.837  0.2704  0.5582 -0.8851
  193DOPC  H15A23810   0.432   2.204  10.768  0.8784 -0.9305 -1.6666
  193DOPC  H15B23811   0.298   2.204  10.887 -1.7739 -1.9146 -0.8532
  193DOPC  H15C23812   0.313   2.074  10.784 -1.5790  0.9419  0.6193
  193DOPC   C1123813   0.692   1.947  10.960 -0.0167  0.6301 -0.3519
  193DOPC  H11A23814   0.631   1.868  11.009  0.5905  0.4418  0.1022
  193DOPC  H11B23815   0.763   1.887  10.900 -0.6645  0.2192 -0.7161
  193DOPC     P23816   0.873   2.128  11.037  0.8923  0.0728  0.0632
  193DOPC   O1323817   0.856   2.257  11.110  0.3033  0.4735  0.2694
  193DOPC   O1423818   0.904   2.129  10.896  0.7984 -0.2016  1.2721
  193DOPC   O1223819   0.753   2.023  11.062  0.0500 -0.8858  0.3114
  193DOPC   O1123820   0.993   2.052  11.103  0.0634 -0.0174  0.4352
  193DOPC    C123821   0.999   1.919  11.142 -0.2719  0.1011 -0.0232
  193DOPC    HA23822   1.106   1.894  11.126 -0.6510 -0.1731 -2.6178
  193DOPC    HB23823   0.938   1.848  11.082 -0.5031  0.3114 -0.0419
  193DOPC    C223824   0.964   1.894  11.289  0.9255  0.4272  0.0513
  193DOPC    HS23825   0.870   1.951  11.309  0.9542  0.9901 -1.3021
  193DOPC   O2123826   1.079   1.926  11.367  0.0856 -0.4265  0.1691
  193DOPC   C2123827   1.058   2.006  11.468  0.5699  0.9072  0.4757
  193DOPC   O2223828   0.946   2.048  11.507  0.5111  0.1500 -0.3618
  193DOPC   C2223829   1.187   2.032  11.550  0.4231 -0.7976 -0.6456
  193DOPC   H2R23830   1.277   2.019  11.487 -0.2285  1.1011 -2.0810
  193DOPC   H2S23831   1.186   1.950  11.625 -1.1283 -0.8193 -0.6435
  193DOPC    C323832   0.923   1.749  11.313  0.3570  0.5061 -0.4545
  193DOPC    HX23833   0.992   1.689  11.250 -1.6810 -1.5626 -0.8251
  193DOPC    HY23834   0.823   1.732  11.267 -0.8849  1.3455  1.7545
  193DOPC   O3123835   0.930   1.712  11.459  0.2517 -0.2006  0.2593
  193DOPC   C3123836   0.823   1.736  11.541  0.0189 -0.7430  0.0855
  193DOPC   O3223837   0.733   1.814  11.516 -0.0475  0.0160  0.5939
  193DOPC   C3223838   0.851   1.665  11.673  0.7971 -0.2672  0.0394
  193DOPC   H2X23839   0.913   1.574  11.655 -1.7282 -1.8346 -1.4361
  193DOPC   H2Y23840   0.906   1.736  11.738  3.1426 -0.7163 -1.3443
  193DOPC   C2323841   1.184   2.170  11.620  0.6394  0.3994 -0.3680
  193DOPC   H3R23842   1.099   2.193  11.687  2.7027 -0.7493  2.8931
  193DOPC   H3S23843   1.189   2.250  11.543 -0.8822  1.1540  0.2727
  193DOPC   C2423844   1.304   2.176  11.725  0.3631 -0.2802  0.6616
  193DOPC   H4R23845   1.299   2.285  11.746 -1.9632  0.0758 -1.2750
  193DOPC   H4S23846   1.401   2.145  11.681  0.3938 -0.7453  1.0370
  193DOPC   C2523847   1.278   2.094  11.854 -0.1147 -0.2898  0.4340
  193DOPC   H5R23848   1.270   1.987  11.827  0.3276 -0.4696  0.9866
  193DOPC   H5S23849   1.179   2.128  11.893 -0.0480  0.1910  0.2005
  193DOPC   C2623850   1.388   2.129  11.954 -0.2074 -0.1924 -0.1973
  193DOPC   H6R23851   1.400   2.239  11.958 -1.5510 -0.0606  0.7040
  193DOPC   H6S23852   1.486   2.091  11.918 -0.0457  0.1243 -0.0901
  193DOPC   C2723853   1.361   2.067  12.091 -0.3218 -0.3325  0.3476
  193DOPC   H7R23854   1.370   1.957  12.084 -2.5534 -0.5468  0.3471
  193DOPC   H7S23855   1.257   2.092  12.119 -1.0775 -0.3301 -2.2100
  193DOPC   C2823856   1.458   2.121  12.204 -0.4098 -0.1522 -0.1188
  193DOPC   H8R23857   1.406   2.127  12.302 -1.2633  0.2585 -0.5864
  193DOPC   H8S23858   1.498   2.220  12.173  2.1868 -0.8626  0.7131
  193DOPC   C2923859   1.575   2.028  12.224 -0.7803  0.8050 -0.6575
  193DOPC   H9R23860   1.673   2.073  12.202 -1.9922  2.7709 -2.3164
  193DOPC  C21023861   1.564   1.907  12.279  0.2529  1.5394 -0.6114
  193DOPC  H10R23862   1.650   1.838  12.284  0.2664  1.6357  2.5650
  193DOPC  C21123863   1.440   1.849  12.339 -0.4699 -1.0747  0.0435
  193DOPC  H11R23864   1.420   1.745  12.303 -0.6769 -0.6880 -1.0035
  193DOPC  H11S23865   1.347   1.910  12.329  0.8717  1.6127  2.5058
  193DOPC  C21223866   1.462   1.826  12.496 -0.4600  0.0015 -0.3826
  193DOPC  H12R23867   1.513   1.919  12.529 -0.1819 -0.0825 -0.5739
  193DOPC  H12S23868   1.537   1.747  12.515 -0.1929 -0.0231 -1.4754
  193DOPC  C21323869   1.333   1.803  12.578 -0.5653  0.1434  0.2924
  193DOPC  H13R23870   1.244   1.864  12.553 -2.7112 -1.5815  3.0443
  193DOPC  H13S23871   1.355   1.815  12.686  2.0194 -1.2595 -0.0064
  193DOPC  C21423872   1.294   1.652  12.573 -0.6287 -0.3404  0.3358
  193DOPC  H14R23873   1.364   1.602  12.644 -0.3814 -0.1592  0.2233
  193DOPC  H14S23874   1.316   1.614  12.471  2.6085  1.4420  0.2394
  193DOPC  C21523875   1.151   1.623  12.614  0.0378  0.1271  0.3041
  193DOPC  H15R23876   1.128   1.516  12.630  2.4561 -0.3305  1.1261
  193DOPC  H15S23877   1.082   1.644  12.530  0.5650 -1.4144 -0.5389
  193DOPC  C21623878   1.102   1.702  12.742  0.5011  0.1366  0.5519
  193DOPC  H16R23879   0.995   1.678  12.758  0.6133  1.1336  3.4077
  193DOPC  H16S23880   1.124   1.811  12.749  5.4978 -0.5711 -0.2998
  193DOPC  C21723881   1.173   1.644  12.871  0.5370  0.4181  0.5064
  193DOPC  H17R23882   1.273   1.690  12.881  1.2924 -1.4602  2.2943
  193DOPC  H17S23883   1.179   1.534  12.856 -2.1587  0.5198 -2.6567
  193DOPC  C21823884   1.087   1.679  12.999  0.5018  0.0882 -0.0403
  193DOPC  H18R23885   1.116   1.607  13.078  0.7196  0.3010  0.0773
  193DOPC  H18S23886   0.978   1.661  12.986  0.4330  0.7669 -0.5062
  193DOPC  H18T23887   1.101   1.784  13.033  2.9643  0.2868 -1.3963
  193DOPC   C3323888   0.713   1.630  11.746 -0.1131 -0.1120  0.0078
  193DOPC   H3X23889   0.646   1.565  11.687 -0.3112 -1.0634  1.2562
  193DOPC   H3Y23890   0.663   1.726  11.771  0.2382 -0.0656  0.5597
  193DOPC   C3423891   0.731   1.557  11.884  0.8394 -0.0050 -0.1481
  193DOPC   H4X23892   0.773   1.626  11.960  0.5992 -1.0248  0.9439
  193DOPC   H4Y23893   0.800   1.475  11.854  1.1752  0.5887 -1.0542
  193DOPC   C3523894   0.593   1.507  11.943  0.3529 -0.2130 -0.3399
  193DOPC   H5X23895   0.555   1.432  11.870 -0.5144  0.8773 -1.0520
  193DOPC   H5Y23896   0.526   1.595  11.946 -0.3511 -0.6888 -1.4414
  193DOPC   C3623897   0.600   1.458  12.085 -0.9078 -0.2096 -0.1302
  193DOPC   H6X23898   0.668   1.370  12.090  1.2860  1.4529  2.0783
  193DOPC   H6Y23899   0.659   1.532  12.142  1.4904 -0.4249 -2.1711
  193DOPC   C3723900   0.462   1.444  12.162  0.0343 -0.1367  0.3281
  193DOPC   H7X23901   0.409   1.360  12.112  1.8617 -2.4961  2.1226
  193DOPC   H7Y23902   0.490   1.423  12.267 -1.9271  0.1907  0.9448
  193DOPC   C3823903   0.371   1.569  12.162  0.5530  0.3858  0.1208
  193DOPC   H8X23904   0.278   1.550  12.219  0.2288  0.5106 -0.3677
  193DOPC   H8Y23905   0.331   1.583  12.060 -0.6799  0.9403  0.6654
  193DOPC   C3923906   0.437   1.694  12.216 -0.2090 -0.6400  0.4068
  193DOPC   H9X23907   0.524   1.731  12.159 -1.2504  0.6057 -0.4176
  193DOPC  C31023908   0.398   1.780  12.320 -0.1487 -0.3343 -0.8362
  193DOPC  H10X23909   0.469   1.861  12.343 -0.7886  0.6861 -2.2651
  193DOPC  C31123910   0.274   1.770  12.400 -0.0313 -0.9731  0.1083
  193DOPC  H11X23911   0.206   1.697  12.351 -0.3138 -1.1466  0.7528
  193DOPC  H11Y23912   0.227   1.869  12.414 -0.3233 -1.5028  3.9273
  193DOPC  C31223913   0.308   1.737  12.543  0.0333 -0.2676  0.2068
  193DOPC  H12X23914   0.392   1.800  12.580 -1.9698  2.2115  0.7859
  193DOPC  H12Y23915   0.321   1.627  12.554  0.8041 -0.2472 -0.4180
  193DOPC  C31323916   0.184   1.757  12.637 -0.6453 -0.3627 -0.6977
  193DOPC  H13X23917   0.171   1.867  12.649  1.0765 -0.0185 -1.5734
  193DOPC  H13Y23918   0.089   1.716  12.597 -0.8528  0.0581 -0.6378
  193DOPC  C31423919   0.216   1.724  12.784  0.0622  0.4590  0.1933
  193DOPC  H14X23920   0.324   1.729  12.810  0.6105 -2.6541 -0.9386
  193DOPC  H14Y23921   0.167   1.795  12.854 -1.0622 -0.4121  0.3355
  193DOPC  C31523922   0.193   1.570  12.824 -0.4199 -0.6565 -0.1617
  193DOPC  H15X23923   0.271   1.507  12.777  0.4568 -0.4326  0.9423
  193DOPC  H15Y23924   0.096   1.536  12.781  0.0931 -0.8458 -1.2056
  193DOPC  C31623925   0.194   1.552  12.973  0.3286 -0.6093  0.3607
  193DOPC  H16X23926   0.291   1.598  13.000  0.2173 -1.3298  2.0506
  193DOPC  H16Y23927   0.112   1.616  13.013  1.7022  0.6437  1.2487
  193DOPC  C31723928   0.189   1.405  13.021 -0.0660 -0.4872  0.0206
  193DOPC  H17X23929   0.095   1.361  12.981 -0.3362  0.8264 -0.8469
  193DOPC  H17Y23930   0.267   1.336  12.982 -0.4439 -0.7738 -0.2417
  193DOPC  C31823931   0.175   1.407  13.166 -0.3324  0.6115 -0.5117
  193DOPC  H18X23932   0.176   1.301  13.201 -0.3912  0.5774 -0.6138
  193DOPC  H18Y23933   0.251   1.463  13.223 -0.5874 -1.8479  2.5367
  193DOPC  H18Z23934   0.072   1.431  13.202  0.1825  0.5175  1.1449
  194DOPC     N23935   1.826   6.432  11.432  0.2723  0.0834  0.3038
  194DOPC   C1223936   1.724   6.377  11.533  0.2339  0.2331  0.3132
  194DOPC  H12A23937   1.752   6.284  11.581 -2.7646 -1.2544 -0.5454
  194DOPC  H12B23938   1.638   6.338  11.482  0.0245 -1.8856  2.1097
  194DOPC   C1323939   1.830   6.334  11.321  0.3575  0.1956  0.6170
  194DOPC  H13A23940   1.847   6.234  11.359 -2.5017  0.1810  2.1117
  194DOPC  H13B23941   1.737   6.326  11.267  0.8459  0.2572 -0.2444
  194DOPC  H13C23942   1.911   6.354  11.252  0.1015  1.5771  0.6934
  194DOPC   C1423943   1.957   6.439  11.492 -0.4207  0.2178  0.4911
  194DOPC  H14A23944   1.983   6.339  11.521 -2.2705 -0.4374  0.0464
  194DOPC  H14B23945   2.030   6.489  11.430 -0.6517  0.5077  0.4450
  194DOPC  H14C23946   1.945   6.499  11.581 -1.5262 -2.4529  2.2765
  194DOPC   C1523947   1.787   6.568  11.390 -0.5480  0.1406  0.3428
  194DOPC  H15A23948   1.863   6.619  11.332  0.2410  0.0633  1.2863
  194DOPC  H15B23949   1.768   6.633  11.474 -2.6019  0.2417 -0.1497
  194DOPC  H15C23950   1.694   6.566  11.335 -0.3244  2.2552 -0.2157
  194DOPC   C1123951   1.669   6.461  11.645  0.1006  0.1779  0.2327
  194DOPC  H11A23952   1.602   6.537  11.600 -0.2623  0.5177  1.3214
  194DOPC  H11B23953   1.598   6.401  11.704 -0.0402  0.7355  0.6406
  194DOPC     P23954   1.831   6.438  11.841  0.2616  0.0534  0.4125
  194DOPC   O1323955   1.966   6.492  11.852 -0.3431 -0.7229  0.1355
  194DOPC   O1423956   1.814   6.297  11.807 -0.8799  0.6525  0.6590
  194DOPC   O1223957   1.773   6.518  11.724  0.3898 -0.1892 -0.0183
  194DOPC   O1123958   1.749   6.460  11.972 -0.2300 -0.6825  0.3155
  194DOPC    C123959   1.634   6.551  11.971 -0.5638 -0.1471 -0.7041
  194DOPC    HA23960   1.543   6.508  11.925 -2.0880  1.7777  0.3414
  194DOPC    HB23961   1.656   6.645  11.915 -0.8080  0.2056 -0.2154
  194DOPC    C223962   1.587   6.587  12.119  0.0723  0.9900  0.5501
  194DOPC    HS23963   1.502   6.658  12.113 -1.4585 -0.8821 -0.7473
  194DOPC   O2123964   1.692   6.621  12.218 -0.1539  0.6614 -0.0261
  194DOPC   C2123965   1.746   6.743  12.193 -0.8573 -0.5218 -0.4820
  194DOPC   O2223966   1.712   6.816  12.103  0.1842 -0.2968  0.4714
  194DOPC   C2223967   1.851   6.776  12.301 -0.2243  0.7505  1.1341
  194DOPC   H2R23968   1.928   6.811  12.229 -3.9663  0.6271 -3.3562
  194DOPC   H2S23969   1.894   6.695  12.364  0.0927  1.3152  1.6658
  194DOPC    C323970   1.516   6.463  12.182  0.1760  0.0558 -0.7430
  194DOPC    HX23971   1.597   6.386  12.178  0.5686  0.4214 -0.0380
  194DOPC    HY23972   1.433   6.425  12.119  0.5326 -1.2254 -0.4758
  194DOPC   O3123973   1.469   6.497  12.313  0.1980 -0.1609 -0.5406
  194DOPC   C3123974   1.481   6.400  12.403  0.1129  1.1380 -0.8217
  194DOPC   O3223975   1.542   6.293  12.392  0.5130  0.0366 -0.3259
  194DOPC   C3223976   1.415   6.441  12.532  0.5454  0.6887  0.1904
  194DOPC   H2X23977   1.412   6.550  12.554  0.6302  0.6681  0.3084
  194DOPC   H2Y23978   1.310   6.406  12.523  0.9794 -0.8386  0.7798
  194DOPC   C2323979   1.808   6.884  12.394  0.4298 -0.0540 -0.8595
  194DOPC   H3R23980   1.748   6.965  12.347  1.6803  1.6839  0.4148
  194DOPC   H3S23981   1.898   6.929  12.440 -0.7265  1.7932 -0.3016
  194DOPC   C2423982   1.710   6.842  12.507  0.7488 -0.2763 -1.1483
  194DOPC   H4R23983   1.745   6.744  12.545 -1.3631 -1.4414 -2.0390
  194DOPC   H4S23984   1.617   6.820  12.451  0.0276 -0.5144  0.0983
  194DOPC   C2523985   1.713   6.945  12.621 -0.4186  0.7274  0.1647
  194DOPC   H5R23986   1.688   7.045  12.580 -2.5719  0.0945 -0.2128
  194DOPC   H5S23987   1.816   6.943  12.661  0.1002 -0.3743 -1.1478
  194DOPC   C2623988   1.614   6.918  12.736 -0.3694 -0.5081  0.1885
  194DOPC   H6R23989   1.657   6.827  12.783  0.5675 -0.2777 -0.2077
  194DOPC   H6S23990   1.517   6.899  12.683 -0.2682 -0.2410 -0.0988
  194DOPC   C2723991   1.613   7.038  12.838  0.3070 -0.2052 -0.7443
  194DOPC   H7R23992   1.586   7.131  12.783  1.2729  1.0321  0.8061
  194DOPC   H7S23993   1.713   7.051  12.885  0.6187  0.1669 -1.4871
  194DOPC   C2823994   1.510   7.004  12.950 -0.4181 -0.1501  0.5599
  194DOPC   H8R23995   1.552   6.917  13.007  0.1960  0.7872  1.5843
  194DOPC   H8S23996   1.413   6.972  12.908 -0.2076  1.0435 -0.9133
  194DOPC   C2923997   1.492   7.125  13.045 -0.4377 -0.2477  0.6594
  194DOPC   H9R23998   1.415   7.199  13.016 -0.8246 -0.6240  0.7237
  194DOPC  C21023999   1.560   7.133  13.160  0.2578  0.1775 -0.5583
  194DOPC  H10R24000   1.527   7.214  13.226 -1.1919 -1.1664  0.4308
  194DOPC  C21124001   1.665   7.046  13.221 -0.7715 -0.5296  0.3873
  194DOPC  H11R24002   1.739   7.107  13.278 -0.8136 -1.5927  1.6329
  194DOPC  H11S24003   1.706   6.979  13.143 -0.7299 -1.2764  1.0335
  194DOPC  C21224004   1.600   6.944  13.314 -0.1881  0.0413 -0.1101
  194DOPC  H12R24005   1.685   6.888  13.358 -2.0467 -2.9113  0.0952
  194DOPC  H12S24006   1.540   6.865  13.263  1.1019 -1.6765  0.9016
  194DOPC  C21324007   1.509   7.000  13.420  0.1520 -0.2560 -0.4641
  194DOPC  H13R24008   1.462   6.925  13.487 -0.2917  0.4188  0.0052
  194DOPC  H13S24009   1.421   7.050  13.375  0.7202  2.4904  1.1943
  194DOPC  C21424010   1.578   7.112  13.504 -0.2779  0.4436  0.3659
  194DOPC  H14R24011   1.519   7.206  13.493  0.1725  0.7825  0.7731
  194DOPC  H14S24012   1.687   7.125  13.485 -0.5997  1.5359 -0.8714
  194DOPC  C21524013   1.568   7.075  13.647  0.2594  0.2711 -0.5144
  194DOPC  H15R24014   1.630   6.987  13.672  1.0863  1.3964  1.7279
  194DOPC  H15S24015   1.463   7.045  13.670  0.7838 -1.1925  0.0735
  194DOPC  C21624016   1.603   7.195  13.747  0.0929  0.1048 -0.5645
  194DOPC  H16R24017   1.525   7.272  13.730  3.3874  3.4147 -2.1985
  194DOPC  H16S24018   1.704   7.236  13.725  1.1163 -1.3286  1.2183
  194DOPC  C21724019   1.589   7.143  13.889  0.2830  0.1914  0.0650
  194DOPC  H17R24020   1.675   7.088  13.932 -0.1253  0.6762  1.5622
  194DOPC  H17S24021   1.504   7.071  13.894  1.4641 -1.2143  0.5540
  194DOPC  C21824022   1.573   7.262  13.986 -0.0413 -0.1847  0.5019
  194DOPC  H18R24023   1.486   7.321  13.950  0.2604 -1.2810 -2.2475
  194DOPC  H18S24024   1.664   7.326  13.981  0.1294 -0.5207 -1.5366
  194DOPC  H18T24025   1.556   7.230  14.091 -1.5312 -0.2177  0.2707
  194DOPC   C3324026   1.476   6.368  12.651  0.6100  0.4965  0.0311
  194DOPC   H3X24027   1.581   6.396  12.674  0.3921  2.1741 -0.8334
  194DOPC   H3Y24028   1.471   6.260  12.625  0.3008  0.5063  0.0433
  194DOPC   C3424029   1.379   6.371  12.776 -0.0782  0.1299  0.0427
  194DOPC   H4X24030   1.286   6.316  12.752  0.9327 -0.0208 -4.3159
  194DOPC   H4Y24031   1.341   6.476  12.779  0.0444  0.3224 -2.5190
  194DOPC   C3524032   1.447   6.321  12.902  0.5445  0.1850 -0.7322
  194DOPC   H5X24033   1.526   6.394  12.930 -0.2949  2.0241 -2.8368
  194DOPC   H5Y24034   1.495   6.225  12.876  0.3423  0.3783 -1.9018
  194DOPC   C3624035   1.341   6.310  13.018 -0.4166  0.5725  0.4279
  194DOPC   H6X24036   1.323   6.418  13.035  0.1478  0.4285  2.1360
  194DOPC   H6Y24037   1.251   6.254  12.983  0.8592 -1.1159 -0.3333
  194DOPC   C3724038   1.404   6.258  13.148 -0.0706 -0.2830 -0.1111
  194DOPC   H7X24039   1.428   6.150  13.141 -1.8621 -0.7434  0.3693
  194DOPC   H7Y24040   1.505   6.302  13.158 -0.0674  0.2164 -1.9594
  194DOPC   C3824041   1.327   6.288  13.279 -0.6280  0.1521  0.6984
  194DOPC   H8X24042   1.219   6.269  13.262 -0.5235 -0.7230  0.9965
  194DOPC   H8Y24043   1.329   6.397  13.302 -1.3219  0.1404  0.8400
  194DOPC   C3924044   1.369   6.200  13.388  0.0765  0.2920  0.0539
  194DOPC   H9X24045   1.452   6.135  13.358 -2.1591 -1.2318 -3.3310
  194DOPC  C31024046   1.319   6.196  13.511 -0.5702 -0.9317 -0.4955
  194DOPC  H10X24047   1.345   6.110  13.575  0.9336  0.9698  1.6222
  194DOPC  C31124048   1.202   6.286  13.556  0.0658  0.1001  0.1572
  194DOPC  H11X24049   1.108   6.238  13.521 -0.3791 -0.4203  1.9719
  194DOPC  H11Y24050   1.215   6.378  13.495 -0.9402  1.5327  1.9914
  194DOPC  C31224051   1.209   6.326  13.703  0.0717 -0.1706 -0.2987
  194DOPC  H12X24052   1.150   6.421  13.706  0.7317  0.2187  1.7812
  194DOPC  H12Y24053   1.309   6.360  13.739  0.4862  0.0192 -1.5742
  194DOPC  C31324054   1.152   6.217  13.795  0.1239 -0.0134 -0.4054
  194DOPC  H13X24055   1.064   6.171  13.746  1.2449 -2.1953 -0.4777
  194DOPC  H13Y24056   1.223   6.132  13.791  2.4521  1.8295 -0.4024
  194DOPC  C31424057   1.127   6.247  13.940 -0.0616  0.2230 -0.2691
  194DOPC  H14X24058   1.085   6.349  13.952 -1.7711 -0.4416 -0.3831
  194DOPC  H14Y24059   1.050   6.177  13.978  2.0838 -1.6012  0.9219
  194DOPC  C31524060   1.255   6.223  14.026 -0.2385 -0.2287 -0.4496
  194DOPC  H15X24061   1.320   6.304  13.988  0.1281 -0.8259 -1.1040
  194DOPC  H15Y24062   1.296   6.120  14.022  0.2501 -0.2173  2.0995
  194DOPC  C31624063   1.239   6.246  14.181 -0.3768 -0.2687 -0.3840
  194DOPC  H16X24064   1.178   6.335  14.208 -0.1256 -0.6147  1.4999
  194DOPC  H16Y24065   1.196   6.153  14.223 -2.0573 -0.7607 -2.9725
  194DOPC  C31724066   1.374   6.278  14.253  0.1663  0.5067  0.5243
  194DOPC  H17X24067   1.405   6.381  14.223 -1.4055  1.7899  2.9800
  194DOPC  H17Y24068   1.365   6.287  14.364  2.6969  0.1847  0.8345
  194DOPC  C31824069   1.500   6.189  14.216  0.3178 -0.5827  0.6423
  194DOPC  H18X24070   1.533   6.228  14.118  0.4622  0.7307  1.1955
  194DOPC  H18Y24071   1.584   6.194  14.289  0.5420 -2.0198  0.5197
  194DOPC  H18Z24072   1.479   6.084  14.185 -1.5620  0.2705 -1.2006
  195DOPC     N24073   5.996   0.686  11.274 -0.0982 -0.2225  0.1321
  195DOPC   C1224074   5.971   0.837  11.319 -0.7738  0.5393 -0.3420
  195DOPC  H12A24075   5.865   0.850  11.336 -0.9758 -1.8861  0.7508
  195DOPC  H12B24076   5.978   0.900  11.232 -1.7638 -0.6463 -1.3263
  195DOPC   C1324077   6.119   0.670  11.193  0.3492 -0.6536  0.1112
  195DOPC  H13A24078   6.209   0.691  11.248 -1.0994 -1.3312  2.9476
  195DOPC  H13B24079   6.123   0.573  11.145  1.1493 -0.0142 -1.1567
  195DOPC  H13C24080   6.105   0.728  11.103 -1.9575  0.4930  1.1176
  195DOPC   C1424081   5.884   0.647  11.190 -0.3611 -0.7511  0.5980
  195DOPC  H14A24082   5.883   0.710  11.102  0.3625 -0.1053  1.0350
  195DOPC  H14B24083   5.889   0.548  11.147 -0.9231 -0.8701  0.7993
  195DOPC  H14C24084   5.787   0.656  11.238 -0.3904 -0.4908  0.4922
  195DOPC   C1524085   6.008   0.599  11.394  0.2680  0.3743 -0.2932
  195DOPC  H15A24086   6.083   0.635  11.462  1.4571 -1.9607 -0.2967
  195DOPC  H15B24087   6.053   0.512  11.349 -1.0282  0.1896 -1.2974
  195DOPC  H15C24088   5.912   0.579  11.440 -0.9635 -1.2653 -3.2955
  195DOPC   C1124089   6.045   0.889  11.445  0.2846 -0.3351  0.0889
  195DOPC  H11A24090   6.152   0.875  11.423  0.2342  1.3142 -1.3765
  195DOPC  H11B24091   6.021   0.998  11.449 -0.7189 -0.5743  1.7600
  195DOPC     P24092   5.861   0.845  11.646  0.0079 -0.7148  0.6148
  195DOPC   O1324093   5.801   0.714  11.658  0.1579  0.0968  0.0900
  195DOPC   O1424094   5.789   0.956  11.569 -0.0855  0.0728  0.0692
  195DOPC   O1224095   6.004   0.822  11.573 -0.2352 -0.3219 -0.1699
  195DOPC   O1124096   5.901   0.897  11.786  0.0711  0.3172  0.1423
  195DOPC    C124097   6.028   0.864  11.852 -0.1948 -0.0005  0.1957
  195DOPC    HA24098   6.112   0.925  11.810  1.2477 -0.5067  2.1995
  195DOPC    HB24099   6.059   0.761  11.825 -0.8153 -0.1964  0.2162
  195DOPC    C224100   6.017   0.877  12.007 -0.0166  0.0341  0.1994
  195DOPC    HS24101   6.110   0.933  12.030 -0.4736  3.0817 -4.0097
  195DOPC   O2124102   6.015   0.754  12.067  0.1079 -0.0949  0.0702
  195DOPC   C2124103   6.108   0.652  12.053  0.0909 -0.0127  0.3150
  195DOPC   O2224104   6.207   0.650  11.985  0.5506  0.3575  0.0445
  195DOPC   C2224105   6.051   0.526  12.131  0.2477  0.0248 -0.4974
  195DOPC   H2R24106   6.131   0.450  12.118  1.4415  1.1362  0.1136
  195DOPC   H2S24107   5.952   0.491  12.094 -0.4602 -0.0197  1.3575
  195DOPC    C324108   5.898   0.965  12.052  0.3782  0.3435 -0.1232
  195DOPC    HX24109   5.799   0.935  12.011  1.5142 -1.2730 -1.9016
  195DOPC    HY24110   5.908   1.062  11.999  0.3617  0.6928  0.5021
  195DOPC   O3124111   5.913   0.989  12.195  0.1950  0.3429 -0.2673
  195DOPC   C3124112   5.831   0.931  12.273 -0.0173 -0.5215 -0.5583
  195DOPC   O3224113   5.744   0.851  12.243 -0.2628  0.3631  0.0449
  195DOPC   C3224114   5.855   1.007  12.409  0.1392 -0.7585 -0.5435
  195DOPC   H2X24115   5.963   1.024  12.426 -0.0295 -1.6685  1.9726
  195DOPC   H2Y24116   5.814   1.107  12.386  2.1224 -0.2372 -2.0870
  195DOPC   C2324117   6.036   0.540  12.285 -0.3511  0.0317 -1.0819
  195DOPC   H3R24118   5.993   0.444  12.324  2.9566 -1.2716 -0.2768
  195DOPC   H3S24119   5.979   0.634  12.297 -0.2334 -0.0267  0.1416
  195DOPC   C2424120   6.170   0.562  12.357  0.2508  0.8431  0.4049
  195DOPC   H4R24121   6.230   0.652  12.333  0.5674 -0.0335 -2.6146
  195DOPC   H4S24122   6.237   0.481  12.318 -0.1246 -0.0383  1.5445
  195DOPC   C2524123   6.158   0.570  12.514 -0.1245  0.2078  0.0060
  195DOPC   H5R24124   6.073   0.503  12.537 -0.6412  1.5212  2.1421
  195DOPC   H5S24125   6.134   0.674  12.546 -0.2153  0.0850  0.3334
  195DOPC   C2624126   6.280   0.523  12.584  0.3988 -0.3188 -0.3309
  195DOPC   H6R24127   6.371   0.576  12.550  0.1084  2.0585  2.2565
  195DOPC   H6S24128   6.294   0.414  12.568 -0.4349 -0.5940  0.7075
  195DOPC   C2724129   6.269   0.551  12.738  0.0310  0.5951 -0.4294
  195DOPC   H7R24130   6.166   0.525  12.771 -2.2730  3.1607 -4.6727
  195DOPC   H7S24131   6.275   0.661  12.754  2.3388  0.7698 -2.0269
  195DOPC   C2824132   6.364   0.464  12.822  0.2290  0.0589 -0.3533
  195DOPC   H8R24133   6.364   0.363  12.776  0.8554  0.4829 -1.3050
  195DOPC   H8S24134   6.325   0.453  12.926  2.4123 -0.6132  0.4696
  195DOPC   C2924135   6.502   0.510  12.816  0.1986 -0.2395 -0.2362
  195DOPC   H9R24136   6.537   0.531  12.714  0.4537  3.4349  0.4871
  195DOPC  C21024137   6.586   0.543  12.915 -0.2809 -0.2177 -0.1293
  195DOPC  H10R24138   6.692   0.565  12.895 -0.0473 -2.8394 -2.3745
  195DOPC  C21124139   6.557   0.532  13.068 -0.0045 -0.0642 -0.0661
  195DOPC  H11R24140   6.552   0.425  13.096 -0.5270  0.0570  0.3087
  195DOPC  H11S24141   6.464   0.585  13.099  1.3485  2.2024  0.3591
  195DOPC  C21224142   6.678   0.590  13.141  0.4793 -0.5144  0.3353
  195DOPC  H12R24143   6.686   0.693  13.101 -2.5383  0.4004  1.8067
  195DOPC  H12S24144   6.773   0.534  13.130  2.0725  2.2368 -0.9833
  195DOPC  C21324145   6.661   0.592  13.295  0.3653 -0.3093  0.3936
  195DOPC  H13R24146   6.663   0.491  13.339  0.8431  0.8696  3.2944
  195DOPC  H13S24147   6.556   0.628  13.298 -0.7991 -3.1177 -1.9240
  195DOPC  C21424148   6.767   0.675  13.361  0.1973  0.5670 -0.0223
  195DOPC  H14R24149   6.779   0.779  13.323  1.1677  0.7035  0.6118
  195DOPC  H14S24150   6.867   0.627  13.354  0.4630  1.1212 -0.0778
  195DOPC  C21524151   6.736   0.693  13.511  0.4416  0.6087  0.1437
  195DOPC  H15R24152   6.809   0.764  13.557  0.0352  1.2777 -0.2252
  195DOPC  H15S24153   6.762   0.593  13.550  1.1094 -0.7943 -3.5189
  195DOPC  C21624154   6.588   0.725  13.553  0.5268 -0.3308 -0.3356
  195DOPC  H16R24155   6.587   0.752  13.661 -3.0795  0.2276 -0.3667
  195DOPC  H16S24156   6.511   0.648  13.531  1.2494 -0.4287 -2.7344
  195DOPC  C21724157   6.539   0.855  13.477 -0.4949  0.3259  0.4669
  195DOPC  H17R24158   6.566   0.842  13.370 -0.1297 -1.5536  0.7425
  195DOPC  H17S24159   6.603   0.936  13.519 -0.4867  1.0139 -0.8325
  195DOPC  C21824160   6.385   0.871  13.494 -0.7795  0.1420  0.4316
  195DOPC  H18R24161   6.345   0.975  13.494 -0.5943  0.2236 -0.9076
  195DOPC  H18S24162   6.365   0.828  13.595  1.1823  0.7409  1.1270
  195DOPC  H18T24163   6.332   0.813  13.416 -2.2226  1.7375  0.1622
  195DOPC   C3324164   5.784   0.923  12.522  0.1883 -0.1998  0.3708
  195DOPC   H3X24165   5.832   0.823  12.529  1.3139  0.3358  0.5115
  195DOPC   H3Y24166   5.677   0.897  12.508  0.0748 -0.3366  1.4399
  195DOPC   C3424167   5.782   0.989  12.654  0.0019  0.2762 -0.2826
  195DOPC   H4X24168   5.704   1.068  12.647  0.7614  1.0696 -0.0157
  195DOPC   H4Y24169   5.880   1.040  12.672 -0.2593  1.5564 -2.1155
  195DOPC   C3524170   5.737   0.892  12.757 -0.7361  0.4181 -0.1061
  195DOPC   H5X24171   5.800   0.801  12.751 -0.1524  0.8307 -0.2554
  195DOPC   H5Y24172   5.638   0.848  12.730  0.2023 -0.8680 -1.6143
  195DOPC   C3624173   5.741   0.950  12.903  0.1848  0.1660 -0.1054
  195DOPC   H6X24174   5.836   1.007  12.912  0.0137  0.5617 -0.7844
  195DOPC   H6Y24175   5.670   1.034  12.916  1.0137  0.9638 -0.5768
  195DOPC   C3724176   5.726   0.839  13.010  0.5110 -0.1839  0.1978
  195DOPC   H7X24177   5.620   0.826  13.040  0.5410 -1.5914 -0.2426
  195DOPC   H7Y24178   5.770   0.742  12.979  0.5882 -0.5473  1.3835
  195DOPC   C3824179   5.801   0.876  13.144 -0.6725  0.1538  0.0845
  195DOPC   H8X24180   5.770   0.973  13.187  1.3904  0.1072  1.8396
  195DOPC   H8Y24181   5.905   0.891  13.109 -0.9498 -0.6765 -1.1804
  195DOPC   C3924182   5.813   0.755  13.241 -0.2115 -0.1687  0.8727
  195DOPC   H9X24183   5.841   0.660  13.194 -1.5253  0.6101 -1.6940
  195DOPC  C31024184   5.784   0.756  13.371  0.0046  0.5817 -0.1984
  195DOPC  H10X24185   5.792   0.665  13.432 -4.4416 -0.2109 -0.4954
  195DOPC  C31124186   5.748   0.881  13.442 -0.0326 -0.8871  0.0146
  195DOPC  H11X24187   5.697   0.945  13.367  0.9512 -1.1051 -0.8735
  195DOPC  H11Y24188   5.838   0.936  13.477 -0.6595  0.4147 -0.3607
  195DOPC  C31224189   5.664   0.858  13.566 -0.2814 -0.0275  0.2028
  195DOPC  H12X24190   5.639   0.962  13.597  0.4927  0.7811 -1.7583
  195DOPC  H12Y24191   5.721   0.804  13.645 -0.6197 -0.2176  0.3248
  195DOPC  C31324192   5.527   0.789  13.539  0.6148  0.6016  0.0011
  195DOPC  H13X24193   5.496   0.816  13.436  0.0349  1.0973  0.3029
  195DOPC  H13Y24194   5.544   0.679  13.546 -0.1706  0.4751 -0.0068
  195DOPC  C31424195   5.425   0.825  13.653  0.0893 -0.5787 -0.2962
  195DOPC  H14X24196   5.425   0.929  13.692  1.2867 -0.3593 -0.8387
  195DOPC  H14Y24197   5.326   0.820  13.602 -0.4305 -1.6817  0.7796
  195DOPC  C31524198   5.432   0.733  13.781  0.3013  0.5432  0.4048
  195DOPC  H15X24199   5.365   0.779  13.856 -0.4885 -0.8924  0.6193
  195DOPC  H15Y24200   5.537   0.726  13.818  1.0884 -1.9565 -1.9719
  195DOPC  C31624201   5.375   0.589  13.753 -0.8641 -0.5191  0.3117
  195DOPC  H16X24202   5.269   0.601  13.724 -0.3944  0.6625 -1.0315
  195DOPC  H16Y24203   5.428   0.545  13.665 -1.1841 -0.7232  0.2190
  195DOPC  C31724204   5.406   0.478  13.857  0.0092  0.4318  0.3048
  195DOPC  H17X24205   5.358   0.509  13.953  2.1887  1.3434  1.1905
  195DOPC  H17Y24206   5.356   0.386  13.821  0.2714 -0.9656  3.2058
  195DOPC  C31824207   5.557   0.445  13.884  0.5679  0.4517  0.4586
  195DOPC  H18X24208   5.606   0.540  13.915 -0.2988  0.6432  1.2823
  195DOPC  H18Y24209   5.582   0.356  13.945  1.4202  0.2224 -0.2026
  195DOPC  H18Z24210   5.590   0.421  13.781 -1.9056  0.3943 -0.3689
  196DOPC     N24211   2.812   0.622  11.633 -0.8655  0.3502  0.4611
  196DOPC   C1224212   2.672   0.563  11.619  0.4280 -0.5398 -0.4846
  196DOPC  H12A24213   2.690   0.463  11.582 -0.3098 -0.7049 -0.4095
  196DOPC  H12B24214   2.619   0.602  11.533  0.6894 -2.9362 -1.8302
  196DOPC   C1324215   2.811   0.775  11.637  0.6307 -0.6147 -0.1324
  196DOPC  H13A24216   2.783   0.817  11.542 -0.3092 -0.1510  0.3381
  196DOPC  H13B24217   2.734   0.803  11.707 -1.0681 -1.4941 -1.5737
  196DOPC  H13C24218   2.907   0.814  11.670 -0.1402  0.8438  0.4988
  196DOPC   C1424219   2.888   0.581  11.511  0.3853  0.4146 -0.4240
  196DOPC  H14A24220   2.850   0.490  11.468 -1.7429  0.3886  1.3492
  196DOPC  H14B24221   2.891   0.657  11.434 -2.7617 -0.2918 -1.4046
  196DOPC  H14C24222   2.989   0.559  11.542  0.3692  0.0702 -0.6186
  196DOPC   C1524223   2.873   0.566  11.754 -0.1004  0.5645  0.2026
  196DOPC  H15A24224   2.973   0.598  11.778 -0.4311  1.0055  1.0525
  196DOPC  H15B24225   2.862   0.458  11.752 -1.1017  0.6458  0.5996
  196DOPC  H15C24226   2.807   0.585  11.838 -0.9441 -4.4822  1.0220
  196DOPC   C1124227   2.576   0.579  11.745  0.2563  0.2230 -0.6710
  196DOPC  H11A24228   2.479   0.534  11.717 -0.2665  0.5683  0.5185
  196DOPC  H11B24229   2.618   0.521  11.831  1.4539  1.6430 -0.2479
  196DOPC     P24230   2.589   0.780  11.926 -0.1014 -0.2251 -0.2544
  196DOPC   O1324231   2.665   0.904  11.900  0.9829  0.5970  0.3361
  196DOPC   O1424232   2.653   0.680  12.013  0.1500  0.7302 -0.1288
  196DOPC   O1224233   2.560   0.718  11.784  0.1594  0.4524 -0.3228
  196DOPC   O1124234   2.445   0.819  11.967  0.3267 -1.0160  0.3443
  196DOPC    C124235   2.332   0.737  11.991  0.3062  0.4640 -0.8738
  196DOPC    HA24236   2.365   0.631  11.985  1.6074  0.7015  0.9868
  196DOPC    HB24237   2.254   0.752  11.913 -1.4056  0.8162  0.8484
  196DOPC    C224238   2.262   0.768  12.123  0.3371 -0.7356 -0.2908
  196DOPC    HS24239   2.181   0.697  12.150  0.0728  0.5553  2.8351
  196DOPC   O2124240   2.223   0.902  12.129 -0.1881 -0.2972  0.1695
  196DOPC   C2124241   2.108   0.925  12.061 -0.0533 -0.2897  0.2166
  196DOPC   O2224242   2.051   0.851  11.982  0.2772  0.1793 -1.0820
  196DOPC   C2224243   2.051   1.060  12.105  0.4876 -0.5320 -0.0588
  196DOPC   H2R24244   2.065   1.137  12.026 -0.5056 -1.2161 -0.9191
  196DOPC   H2S24245   2.109   1.102  12.191  3.6592 -0.2349 -2.1601
  196DOPC    C324246   2.348   0.751  12.248  0.6403 -0.0455  0.3871
  196DOPC    HX24247   2.448   0.799  12.239  1.6303 -2.2604 -1.3658
  196DOPC    HY24248   2.358   0.641  12.261  0.3503  0.0285  1.3103
  196DOPC   O3124249   2.275   0.797  12.366  0.2331  0.7519 -0.6180
  196DOPC   C3124250   2.333   0.916  12.410 -0.0898  0.1320 -0.7608
  196DOPC   O3224251   2.417   0.981  12.353  0.3529  0.3100  0.3938
  196DOPC   C3224252   2.262   0.962  12.541  0.4549  0.1102  0.1832
  196DOPC   H2X24253   2.165   1.012  12.520 -1.1908 -0.9085  4.3678
  196DOPC   H2Y24254   2.229   0.871  12.595 -1.1424  1.0777  0.8927
  196DOPC   C2324255   1.900   1.054  12.143  0.7896  0.1567  0.4562
  196DOPC   H3R24256   1.870   0.974  12.214  3.8271 -1.5787 -0.0756
  196DOPC   H3S24257   1.844   1.029  12.050 -1.7876 -1.5859  2.3366
  196DOPC   C2424258   1.835   1.187  12.189  0.2861  0.7845  0.7245
  196DOPC   H4R24259   1.726   1.171  12.203  0.2176 -0.0668 -0.5752
  196DOPC   H4S24260   1.843   1.256  12.102 -0.9619  0.7132  0.5394
  196DOPC   C2524261   1.892   1.251  12.315  0.0814 -0.6207 -0.4992
  196DOPC   H5R24262   1.855   1.355  12.315  0.2067 -0.5747  0.0075
  196DOPC   H5S24263   2.002   1.265  12.307  0.2670 -2.2249 -1.1982
  196DOPC   C2624264   1.868   1.169  12.448 -0.0647  0.0906  0.2368
  196DOPC   H6R24265   1.933   1.080  12.433  1.2975  1.2237 -0.9548
  196DOPC   H6S24266   1.762   1.136  12.448  0.0174 -0.1917 -0.5125
  196DOPC   C2724267   1.897   1.237  12.577  0.6609 -0.2306  0.2837
  196DOPC   H7R24268   1.831   1.327  12.578 -0.5694 -1.0414 -2.1996
  196DOPC   H7S24269   2.003   1.271  12.577  0.3341  0.9345  1.5481
  196DOPC   C2824270   1.864   1.158  12.708 -0.4222  1.2946  0.0675
  196DOPC   H8R24271   1.762   1.117  12.697  1.0369 -2.4302 -0.9936
  196DOPC   H8S24272   1.870   1.227  12.795 -2.6523  2.5104 -0.6864
  196DOPC   C2924273   1.948   1.033  12.711 -0.2013 -0.4395  0.3868
  196DOPC   H9R24274   1.923   0.954  12.638 -1.2571 -0.8301  1.1531
  196DOPC  C21024275   2.049   1.004  12.796  0.0364  0.1916 -0.5042
  196DOPC  H10R24276   2.095   0.906  12.778  1.3187  1.0717 -2.3095
  196DOPC  C21124277   2.101   1.096  12.910 -0.4976 -0.1053  0.5002
  196DOPC  H11R24278   2.063   1.200  12.908  0.4224  0.2411  0.2872
  196DOPC  H11S24279   2.212   1.108  12.913 -0.4745 -0.3750  0.6607
  196DOPC  C21224280   2.075   1.038  13.048  0.3638  0.2897 -0.3555
  196DOPC  H12R24281   2.146   0.952  13.054 -2.3845 -2.1997 -1.2125
  196DOPC  H12S24282   1.969   1.008  13.060  0.0018  1.6738  0.0140
  196DOPC  C21324283   2.084   1.136  13.163 -0.2266 -0.1817 -0.0074
  196DOPC  H13R24284   2.003   1.211  13.173  1.5672  1.9111 -0.3223
  196DOPC  H13S24285   2.177   1.197  13.157  0.8825 -1.6368  1.5328
  196DOPC  C21424286   2.092   1.069  13.304  0.2344 -0.2443  0.0233
  196DOPC  H14R24287   2.171   0.993  13.288  0.8780  0.4810 -0.3119
  196DOPC  H14S24288   2.002   1.006  13.322 -0.2543 -0.8347 -3.6342
  196DOPC  C21524289   2.120   1.156  13.425  0.0036  0.3366 -0.3213
  196DOPC  H15R24290   2.026   1.202  13.461  0.3301 -0.6468  1.9522
  196DOPC  H15S24291   2.182   1.243  13.393  1.7369 -0.2338  1.3080
  196DOPC  C21624292   2.187   1.088  13.547 -0.5403  0.0516  0.3261
  196DOPC  H16R24293   2.289   1.056  13.517 -0.5289 -0.5412  0.9715
  196DOPC  H16S24294   2.137   0.992  13.572  0.8459 -0.6494  0.4578
  196DOPC  C21724295   2.207   1.182  13.669  0.5181  0.3466 -0.4982
  196DOPC  H17R24296   2.266   1.143  13.753 -1.8441  1.4451  1.8269
  196DOPC  H17S24297   2.102   1.192  13.705  1.2244 -0.1748  1.8353
  196DOPC  C21824298   2.251   1.327  13.631 -0.3481  0.3493 -0.9061
  196DOPC  H18R24299   2.259   1.384  13.726  1.6372 -1.2975 -0.0171
  196DOPC  H18S24300   2.182   1.374  13.558 -1.0100 -3.1600 -2.7619
  196DOPC  H18T24301   2.351   1.325  13.584 -0.4629  2.0100 -1.2818
  196DOPC   C3324302   2.355   1.044  12.632  0.3383  0.2128 -0.1377
  196DOPC   H3X24303   2.293   1.109  12.698 -0.0361 -1.0337  0.7852
  196DOPC   H3Y24304   2.431   1.105  12.580  0.7782 -2.0782 -2.3064
  196DOPC   C3424305   2.438   0.959  12.731  0.1993 -0.1176  0.4332
  196DOPC   H4X24306   2.479   0.877  12.668  0.5341 -0.4859  1.1161
  196DOPC   H4Y24307   2.372   0.914  12.809  0.3962 -1.5739 -0.1973
  196DOPC   C3524308   2.541   1.044  12.807  0.1485 -0.5049 -0.1416
  196DOPC   H5X24309   2.517   1.152  12.817 -1.5213 -0.9688  1.5262
  196DOPC   H5Y24310   2.638   1.038  12.754 -0.5864  2.0304 -1.9313
  196DOPC   C3624311   2.569   0.995  12.955  0.9279  0.0964 -0.4160
  196DOPC   H6X24312   2.469   1.007  13.003  2.6474  2.8433  2.8700
  196DOPC   H6Y24313   2.600   0.889  12.969  2.6491  0.7809  1.6040
  196DOPC   C3724314   2.669   1.076  13.033 -0.5843  0.1642  0.4143
  196DOPC   H7X24315   2.755   1.092  12.964 -1.6698 -1.2004 -1.3523
  196DOPC   H7Y24316   2.636   1.182  13.032 -0.2832  0.2652  1.1086
  196DOPC   C3824317   2.706   1.019  13.172 -0.2606 -0.4915 -0.1628
  196DOPC   H8X24318   2.792   1.065  13.226  0.1342 -0.9218 -0.4091
  196DOPC   H8Y24319   2.725   0.911  13.153  0.2110 -0.5223  0.4447
  196DOPC   C3924320   2.592   1.041  13.269 -0.1612 -0.0718 -0.0168
  196DOPC   H9X24321   2.495   1.009  13.226 -0.1868  0.5990 -0.4753
  196DOPC  C31024322   2.599   1.089  13.399 -0.1589 -0.1023 -0.2422
  196DOPC  H10X24323   2.507   1.121  13.450  0.2067 -0.6836  0.8124
  196DOPC  C31124324   2.724   1.138  13.471  0.5864 -0.0481  1.0667
  196DOPC  H11X24325   2.722   1.246  13.498 -1.0942  0.3760 -0.5948
  196DOPC  H11Y24326   2.805   1.127  13.396 -1.6532 -0.1976 -1.4877
  196DOPC  C31224327   2.750   1.058  13.599 -0.1173  0.5039  0.1347
  196DOPC  H12X24328   2.857   1.073  13.627 -0.0610 -1.0466  0.8441
  196DOPC  H12Y24329   2.716   0.952  13.595  1.4406  0.0017 -1.4026
  196DOPC  C31324330   2.662   1.117  13.716 -0.8475 -0.2367 -0.2438
  196DOPC  H13X24331   2.681   1.226  13.722  1.4873 -0.6671  1.7798
  196DOPC  H13Y24332   2.555   1.095  13.694 -0.4701 -1.2035 -1.2143
  196DOPC  C31424333   2.693   1.055  13.849  0.2807  0.4330  0.0594
  196DOPC  H14X24334   2.670   0.946  13.844 -0.2306  0.4033  2.1682
  196DOPC  H14Y24335   2.801   1.065  13.873  0.5135 -1.7917  0.1662
  196DOPC  C31524336   2.602   1.108  13.959  0.0339 -0.5327 -0.5994
  196DOPC  H15X24337   2.646   1.057  14.048  1.9566 -0.9252 -1.7349
  196DOPC  H15Y24338   2.499   1.068  13.943  0.3946 -0.5872 -3.0187
  196DOPC  C31624339   2.591   1.260  13.989  0.0667 -0.6823  0.2849
  196DOPC  H16X24340   2.696   1.291  14.004 -0.5035  2.6211 -1.4136
  196DOPC  H16Y24341   2.552   1.324  13.906 -1.2601 -0.7416  0.8297
  196DOPC  C31724342   2.509   1.297  14.108  0.0148  0.3727 -0.1611
  196DOPC  H17X24343   2.402   1.272  14.097  0.0639 -0.9604  1.8457
  196DOPC  H17Y24344   2.552   1.252  14.200 -2.8973  2.5564  2.4462
  196DOPC  C31824345   2.519   1.444  14.145  0.5623  0.0234 -0.5758
  196DOPC  H18X24346   2.622   1.472  14.177  0.2081  0.4633  0.1886
  196DOPC  H18Y24347   2.485   1.514  14.066  0.7358 -0.0691 -0.7363
  196DOPC  H18Z24348   2.460   1.461  14.237  2.8187  0.7869  0.7969
  197DOPC     N24349   6.536   6.302  11.054  0.3753 -0.6521 -0.6507
  197DOPC   C1224350   6.500   6.426  11.136 -0.0687 -0.6160  0.4699
  197DOPC  H12A24351   6.397   6.414  11.166 -0.7528 -2.5131 -2.2423
  197DOPC  H12B24352   6.509   6.503  11.061 -4.3879 -0.7893 -0.4639
  197DOPC   C1324353   6.506   6.182  11.137 -0.0815 -0.0909 -0.0149
  197DOPC  H13A24354   6.572   6.182  11.222 -0.0279  1.4082 -0.0230
  197DOPC  H13B24355   6.402   6.185  11.166 -0.0273 -1.7163  0.4678
  197DOPC  H13C24356   6.515   6.095  11.073 -0.3270  0.9909 -1.5716
  197DOPC   C1424357   6.676   6.304  11.014 -0.3947  0.4317 -0.2251
  197DOPC  H14A24358   6.689   6.382  10.941 -1.3236  0.7545 -0.0578
  197DOPC  H14B24359   6.743   6.312  11.099  0.4387 -1.1346 -0.7017
  197DOPC  H14C24360   6.704   6.208  10.972  0.8405  0.9686 -0.6804
  197DOPC   C1524361   6.454   6.299  10.928  0.3778 -0.4109  0.7867
  197DOPC  H15A24362   6.467   6.218  10.858 -2.9701  0.4579 -1.0817
  197DOPC  H15B24363   6.472   6.387  10.869  0.9594 -1.1429 -0.1537
  197DOPC  H15C24364   6.349   6.299  10.957  0.0726  1.7381 -0.1616
  197DOPC   C1124365   6.593   6.445  11.262  0.3682  0.1842 -0.0959
  197DOPC  H11A24366   6.700   6.444  11.231 -0.1105  1.5468 -1.9812
  197DOPC  H11B24367   6.575   6.549  11.299  2.2139 -0.0881  1.7501
  197DOPC     P24368   6.467   6.371  11.489 -0.3270 -0.0554  0.3730
  197DOPC   O1324369   6.382   6.256  11.512 -0.5128  0.1131 -0.5234
  197DOPC   O1424370   6.382   6.491  11.471 -0.2261  0.0758 -0.3261
  197DOPC   O1224371   6.565   6.352  11.365  0.5779  0.4972  0.0487
  197DOPC   O1124372   6.564   6.389  11.607  0.0480 -0.1145  0.3745
  197DOPC    C124373   6.684   6.469  11.602  0.2532  0.1030 -0.1279
  197DOPC    HA24374   6.666   6.568  11.554  1.7208  0.9531  0.9897
  197DOPC    HB24375   6.765   6.413  11.551  1.2777  1.2932  0.1453
  197DOPC    C224376   6.731   6.495  11.749 -0.3485  0.3291  0.7144
  197DOPC    HS24377   6.712   6.400  11.804  0.5401  1.4639  3.1188
  197DOPC   O2124378   6.676   6.616  11.807  0.1403  0.8799 -0.2394
  197DOPC   C2124379   6.583   6.605  11.891 -0.3495 -0.4784  0.0466
  197DOPC   O2224380   6.537   6.504  11.940  0.2585 -0.0433 -0.2336
  197DOPC   C2224381   6.533   6.749  11.932  0.2306  0.2233  0.6284
  197DOPC   H2R24382   6.445   6.767  11.867 -0.9611  0.1865  2.1525
  197DOPC   H2S24383   6.603   6.831  11.903 -1.7397  1.4547 -0.9047
  197DOPC    C324384   6.885   6.524  11.757  0.1732  0.6055  0.3126
  197DOPC    HX24385   6.895   6.625  11.714 -0.1366  1.5173  2.2664
  197DOPC    HY24386   6.943   6.457  11.690  0.9926  1.4193  0.1819
  197DOPC   O3124387   6.940   6.520  11.891 -0.8007  0.4323 -0.5331
  197DOPC   C3124388   7.023   6.421  11.924 -0.9547  0.2248 -0.1298
  197DOPC   O3224389   7.042   6.318  11.865 -0.1299  0.0384  0.5438
  197DOPC   C3224390   7.089   6.445  12.057 -0.0414 -0.0959 -1.1259
  197DOPC   H2X24391   7.006   6.453  12.131  1.0199 -0.5012  0.1571
  197DOPC   H2Y24392   7.157   6.365  12.094  0.5913  0.8260 -0.2606
  197DOPC   C2324393   6.487   6.753  12.081 -0.4001 -0.4987 -0.2959
  197DOPC   H3R24394   6.552   6.826  12.135 -1.2881 -0.3412  0.5954
  197DOPC   H3S24395   6.511   6.662  12.140  0.4725  1.4121  2.5293
  197DOPC   C2424396   6.348   6.807  12.105  0.8725 -0.5012 -0.4670
  197DOPC   H4R24397   6.279   6.733  12.060  0.3994  0.5793 -1.5590
  197DOPC   H4S24398   6.324   6.904  12.058 -1.6647 -0.8173  0.0051
  197DOPC   C2524399   6.315   6.824  12.256  0.1221 -0.1728  0.4461
  197DOPC   H5R24400   6.395   6.891  12.293  0.3003  1.0302 -1.9705
  197DOPC   H5S24401   6.316   6.727  12.311  2.0372 -1.0772 -1.1116
  197DOPC   C2624402   6.184   6.900  12.288 -0.0338 -0.4390  0.2153
  197DOPC   H6R24403   6.104   6.824  12.294 -0.2802 -0.0553  2.3757
  197DOPC   H6S24404   6.159   6.981  12.216  2.6434  0.3095  0.0163
  197DOPC   C2724405   6.192   6.986  12.421  0.0250 -0.1814 -0.7805
  197DOPC   H7R24406   6.105   7.053  12.441  0.3569 -0.2954  1.2702
  197DOPC   H7S24407   6.281   7.049  12.399  0.4951 -0.0222  1.4167
  197DOPC   C2824408   6.219   6.903  12.544 -0.3596  0.4295  0.3589
  197DOPC   H8R24409   6.261   6.962  12.628  1.3337 -0.7465  0.3941
  197DOPC   H8S24410   6.295   6.828  12.513  0.4537  0.9125  1.1505
  197DOPC   C2924411   6.088   6.832  12.579 -0.3648  0.0332 -0.1356
  197DOPC   H9R24412   6.058   6.742  12.524 -0.4815 -0.7194  1.1294
  197DOPC  C21024413   6.003   6.867  12.675 -0.0096 -0.2700  0.1097
  197DOPC  H10R24414   5.915   6.804  12.691 -0.4395  0.5824  1.2358
  197DOPC  C21124415   6.018   6.967  12.789 -0.1059 -0.0660 -0.2803
  197DOPC  H11R24416   5.962   7.061  12.772  1.5457  1.2525  1.1620
  197DOPC  H11S24417   6.120   7.007  12.803 -0.8896  1.2006  2.5980
  197DOPC  C21224418   5.970   6.904  12.929  0.4744 -0.0351 -0.0850
  197DOPC  H12R24419   6.029   6.812  12.952  1.4385  0.0884 -1.8886
  197DOPC  H12S24420   5.863   6.882  12.908  0.2156  0.4542  0.6837
  197DOPC  C21324421   5.970   6.999  13.049 -0.4708 -0.4105 -0.3519
  197DOPC  H13R24422   5.906   6.960  13.131 -0.3836 -1.2346 -0.6579
  197DOPC  H13S24423   5.929   7.090  13.000  0.9694  0.6267  0.3324
  197DOPC  C21424424   6.115   7.017  13.105  1.3934  0.2436 -0.6052
  197DOPC  H14R24425   6.175   7.063  13.024  0.4932  2.0951 -0.2790
  197DOPC  H14S24426   6.155   6.916  13.128  0.3385 -0.4800 -1.7887
  197DOPC  C21524427   6.129   7.098  13.231 -0.0030  0.1012  0.5508
  197DOPC  H15R24428   6.095   7.034  13.316 -3.3674 -0.8392 -1.2979
  197DOPC  H15S24429   6.062   7.186  13.228 -0.1036  0.0074  0.0095
  197DOPC  C21624430   6.269   7.154  13.246 -0.5267 -0.3282 -0.3087
  197DOPC  H16R24431   6.295   7.215  13.157 -2.6068  0.6563 -0.3049
  197DOPC  H16S24432   6.336   7.066  13.253 -0.7401 -0.4112  0.8088
  197DOPC  C21724433   6.276   7.259  13.359  0.2336 -0.5194 -0.1970
  197DOPC  H17R24434   6.381   7.276  13.390  0.5053  0.7799 -1.7447
  197DOPC  H17S24435   6.231   7.215  13.451 -1.3546 -1.2512 -1.2846
  197DOPC  C21824436   6.205   7.395  13.330 -0.1585 -0.5256  0.1783
  197DOPC  H18R24437   6.106   7.375  13.285 -1.1508  2.0390  1.0507
  197DOPC  H18S24438   6.267   7.462  13.266 -2.9358  1.1150 -0.9520
  197DOPC  H18T24439   6.182   7.443  13.428 -1.0658  0.0786 -0.3103
  197DOPC   C3324440   7.170   6.572  12.074 -0.2271 -0.3713  0.8860
  197DOPC   H3X24441   7.216   6.567  12.175  0.3955 -0.6730  0.5933
  197DOPC   H3Y24442   7.111   6.664  12.057 -0.9685 -0.5838  2.2048
  197DOPC   C3424443   7.289   6.573  11.978 -0.4101  0.4749  0.4275
  197DOPC   H4X24444   7.264   6.596  11.872  1.6402 -0.1107 -0.2352
  197DOPC   H4Y24445   7.338   6.473  11.982 -1.1016  0.1433  0.6737
  197DOPC   C3524446   7.398   6.660  12.036  0.3189  0.2676 -0.1499
  197DOPC   H5X24447   7.489   6.646  11.974  1.9333 -2.7265  2.6174
  197DOPC   H5Y24448   7.438   6.626  12.133 -0.4422  1.9544  0.8074
  197DOPC   C3624449   7.366   6.809  12.047 -0.7049 -0.1565 -0.6109
  197DOPC   H6X24450   7.320   6.846  11.953  1.1497 -1.9681 -2.3187
  197DOPC   H6Y24451   7.288   6.830  12.124 -0.2664  0.0732 -0.2183
  197DOPC   C3724452   7.491   6.892  12.088 -0.6908  0.8112  0.3027
  197DOPC   H7X24453   7.578   6.861  12.027  0.2917  1.4150  1.3634
  197DOPC   H7Y24454   7.468   6.995  12.054 -1.9571  0.3577 -0.2973
  197DOPC   C3824455   7.518   6.870  12.242  0.5085 -0.4711  0.2809
  197DOPC   H8X24456   7.520   6.761  12.262 -1.1031 -0.1239  2.8599
  197DOPC   H8Y24457   7.440   6.919  12.305  1.0029 -0.0662  0.5954
  197DOPC   C3924458   7.647   6.912  12.294 -0.1165  0.2317  0.5520
  197DOPC   H9X24459   7.729   6.881  12.228  0.9001  0.6201  1.5958
  197DOPC  C31024460   7.677   6.984  12.403 -0.0844 -0.5741 -0.3981
  197DOPC  H10X24461   7.781   7.002  12.435 -0.4296 -1.4303  1.3554
  197DOPC  C31124462   7.581   7.027  12.510  0.0316 -0.1682 -0.3869
  197DOPC  H11X24463   7.475   7.024  12.476  0.3270  0.5649 -1.4166
  197DOPC  H11Y24464   7.608   7.123  12.560  0.8466 -0.6675  0.1546
  197DOPC  C31224465   7.585   6.925  12.625 -0.3699  0.1303 -0.0241
  197DOPC  H12X24466   7.686   6.915  12.671 -0.2664 -2.2683 -0.6268
  197DOPC  H12Y24467   7.561   6.821  12.594 -0.3865 -0.2729  1.2532
  197DOPC  C31324468   7.496   6.982  12.744  0.4493  0.5435 -1.0224
  197DOPC  H13X24469   7.527   7.088  12.760 -0.2624  0.6790 -0.4875
  197DOPC  H13Y24470   7.390   6.973  12.713  0.0903 -0.1637  0.3438
  197DOPC  C31424471   7.505   6.896  12.867 -0.4034 -0.0000  0.1237
  197DOPC  H14X24472   7.450   6.799  12.861 -0.4965 -0.0471  1.4470
  197DOPC  H14Y24473   7.614   6.876  12.877 -0.6036 -1.0406  0.3334
  197DOPC  C31524474   7.466   6.969  12.992  0.4469  0.1010 -0.1903
  197DOPC  H15X24475   7.360   6.997  12.973  1.1131  0.7791 -3.5582
  197DOPC  H15Y24476   7.523   7.064  13.005  0.8677 -0.1643 -0.0786
  197DOPC  C31624477   7.494   6.890  13.120  0.0139  0.1625  0.1456
  197DOPC  H16X24478   7.420   6.808  13.135 -1.1545  1.3826  1.3238
  197DOPC  H16Y24479   7.592   6.838  13.108  0.1655  0.2392  0.9887
  197DOPC  C31724480   7.501   6.967  13.250 -0.5014 -0.6259 -0.1139
  197DOPC  H17X24481   7.559   7.061  13.236 -1.5769  0.2620  1.1455
  197DOPC  H17Y24482   7.398   7.000  13.276  0.2062  1.3431  0.3713
  197DOPC  C31824483   7.557   6.899  13.373 -0.0380 -0.4226 -0.1051
  197DOPC  H18X24484   7.497   6.806  13.384  0.9179 -1.1002 -0.4744
  197DOPC  H18Y24485   7.665   6.881  13.360  0.3930  0.6669  1.6822
  197DOPC  H18Z24486   7.540   6.959  13.465 -0.9635 -1.0272  0.1383
  198DOPC     N24487   6.581   6.094  11.897 -0.0809  0.1573 -0.4735
  198DOPC   C1224488   6.623   5.949  11.919  0.3161 -0.5599  0.1394
  198DOPC  H12A24489   6.729   5.963  11.905  0.4179  0.3250  1.6029
  198DOPC  H12B24490   6.581   5.890  11.839 -2.1231 -0.7988  1.4914
  198DOPC   C1324491   6.605   6.187  12.013 -0.0368 -0.2500 -0.1354
  198DOPC  H13A24492   6.559   6.283  11.997 -0.3465 -0.5501 -1.0603
  198DOPC  H13B24493   6.570   6.155  12.110  0.2564 -1.5453 -0.4374
  198DOPC  H13C24494   6.711   6.211  12.019 -0.2226  0.5992 -0.0585
  198DOPC   C1424495   6.433   6.092  11.881  0.1177 -0.3379  0.0747
  198DOPC  H14A24496   6.401   6.057  11.784  1.7233  1.4029 -1.1571
  198DOPC  H14B24497   6.386   6.050  11.969  1.3519  0.8375  1.3577
  198DOPC  H14C24498   6.407   6.196  11.890 -2.1672 -1.0322  3.3340
  198DOPC   C1524499   6.649   6.159  11.786  1.0473  0.0883  0.4134
  198DOPC  H15A24500   6.750   6.173  11.821  1.5404 -0.7566 -0.6209
  198DOPC  H15B24501   6.601   6.251  11.757 -1.2437 -0.0253  3.3113
  198DOPC  H15C24502   6.639   6.096  11.699 -0.6842  1.4538 -0.4518
  198DOPC   C1124503   6.587   5.884  12.052 -0.5566 -0.1490  0.0347
  198DOPC  H11A24504   6.648   5.791  12.059 -0.3047  0.0884  1.1532
  198DOPC  H11B24505   6.615   5.947  12.140 -1.8869 -0.7535  0.9308
  198DOPC     P24506   6.378   5.744  12.000  0.0254 -0.1997  0.1327
  198DOPC   O1324507   6.478   5.672  11.916 -0.0278  0.6546  0.5774
  198DOPC   O1424508   6.263   5.802  11.929 -0.0715  0.5323 -0.4975
  198DOPC   O1224509   6.445   5.860  12.072  0.1197 -0.1856  0.8056
  198DOPC   O1124510   6.330   5.653  12.123  0.0456 -0.1640  0.0578
  198DOPC    C124511   6.314   5.710  12.252 -0.3506 -0.4325  0.1864
  198DOPC    HA24512   6.251   5.801  12.237 -0.3515 -0.7254 -1.9756
  198DOPC    HB24513   6.405   5.754  12.297 -2.1684  0.7520  3.0279
  198DOPC    C224514   6.253   5.616  12.363 -0.3055  0.1795 -0.8992
  198DOPC    HS24515   6.148   5.609  12.326 -0.2313  2.2427 -1.6289
  198DOPC   O2124516   6.261   5.681  12.494 -0.2303  0.1865  0.4250
  198DOPC   C2124517   6.171   5.782  12.501 -0.9861  1.4275 -0.3274
  198DOPC   O2224518   6.090   5.810  12.418  0.0300  0.1804  0.1817
  198DOPC   C2224519   6.184   5.841  12.644 -0.5634 -0.4345  0.1121
  198DOPC   H2R24520   6.271   5.794  12.694  0.0963  0.3106 -0.3039
  198DOPC   H2S24521   6.094   5.822  12.707 -0.7761  0.8465  0.2194
  198DOPC    C324522   6.318   5.482  12.377  0.3936 -0.0637 -0.0335
  198DOPC    HX24523   6.427   5.502  12.386  0.4825 -0.3850 -0.3677
  198DOPC    HY24524   6.297   5.430  12.281 -0.8319  1.6362 -0.7523
  198DOPC   O3124525   6.278   5.420  12.495 -0.1797 -0.2267 -0.2497
  198DOPC   C3124526   6.321   5.295  12.497  0.7451  0.3942  0.1378
  198DOPC   O3224527   6.377   5.243  12.405  0.1034  0.2436  0.4418
  198DOPC   C3224528   6.236   5.222  12.614 -1.1844  0.1636  0.3928
  198DOPC   H2X24529   6.195   5.302  12.679 -1.6888  1.5062 -1.4863
  198DOPC   H2Y24530   6.143   5.167  12.588 -1.7462  0.8570  0.9249
  198DOPC   C2324531   6.209   5.999  12.652  0.3949 -0.4935 -0.6453
  198DOPC   H3R24532   6.155   6.054  12.571  1.1081 -0.5546 -1.1742
  198DOPC   H3S24533   6.313   6.034  12.637  0.4573  0.4566  1.6201
  198DOPC   C2424534   6.152   6.052  12.788  0.0897  0.0890  0.3403
  198DOPC   H4R24535   6.049   6.011  12.801  0.5373 -1.8103 -1.4795
  198DOPC   H4S24536   6.155   6.163  12.784  0.8324  0.1288  1.5637
  198DOPC   C2524537   6.221   6.006  12.919  0.5496 -0.3795 -0.0659
  198DOPC   H5R24538   6.331   6.022  12.909  0.1833  0.7846 -3.5775
  198DOPC   H5S24539   6.206   5.899  12.941  0.8096 -0.9378 -2.3614
  198DOPC   C2624540   6.183   6.099  13.038  0.2054 -0.9077  0.5254
  198DOPC   H6R24541   6.073   6.102  13.056  0.4330  1.3874  1.8371
  198DOPC   H6S24542   6.222   6.199  13.010 -0.6926 -0.4087  0.9901
  198DOPC   C2724543   6.253   6.064  13.171  0.1605 -0.3550 -0.4934
  198DOPC   H7R24544   6.363   6.075  13.163  0.7187 -1.3823  3.5093
  198DOPC   H7S24545   6.241   5.957  13.199  1.2612 -0.0165  1.4967
  198DOPC   C2824546   6.210   6.162  13.278 -0.1573  0.0847 -1.0310
  198DOPC   H8R24547   6.106   6.129  13.299  0.7626 -2.1610  0.2749
  198DOPC   H8S24548   6.208   6.269  13.246 -1.4939  1.5753  3.2115
  198DOPC   C2924549   6.296   6.168  13.403 -0.3306  0.8060 -0.0102
  198DOPC   H9R24550   6.283   6.082  13.470  1.0736  1.0179  0.5740
  198DOPC  C21024551   6.381   6.266  13.448 -0.1053  0.3090  0.5458
  198DOPC  H10R24552   6.431   6.253  13.545 -1.8186  2.5038  1.8152
  198DOPC  C21124553   6.408   6.405  13.399 -0.5613 -0.6765  0.8097
  198DOPC  H11R24554   6.318   6.444  13.346 -0.7298 -0.6923  1.0811
  198DOPC  H11S24555   6.491   6.412  13.325  1.1505  3.3666  2.7456
  198DOPC  C21224556   6.440   6.501  13.519  0.6635 -0.1694 -0.3542
  198DOPC  H12R24557   6.359   6.490  13.594 -0.6336 -0.8820 -1.7842
  198DOPC  H12S24558   6.426   6.606  13.486 -2.2735 -0.0787  0.8752
  198DOPC  C21324559   6.577   6.480  13.588 -0.8419 -0.1087 -0.2673
  198DOPC  H13R24560   6.653   6.489  13.507  0.4241 -1.7939  0.6851
  198DOPC  H13S24561   6.585   6.374  13.619  0.1095 -0.2922 -1.1014
  198DOPC  C21424562   6.599   6.576  13.700  0.5835  0.7824  0.3748
  198DOPC  H14R24563   6.526   6.562  13.782  0.6463  2.8290  0.8255
  198DOPC  H14S24564   6.591   6.683  13.673  0.2744  0.5758 -0.3723
  198DOPC  C21524565   6.747   6.568  13.760  0.5320 -0.0845  0.6633
  198DOPC  H15R24566   6.817   6.615  13.688  0.2728 -0.7615 -0.0538
  198DOPC  H15S24567   6.774   6.462  13.783 -0.0405 -0.5770 -0.7809
  198DOPC  C21624568   6.743   6.655  13.895 -0.2910 -0.2081  0.0180
  198DOPC  H16R24569   6.669   6.617  13.970 -1.8813  0.2495 -1.2527
  198DOPC  H16S24570   6.705   6.753  13.858 -1.1146 -0.0714  1.1572
  198DOPC  C21724571   6.883   6.683  13.961  0.5073 -0.0479 -0.2397
  198DOPC  H17R24572   6.874   6.757  14.044 -0.4493 -1.8829  1.3684
  198DOPC  H17S24573   6.933   6.729  13.873 -2.2532 -2.0227 -3.0829
  198DOPC  C21824574   6.957   6.563  14.027 -0.1027  0.8901  0.1342
  198DOPC  H18R24575   6.981   6.492  13.946 -0.3737  0.7426  0.1783
  198DOPC  H18S24576   6.895   6.510  14.103 -0.3710  1.7291  0.5212
  198DOPC  H18T24577   7.050   6.590  14.082 -0.5456  2.2126  0.2759
  198DOPC   C3324578   6.321   5.110  12.675 -0.8446 -0.1225 -0.4457
  198DOPC   H3X24579   6.351   5.037  12.597 -0.6733 -1.1712  0.5622
  198DOPC   H3Y24580   6.254   5.062  12.750 -0.7124 -0.1747 -0.3609
  198DOPC   C3424581   6.443   5.168  12.751 -0.3751  0.1109  0.3886
  198DOPC   H4X24582   6.419   5.267  12.793  1.0211 -0.2146  2.1050
  198DOPC   H4Y24583   6.524   5.192  12.679  0.1106 -0.9267  0.5571
  198DOPC   C3524584   6.499   5.073  12.857  0.4710 -0.2459 -0.5191
  198DOPC   H5X24585   6.602   5.111  12.874  0.9227 -0.1709 -2.9740
  198DOPC   H5Y24586   6.493   4.970  12.816  0.8339 -0.7987  0.7936
  198DOPC   C3624587   6.416   5.092  12.988  0.8961  0.2714  0.2805
  198DOPC   H6X24588   6.473   5.177  13.032 -0.6359  1.0637  0.7994
  198DOPC   H6Y24589   6.313   5.124  12.964  0.9435  0.2940  0.1096
  198DOPC   C3724590   6.408   4.963  13.075 -0.0033  0.0291 -1.0487
  198DOPC   H7X24591   6.363   5.006  13.167  1.2774  1.4296 -1.0286
  198DOPC   H7Y24592   6.339   4.891  13.027  0.9940 -1.6244 -0.0910
  198DOPC   C3824593   6.540   4.882  13.092 -0.6414 -0.1245 -0.5854
  198DOPC   H8X24594   6.582   4.857  12.992 -0.2867 -0.7387 -0.2914
  198DOPC   H8Y24595   6.527   4.778  13.127  0.9150 -0.6435 -1.4297
  198DOPC   C3924596   6.646   4.953  13.171  0.3889  0.2940  0.0948
  198DOPC   H9X24597   6.711   5.009  13.102  0.9734  0.9934  1.1958
  198DOPC  C31024598   6.673   4.941  13.307 -0.3567  0.4302 -0.7003
  198DOPC  H10X24599   6.748   5.012  13.345 -2.1031  0.7327  2.5515
  198DOPC  C31124600   6.599   4.858  13.408 -0.1217  0.6795  0.0265
  198DOPC  H11X24601   6.529   4.790  13.355  1.0126 -0.4728 -0.0367
  198DOPC  H11Y24602   6.534   4.923  13.470  2.2540  1.8492  1.4502
  198DOPC  C31224603   6.699   4.782  13.502  0.1010  0.6912 -0.5105
  198DOPC  H12X24604   6.778   4.724  13.449  0.5786 -0.7207  1.6291
  198DOPC  H12Y24605   6.645   4.692  13.537  2.2382 -1.8226 -3.1115
  198DOPC  C31324606   6.779   4.857  13.610 -0.1418 -0.3849  0.5099
  198DOPC  H13X24607   6.872   4.800  13.626 -1.0079 -2.2541 -0.7436
  198DOPC  H13Y24608   6.790   4.962  13.573  2.6520 -0.6534  0.3569
  198DOPC  C31424609   6.699   4.847  13.742 -0.2423 -0.4734 -0.1073
  198DOPC  H14X24610   6.624   4.930  13.744  0.7972  0.4810  0.3210
  198DOPC  H14Y24611   6.652   4.747  13.746  1.5496 -1.3060  1.4753
  198DOPC  C31524612   6.794   4.880  13.866  0.2348  0.7582 -0.0731
  198DOPC  H15X24613   6.852   4.968  13.833 -1.1216  1.1637 -1.5103
  198DOPC  H15Y24614   6.858   4.791  13.882  1.6858  1.6984 -0.5388
  198DOPC  C31624615   6.730   4.927  13.997 -0.1662 -0.0743  0.5275
  198DOPC  H16X24616   6.650   4.999  13.972  0.2195 -0.4631 -2.1209
  198DOPC  H16Y24617   6.688   4.846  14.060 -2.4517  0.0413 -0.7562
  198DOPC  C31724618   6.831   4.997  14.083  0.0212  0.3114  0.5940
  198DOPC  H17X24619   6.914   4.926  14.098 -1.1972 -2.2174 -3.2395
  198DOPC  H17Y24620   6.863   5.086  14.025 -2.3965  2.1184  1.8018
  198DOPC  C31824621   6.774   5.051  14.213  0.1100 -0.5198 -0.7587
  198DOPC  H18X24622   6.678   5.104  14.192  0.3788  1.1427  1.8102
  198DOPC  H18Y24623   6.746   4.962  14.274 -3.8039 -0.6100 -2.3755
  198DOPC  H18Z24624   6.842   5.119  14.267 -0.8488 -0.3750  0.3114
  199DOPC     N24625   4.687   0.432  11.397  0.1792 -0.0609  0.3493
  199DOPC   C1224626   4.651   0.526  11.502  0.6170  0.1958 -0.8032
  199DOPC  H12A24627   4.565   0.584  11.475 -0.0741 -0.4509 -0.0510
  199DOPC  H12B24628   4.730   0.599  11.503 -1.6892  2.8605  0.4802
  199DOPC   C1324629   4.828   0.375  11.425 -0.3294  0.1533 -0.3375
  199DOPC  H13A24630   4.900   0.453  11.405  0.9324 -0.4884  1.4042
  199DOPC  H13B24631   4.846   0.335  11.524 -1.1273 -0.5651 -0.4680
  199DOPC  H13C24632   4.844   0.292  11.358 -1.4779 -0.7753  0.4924
  199DOPC   C1424633   4.679   0.506  11.274 -0.7729 -0.4376  0.1512
  199DOPC  H14A24634   4.709   0.446  11.189  0.3664 -0.4998  0.5742
  199DOPC  H14B24635   4.585   0.557  11.259 -1.3867 -1.1005  1.5682
  199DOPC  H14C24636   4.758   0.580  11.278  0.4578 -1.7414  1.0373
  199DOPC   C1524637   4.596   0.316  11.389  0.1912 -0.0391  0.4561
  199DOPC  H15A24638   4.625   0.256  11.304 -1.2878  1.1713 -0.9558
  199DOPC  H15B24639   4.499   0.360  11.377  0.5833  1.1454  1.5127
  199DOPC  H15C24640   4.603   0.257  11.480 -1.7689 -0.1845  0.5506
  199DOPC   C1124641   4.636   0.470  11.645 -1.1447 -0.2254  0.2087
  199DOPC  H11A24642   4.536   0.423  11.655 -0.3424 -1.7112  1.8050
  199DOPC  H11B24643   4.710   0.389  11.665 -0.0145  0.6524 -0.2848
  199DOPC     P24644   4.778   0.634  11.791 -0.3141  0.4677  0.0429
  199DOPC   O1324645   4.742   0.758  11.860  0.3280 -0.1321 -0.5514
  199DOPC   O1424646   4.885   0.641  11.686  0.0862  0.5047  0.0034
  199DOPC   O1224647   4.643   0.579  11.737 -0.0475 -0.4926  0.0300
  199DOPC   O1124648   4.825   0.530  11.893  0.1289  0.5273  0.3957
  199DOPC    C124649   4.722   0.474  11.981  0.9358  0.6847 -0.6927
  199DOPC    HA24650   4.764   0.382  12.027 -1.7197  0.5791  1.8156
  199DOPC    HB24651   4.632   0.436  11.928  1.8866 -2.2871 -0.3811
  199DOPC    C224652   4.701   0.564  12.107 -0.1649  0.9255 -0.0184
  199DOPC    HS24653   4.663   0.662  12.074 -0.4887  0.7799 -0.0789
  199DOPC   O2124654   4.838   0.575  12.170 -0.4189  0.1411  0.2972
  199DOPC   C2124655   4.853   0.689  12.239 -0.9943  0.4169 -0.1398
  199DOPC   O2224656   4.768   0.773  12.256  0.2432 -0.5137 -0.5531
  199DOPC   C2224657   4.995   0.688  12.295 -0.5908  0.0353 -0.0321
  199DOPC   H2R24658   5.017   0.795  12.319 -2.3203  0.3673  0.1670
  199DOPC   H2S24659   5.072   0.662  12.219 -0.8469  1.2199 -0.7218
  199DOPC    C324660   4.601   0.502  12.207 -0.5655 -0.3455 -0.5609
  199DOPC    HX24661   4.653   0.409  12.238  1.0193  0.5686 -0.3642
  199DOPC    HY24662   4.511   0.470  12.150 -0.5290  0.6655 -1.1947
  199DOPC   O3124663   4.580   0.588  12.322  0.8582  0.2385 -0.5112
  199DOPC   C3124664   4.478   0.673  12.314 -0.5054 -1.0495 -0.2606
  199DOPC   O3224665   4.400   0.686  12.220  0.2150 -0.0441 -0.6890
  199DOPC   C3224666   4.475   0.748  12.450  0.2878  0.3776  0.1739
  199DOPC   H2X24667   4.578   0.767  12.487  0.2491  2.4956 -0.6541
  199DOPC   H2Y24668   4.411   0.837  12.431 -0.5339 -0.5442 -1.5964
  199DOPC   C2324669   4.994   0.605  12.427  0.4869  0.3355  1.2102
  199DOPC   H3R24670   5.097   0.612  12.468  2.0189 -1.2418 -2.0673
  199DOPC   H3S24671   4.989   0.505  12.379  0.2633  1.0010 -0.2047
  199DOPC   C2424672   4.880   0.637  12.526 -0.3428  0.3299 -0.0382
  199DOPC   H4R24673   4.801   0.561  12.510  1.4267 -1.6991  0.3563
  199DOPC   H4S24674   4.843   0.741  12.509  0.9812  1.0883  1.4437
  199DOPC   C2524675   4.947   0.635  12.665  0.3798  0.1375 -0.0926
  199DOPC   H5R24676   5.027   0.712  12.664 -0.1836  0.8521  2.4891
  199DOPC   H5S24677   4.991   0.535  12.687  3.7127  1.7182  1.1562
  199DOPC   C2624678   4.854   0.683  12.781  0.2561 -0.1399 -0.4600
  199DOPC   H6R24679   4.766   0.617  12.764  0.0144  0.4905 -1.8074
  199DOPC   H6S24680   4.822   0.788  12.761  0.7509  0.0677 -0.1765
  199DOPC   C2724681   4.925   0.675  12.918 -0.6269  0.1875  0.2888
  199DOPC   H7R24682   5.015   0.737  12.904 -0.4884  0.0636  0.6195
  199DOPC   H7S24683   4.942   0.566  12.936 -2.2324  0.0710  1.3165
  199DOPC   C2824684   4.835   0.731  13.030 -0.1069  0.0154  0.8368
  199DOPC   H8R24685   4.771   0.810  12.984  0.9841 -1.0347 -2.8649
  199DOPC   H8S24686   4.906   0.767  13.107  0.3801  0.3378  0.2503
  199DOPC   C2924687   4.747   0.617  13.083  0.1712  0.3553 -1.2229
  199DOPC   H9R24688   4.666   0.585  13.015 -0.7556 -1.2420  0.5469
  199DOPC  C21024689   4.759   0.554  13.203 -0.4128  0.2089  0.2568
  199DOPC  H10R24690   4.686   0.483  13.246 -0.4030  0.0517  0.0163
  199DOPC  C21124691   4.860   0.590  13.310  0.2001  0.0529  0.3154
  199DOPC  H11R24692   4.826   0.533  13.399 -2.0718  1.0434  0.1743
  199DOPC  H11S24693   4.854   0.698  13.339  0.6908 -0.2556  1.6294
  199DOPC  C21224694   5.012   0.552  13.296 -0.3554 -0.8833 -0.1296
  199DOPC  H12R24695   5.058   0.618  13.219  0.7013 -0.2289  1.0349
  199DOPC  H12S24696   5.018   0.447  13.262  0.1367 -0.7464 -0.4809
  199DOPC  C21324697   5.088   0.571  13.431  0.1548 -0.7414 -0.6216
  199DOPC  H13R24698   5.037   0.663  13.467 -0.3672 -2.1342  2.4526
  199DOPC  H13S24699   5.194   0.603  13.423 -0.5887  2.8105  1.5571
  199DOPC  C21424700   5.070   0.466  13.547  0.1200  0.1758 -0.1953
  199DOPC  H14R24701   4.962   0.439  13.547  0.3503 -0.7641  0.2111
  199DOPC  H14S24702   5.098   0.514  13.643  1.1744 -1.0254  0.1215
  199DOPC  C21524703   5.148   0.334  13.529 -0.0894 -0.5953  0.5909
  199DOPC  H15R24704   5.256   0.358  13.535 -0.0386 -1.0946  2.0109
  199DOPC  H15S24705   5.128   0.289  13.429  1.9118  0.6737 -0.4498
  199DOPC  C21624706   5.123   0.243  13.651  0.6299 -0.1349  0.0769
  199DOPC  H16R24707   5.023   0.194  13.650  0.4467  0.1975  0.9626
  199DOPC  H16S24708   5.115   0.296  13.748  1.2240  0.3756 -0.1499
  199DOPC  C21724709   5.222   0.122  13.664 -0.1987 -0.3086  0.2909
  199DOPC  H17R24710   5.321   0.169  13.680  0.2425 -0.8045 -0.8780
  199DOPC  H17S24711   5.224   0.076  13.563 -1.2002  2.2384 -0.9593
  199DOPC  C21824712   5.196   0.031  13.787 -0.2748  0.3174 -0.3146
  199DOPC  H18R24713   5.119  -0.045  13.766  0.9992 -1.5882  1.5135
  199DOPC  H18S24714   5.189   0.082  13.886  1.5196 -0.9316  0.5120
  199DOPC  H18T24715   5.288  -0.030  13.799  0.5996  1.3983 -1.1922
  199DOPC   C3324716   4.414   0.650  12.551  0.9940 -0.7586 -0.0727
  199DOPC   H3X24717   4.447   0.546  12.529 -0.6640 -1.2282 -0.5351
  199DOPC   H3Y24718   4.304   0.657  12.536  0.9125 -0.5864  0.5565
  199DOPC   C3424719   4.454   0.677  12.688 -0.0782  0.1603 -1.2068
  199DOPC   H4X24720   4.417   0.778  12.716 -0.4376  0.2570 -2.0139
  199DOPC   H4Y24721   4.564   0.667  12.702 -0.2917 -0.1830  0.3830
  199DOPC   C3524722   4.400   0.580  12.791 -0.3216 -0.1041  0.8011
  199DOPC   H5X24723   4.463   0.489  12.794  0.3177  0.2507 -0.7574
  199DOPC   H5Y24724   4.303   0.545  12.750 -0.1388  0.5451 -0.2136
  199DOPC   C3624725   4.383   0.643  12.933  1.0372  0.0701  0.4343
  199DOPC   H6X24726   4.480   0.675  12.977  0.7412 -0.2604  1.3720
  199DOPC   H6Y24727   4.325   0.736  12.918  0.9350  0.0318  0.5883
  199DOPC   C3724728   4.323   0.538  13.027 -0.2677 -0.2270  0.4501
  199DOPC   H7X24729   4.224   0.503  12.990  0.4570 -0.6687 -1.1433
  199DOPC   H7Y24730   4.386   0.447  13.015 -1.6282 -1.3402  1.2762
  199DOPC   C3824731   4.333   0.588  13.172  0.0492 -0.8149  0.1716
  199DOPC   H8X24732   4.278   0.683  13.190 -0.0412 -0.8039 -0.1564
  199DOPC   H8Y24733   4.442   0.607  13.172 -0.2009  1.2373  2.7099
  199DOPC   C3924734   4.283   0.476  13.267  0.4716 -0.2438  0.0121
  199DOPC   H9X24735   4.188   0.433  13.231 -1.7106  2.4351  2.1061
  199DOPC  C31024736   4.341   0.420  13.377  0.1635 -0.4650  0.6730
  199DOPC  H10X24737   4.288   0.341  13.432 -0.8874 -0.8779 -0.8828
  199DOPC  C31124738   4.472   0.459  13.434  0.1942 -1.2101  0.6869
  199DOPC  H11X24739   4.515   0.541  13.372 -1.0180 -2.3300 -1.7726
  199DOPC  H11Y24740   4.550   0.380  13.420 -0.8394 -2.1343  0.0067
  199DOPC  C31224741   4.460   0.494  13.590 -0.1381  0.0949  0.3540
  199DOPC  H12X24742   4.562   0.527  13.618  0.3404 -0.5207 -0.5938
  199DOPC  H12Y24743   4.423   0.407  13.648 -1.3382  0.5843  0.3475
  199DOPC  C31324744   4.365   0.612  13.600 -0.1298 -0.8914 -0.3741
  199DOPC  H13X24745   4.402   0.681  13.522  0.7485  0.1313  0.9096
  199DOPC  H13Y24746   4.257   0.589  13.581  0.3316 -2.1061 -1.7411
  199DOPC  C31424747   4.362   0.680  13.734  0.3079  0.1447 -0.0891
  199DOPC  H14X24748   4.465   0.709  13.766  1.5328 -0.0234 -3.4864
  199DOPC  H14Y24749   4.302   0.773  13.733  0.0034 -0.0071  1.4111
  199DOPC  C31524750   4.302   0.587  13.841 -0.9200 -0.2180 -0.1683
  199DOPC  H15X24751   4.342   0.484  13.831  3.0760  1.3474 -3.3758
  199DOPC  H15Y24752   4.192   0.579  13.836 -1.0306  1.4648 -2.9074
  199DOPC  C31624753   4.322   0.653  13.978  0.3556 -1.1648 -0.1887
  199DOPC  H16X24754   4.284   0.757  13.966 -0.4703 -1.4647 -0.2619
  199DOPC  H16Y24755   4.255   0.602  14.051 -0.0181 -1.0896 -0.4718
  199DOPC  C31724756   4.451   0.645  14.045  0.1313 -0.7835  0.4418
  199DOPC  H17X24757   4.496   0.544  14.031  2.5186  0.0196  1.8182
  199DOPC  H17Y24758   4.517   0.722  14.000 -2.0658  2.8205  2.8177
  199DOPC  C31824759   4.446   0.656  14.197 -0.1061 -0.1372  0.0559
  199DOPC  H18X24760   4.389   0.745  14.232  0.5056  0.0093  0.7113
  199DOPC  H18Y24761   4.375   0.578  14.232 -1.7947 -0.2514 -3.2959
  199DOPC  H18Z24762   4.550   0.654  14.235 -0.2717 -2.8552  0.5382
  200DOPC     N24763   1.975   1.321  11.302 -0.1013 -0.6000 -0.0314
  200DOPC   C1224764   1.890   1.398  11.399  0.2519  0.0582 -0.7593
  200DOPC  H12A24765   1.839   1.479  11.349 -1.4236  0.1143  0.9316
  200DOPC  H12B24766   1.953   1.444  11.472 -0.0149  0.8539 -1.0233
  200DOPC   C1324767   1.898   1.282  11.180 -0.0939 -0.5206 -0.1220
  200DOPC  H13A24768   1.969   1.248  11.106  1.2594  2.4556 -0.3230
  200DOPC  H13B24769   1.819   1.214  11.210 -1.3335  1.1150  0.4123
  200DOPC  H13C24770   1.857   1.374  11.143  1.4080  1.2983  2.4795
  200DOPC   C1424771   2.041   1.206  11.366  0.0950  0.7728 -0.5216
  200DOPC  H14A24772   1.970   1.137  11.408  0.3194  0.1802 -1.0896
  200DOPC  H14B24773   2.111   1.159  11.299 -1.2177 -0.9348 -0.7684
  200DOPC  H14C24774   2.104   1.239  11.447  2.7756  3.9438 -3.5550
  200DOPC   C1524775   2.092   1.408  11.253  0.6979  0.0209 -0.3390
  200DOPC  H15A24776   2.151   1.346  11.188 -1.0267 -2.2232  0.1122
  200DOPC  H15B24777   2.142   1.462  11.332  0.6525  1.3765 -1.1960
  200DOPC  H15C24778   2.045   1.481  11.189 -1.8401 -1.9481 -0.8824
  200DOPC   C1124779   1.785   1.321  11.488 -0.7552  0.0721 -0.1134
  200DOPC  H11A24780   1.833   1.252  11.562 -0.0384  2.4691  1.7933
  200DOPC  H11B24781   1.747   1.393  11.563  1.7758  0.4549  0.8944
  200DOPC     P24782   1.555   1.334  11.362 -0.2288  0.0317 -0.1297
  200DOPC   O1324783   1.515   1.282  11.231  0.0115 -0.6889  0.6961
  200DOPC   O1424784   1.578   1.475  11.367  0.6636 -0.2125 -0.9941
  200DOPC   O1224785   1.691   1.255  11.404 -0.2035 -0.2797 -0.3357
  200DOPC   O1124786   1.460   1.287  11.477 -0.7209  0.2473 -0.0078
  200DOPC    C124787   1.439   1.148  11.515 -0.3276  0.2930  0.9123
  200DOPC    HA24788   1.535   1.093  11.504 -0.9989 -0.9969  1.2463
  200DOPC    HB24789   1.374   1.094  11.443 -0.5473  0.4790  0.9701
  200DOPC    C224790   1.378   1.124  11.657 -0.2523 -0.3275  0.1350
  200DOPC    HS24791   1.387   1.015  11.676  2.5263  0.2752  2.9297
  200DOPC   O2124792   1.236   1.169  11.658  0.1865 -0.5850 -0.0500
  200DOPC   C2124793   1.170   1.116  11.767 -0.1267 -0.7018 -0.1031
  200DOPC   O2224794   1.218   1.029  11.833  0.2854 -1.0071  0.1953
  200DOPC   C2224795   1.028   1.165  11.777 -0.7169  0.2735 -0.0382
  200DOPC   H2R24796   0.982   1.146  11.678 -1.0868  0.9057  0.0037
  200DOPC   H2S24797   1.007   1.273  11.789 -2.0484 -0.0294  0.6791
  200DOPC    C324798   1.456   1.211  11.765  0.0142  0.5170  0.4417
  200DOPC    HX24799   1.434   1.318  11.743 -0.6407 -0.4055 -4.3423
  200DOPC    HY24800   1.564   1.202  11.741 -0.5738 -0.6984 -1.9737
  200DOPC   O3124801   1.424   1.187  11.901 -0.0077 -0.2127  0.1275
  200DOPC   C3124802   1.482   1.075  11.945 -0.5923  0.0064 -0.4887
  200DOPC   O3224803   1.572   1.017  11.886 -0.2653 -0.2671 -0.3066
  200DOPC   C3224804   1.422   1.023  12.074  0.8366  0.4771 -0.1274
  200DOPC   H2X24805   1.384   1.112  12.129 -0.3846  0.7569 -1.3839
  200DOPC   H2Y24806   1.335   0.960  12.050 -0.7236  2.0251  1.2026
  200DOPC   C2324807   0.953   1.081  11.881 -0.1228 -0.0430  0.0758
  200DOPC   H3R24808   0.958   0.972  11.862 -1.3427 -0.2206  0.6495
  200DOPC   H3S24809   0.849   1.116  11.861 -0.7383 -1.9622 -0.3249
  200DOPC   C2424810   0.984   1.109  12.020 -0.1342 -0.3446 -1.1034
  200DOPC   H4R24811   1.063   1.038  12.052 -0.7326 -0.0548  1.1951
  200DOPC   H4S24812   0.898   1.082  12.085  0.0575 -0.5181 -0.9211
  200DOPC   C2524813   1.024   1.249  12.062  0.3716  0.0925  0.2738
  200DOPC   H5R24814   0.949   1.325  12.032 -3.1899 -3.0999  0.3634
  200DOPC   H5S24815   1.114   1.264  11.999 -1.5550  0.4998 -2.5679
  200DOPC   C2624816   1.065   1.258  12.205 -0.1567  0.4641 -0.6740
  200DOPC   H6R24817   1.113   1.357  12.217 -1.3923  1.2845 -2.1600
  200DOPC   H6S24818   1.141   1.180  12.224  0.7807  1.9696  2.5693
  200DOPC   C2724819   0.948   1.246  12.309 -0.5329  0.6754  0.6871
  200DOPC   H7R24820   0.899   1.148  12.290  0.7127  0.0084  0.8413
  200DOPC   H7S24821   0.871   1.319  12.275  0.0609 -0.0226 -2.4227
  200DOPC   C2824822   0.989   1.261  12.457  0.9666 -0.3380 -0.4186
  200DOPC   H8R24823   1.051   1.353  12.467  1.3385 -0.6855  0.5516
  200DOPC   H8S24824   1.063   1.185  12.491  1.6893  0.9669  1.0191
  200DOPC   C2924825   0.865   1.269  12.546  0.1007  0.4341 -0.2246
  200DOPC   H9R24826   0.764   1.258  12.504 -0.0523 -0.6529  0.3815
  200DOPC  C21024827   0.870   1.257  12.684 -0.1295  0.0262  0.1519
  200DOPC  H10R24828   0.779   1.262  12.745 -0.3055 -0.4649 -0.0674
  200DOPC  C21124829   0.991   1.255  12.766  0.3131  0.9842  0.5410
  200DOPC  H11R24830   1.087   1.276  12.713  0.9930  2.0795  2.1208
  200DOPC  H11S24831   1.001   1.156  12.817 -0.1616  0.8148  0.3076
  200DOPC  C21224832   0.970   1.362  12.878 -0.0976  0.4816  0.0091
  200DOPC  H12R24833   0.927   1.455  12.835  0.8273  1.0096  0.2023
  200DOPC  H12S24834   1.070   1.387  12.920 -0.9162  1.8114  1.2239
  200DOPC  C21324835   0.889   1.305  12.995  0.0893 -0.4808 -0.2282
  200DOPC  H13R24836   0.934   1.203  13.002  1.4507 -0.0101 -1.6243
  200DOPC  H13S24837   0.779   1.304  12.979 -0.1196  2.2998  0.5436
  200DOPC  C21424838   0.914   1.381  13.127 -0.3535  0.2632  0.1405
  200DOPC  H14R24839   0.865   1.480  13.119  0.2570  0.8568  2.7933
  200DOPC  H14S24840   1.023   1.397  13.142  0.2063 -1.5352 -1.5358
  200DOPC  C21524841   0.873   1.297  13.249 -0.0691  0.3174  0.5647
  200DOPC  H15R24842   0.930   1.202  13.248  1.3814  1.1269 -1.5490
  200DOPC  H15S24843   0.765   1.271  13.240  0.4973 -2.0407 -0.1257
  200DOPC  C21624844   0.873   1.375  13.384  0.4480 -0.0214 -0.8357
  200DOPC  H16R24845   0.826   1.472  13.355 -0.7011 -1.0771 -2.7708
  200DOPC  H16S24846   0.980   1.397  13.402  0.4258 -1.8583  2.2706
  200DOPC  C21724847   0.813   1.304  13.501  0.4153 -0.2178 -0.5011
  200DOPC  H17R24848   0.822   1.369  13.591 -1.6816 -1.0134  0.3372
  200DOPC  H17S24849   0.880   1.217  13.522  2.0696  1.5509  2.2457
  200DOPC  C21824850   0.676   1.263  13.496 -0.0910  0.3711  0.3133
  200DOPC  H18R24851   0.664   1.166  13.442  3.0452 -0.5987  1.1257
  200DOPC  H18S24852   0.627   1.347  13.443  1.5638  1.3219  0.2198
  200DOPC  H18T24853   0.620   1.249  13.591 -0.0009  0.6900  0.4127
  200DOPC   C3324854   1.508   0.939  12.169  0.7972 -0.0746 -1.0341
  200DOPC   H3X24855   1.606   0.975  12.207  0.7717 -0.3538 -0.7016
  200DOPC   H3Y24856   1.518   0.841  12.119 -0.9916 -0.7151 -0.2229
  200DOPC   C3424857   1.437   0.925  12.303 -0.0810  0.4925 -0.7477
  200DOPC   H4X24858   1.353   0.853  12.285 -0.7197  1.2845 -0.9707
  200DOPC   H4Y24859   1.396   1.022  12.336 -1.4338 -0.2616 -0.1103
  200DOPC   C3524860   1.528   0.861  12.405 -0.7881  0.2632  0.5695
  200DOPC   H5X24861   1.616   0.929  12.404  0.0777 -0.7335 -2.2578
  200DOPC   H5Y24862   1.567   0.761  12.373 -0.9255  0.6946 -1.0576
  200DOPC   C3624863   1.462   0.865  12.541  0.3579  0.7837 -0.1612
  200DOPC   H6X24864   1.471   0.965  12.587  2.8275 -0.3810  2.2057
  200DOPC   H6Y24865   1.356   0.832  12.533  0.4045  0.4610  0.4377
  200DOPC   C3724866   1.541   0.773  12.638  0.6610  0.3948 -0.2141
  200DOPC   H7X24867   1.535   0.668  12.602  0.6558 -0.2587  1.6004
  200DOPC   H7Y24868   1.641   0.816  12.616 -0.0387  2.1973 -0.0261
  200DOPC   C3824869   1.508   0.788  12.784 -0.0031  0.3852  0.6246
  200DOPC   H8X24870   1.488   0.894  12.810  2.3550  1.2574 -0.7344
  200DOPC   H8Y24871   1.589   0.750  12.849 -1.1670 -0.7710  1.4448
  200DOPC   C3924872   1.389   0.706  12.825  0.1934 -0.6253 -0.6979
  200DOPC   H9X24873   1.340   0.656  12.740  0.0785 -1.8231  0.0607
  200DOPC  C31024874   1.372   0.667  12.956  0.1134 -0.3235 -0.3216
  200DOPC  H10X24875   1.287   0.602  12.979 -0.3809  0.4952  0.2224
  200DOPC  C31124876   1.449   0.717  13.076  0.1961 -0.6457 -0.1257
  200DOPC  H11X24877   1.476   0.823  13.056 -2.5254  0.1496  0.0950
  200DOPC  H11Y24878   1.540   0.653  13.087  1.4510  1.0171 -0.4034
  200DOPC  C31224879   1.365   0.729  13.205  0.1939  0.4336  0.1319
  200DOPC  H12X24880   1.340   0.624  13.230  2.9754  0.0044  1.5366
  200DOPC  H12Y24881   1.276   0.796  13.199 -0.2452 -0.1971 -0.5103
  200DOPC  C31324882   1.455   0.786  13.324 -0.6493 -0.1329  1.0227
  200DOPC  H13X24883   1.545   0.722  13.334 -0.6256 -0.3384 -0.3274
  200DOPC  H13Y24884   1.488   0.890  13.301 -2.0966  0.4185  1.3524
  200DOPC  C31424885   1.390   0.796  13.465  0.1175  0.1369  0.1197
  200DOPC  H14X24886   1.295   0.852  13.450 -1.9782 -3.3175 -0.6064
  200DOPC  H14Y24887   1.368   0.693  13.501 -1.1184  1.2073  2.6407
  200DOPC  C31524888   1.483   0.859  13.567 -0.1594  0.0916  0.3859
  200DOPC  H15X24889   1.492   0.968  13.551  0.2856  0.0285  0.1908
  200DOPC  H15Y24890   1.588   0.826  13.553 -0.0173 -0.0298  1.6037
  200DOPC  C31624891   1.449   0.828  13.711  0.4650  0.1109 -1.2350
  200DOPC  H16X24892   1.482   0.728  13.746 -0.3062  0.2896  0.0664
  200DOPC  H16Y24893   1.502   0.902  13.775  0.3678  0.0512 -1.0846
  200DOPC  C31724894   1.299   0.840  13.746  0.3334  0.0764 -0.6729
  200DOPC  H17X24895   1.276   0.948  13.735 -1.8009 -0.2632 -0.0281
  200DOPC  H17Y24896   1.237   0.782  13.674  1.4864 -2.6160  0.3824
  200DOPC  C31824897   1.262   0.800  13.896  0.1808  0.0916  0.4854
  200DOPC  H18X24898   1.320   0.865  13.964 -1.8024  0.7341  1.6338
  200DOPC  H18Y24899   1.152   0.806  13.912 -0.0810  0.7121 -1.2936
  200DOPC  H18Z24900   1.280   0.690  13.902 -0.5415 -0.2448 -2.0289
  201SOD    SOD24901   1.243   2.117  18.053  0.3520 -0.3708 -0.0498
  202SOD    SOD24902   6.044   4.147   8.905 -0.0261 -0.1387  0.4106
  203SOD    SOD24903   6.476   1.282  16.686 -0.1146  0.1800 -0.0324
  204SOD    SOD24904   5.746   3.352   9.166 -0.7211  0.6078  0.4128
  205SOD    SOD24905   5.544   6.369  16.744 -0.0869 -0.1849 -0.3001
  206SOD    SOD24906   2.640   5.989  11.715 -0.0119  0.0922  0.0607
  207SOD    SOD24907   5.580   0.683  11.831 -0.2435 -0.0305  0.0034
  208SOD    SOD24908   1.624   1.604  17.065 -0.5063  0.1811  0.9485
  209SOD    SOD24909   4.152   0.918   9.599 -0.6188 -0.4982 -0.3105
  210SOD    SOD24910   0.570   1.865  16.654 -0.2398 -0.1674  0.4057
  211SOD    SOD24911   4.740   2.102  17.667  0.0726  0.0399  0.3634
  212SOD    SOD24912   0.854   2.439  17.392 -0.0056  0.0562  0.1694
  213SOD    SOD24913   3.907   0.860  10.412 -0.0638  0.1075  0.2434
  214SOD    SOD24914   6.111   6.582  19.151 -0.0845  0.0189  0.2117
  215SOD    SOD24915   3.017   4.411  18.289 -0.0616 -0.3051 -0.0485
  216SOD    SOD24916   1.836   6.287  19.439 -0.5465  0.1257  0.7552
  217SOD    SOD24917   3.802   2.869   9.552  0.1686 -0.2878 -0.1384
  218SOD    SOD24918   3.349   0.457  17.478  0.0977 -0.0646  0.4631
  219SOD    SOD24919   0.592   6.138  16.532 -0.1563 -0.4755  0.4602
  220SOD    SOD24920   5.008   3.098  10.333  0.0783 -0.0757  0.1618
  221SOD    SOD24921   5.634   0.460   9.181 -0.1579 -0.1074 -0.1419
  222SOD    SOD24922   4.329   2.843  18.291 -0.1115 -0.4555 -0.0242
  223SOD    SOD24923   0.939   0.747   9.950 -0.6053 -0.0520 -0.1480
  224SOD    SOD24924   0.614   5.234  10.203  0.0013  0.0154 -0.1890
  225SOD    SOD24925   0.562   6.148   9.441  0.0675  0.4628 -0.2549
  226SOD    SOD24926   2.191   4.608  19.551 -0.0786 -0.0279  0.2371
  227CLA    CLA24927   4.123   3.239   9.186 -0.0255  0.0239  0.2437
  228CLA    CLA24928   6.193   3.434   8.939  0.3171  0.2762  0.0939
  229CLA    CLA24929   6.351   3.818  10.264 -0.0874  0.1042  0.4190
  230CLA    CLA24930   2.536   6.597  17.397  0.4529 -0.0148  0.2571
  231CLA    CLA24931   0.966   1.472  18.765  0.5688  0.0149 -0.2193
  232CLA    CLA24932   0.398   3.297  17.085  0.3416 -0.4216  0.1315
  233CLA    CLA24933   3.098   0.391  17.424  0.2706 -0.2568  0.0048
  234CLA    CLA24934   4.363   0.160  17.616 -0.1199  0.2846  0.1535
  235CLA    CLA24935   0.067   4.346  10.354 -0.2909  0.0429 -0.1958
  236CLA    CLA24936   6.653   0.558  19.296  0.0413 -0.0843 -0.2996
  237CLA    CLA24937   2.049   3.916  18.919  0.0980 -0.2616 -0.2911
  238CLA    CLA24938   3.427   6.692   9.350 -0.2624 -0.2011  0.8348
  239CLA    CLA24939   3.283   1.179  10.099  0.0736 -0.3229 -0.1093
  240CLA    CLA24940   4.839   6.797  17.510  0.0308 -0.0573  0.2399
  241CLA    CLA24941   5.283   4.464   9.504  0.1779  0.1742  0.1492
  242CLA    CLA24942   1.987   0.986  19.049  0.0375 -0.3404  0.4626
  243CLA    CLA24943   4.803   3.021  11.253 -0.2415  0.1959  0.4306
  244CLA    CLA24944   1.330   6.245  11.201  0.4340 -0.1283  0.3361
  245CLA    CLA24945   5.977   0.874   9.680  0.0526 -0.3212 -0.5233
  246CLA    CLA24946   3.193   0.769  18.594 -0.0495 -0.3447  0.5187
  247CLA    CLA24947   6.473   6.618  10.765 -0.1232  0.1095 -0.2920
  248CLA    CLA24948   2.251   0.862  10.183 -0.5037  0.0655  0.0608
  249CLA    CLA24949   6.657   3.184  10.427 -0.0137  0.1527 -0.0143
  250CLA    CLA24950   1.912   1.159  16.916 -0.0405 -0.0157  0.1120
  251CLA    CLA24951   0.216   1.860  16.935  0.1585  0.2690 -0.2190
  252CLA    CLA24952   4.409   1.032  10.802  0.0018  0.1745  0.4681
  253TIP3   OH224953   1.542   6.238  18.648 -0.0063  0.0432  0.7446
  253TIP3    H124954   1.543   6.153  18.693 -0.4726  0.3854  1.4109
  253TIP3    H224955   1.461   6.279  18.676 -0.5302  0.0951 -0.7625
  254TIP3   OH224956   6.371   6.658  18.358 -0.2470 -0.8878  0.3240
  254TIP3    H124957   6.463   6.632  18.365  0.2590  0.2000 -1.5802
  254TIP3    H224958   6.334   6.600  18.292 -0.1281  0.5446 -1.0597
  255TIP3   OH224959   1.101   1.904  17.700 -0.2665  0.4193  0.0371
  255TIP3    H124960   1.101   1.822  17.749  1.0645 -0.1725 -0.8798
  255TIP3    H224961   1.076   1.971  17.765  0.1460 -0.5019  1.1880
  256TIP3   OH224962   5.271   0.963  17.651  0.5658  0.4507 -0.4237
  256TIP3    H124963   5.225   0.997  17.575 -1.3360 -1.2402 -0.1118
  256TIP3    H224964   5.279   0.869  17.634 -0.0453  0.0062  1.4749
  257TIP3   OH224965   3.885   6.466  19.876 -0.1759 -0.1685 -0.3815
  257TIP3    H124966   3.966   6.440  19.832  0.0156  0.0852 -0.1790
  257TIP3    H224967   3.914   6.520  19.949 -0.4593 -0.8973  0.2917
  258TIP3   OH224968   1.375   6.674  19.803 -0.1032  0.2428  0.6606
  258TIP3    H124969   1.456   6.653  19.850 -0.0859 -0.1780  0.4443
  258TIP3    H224970   1.397   6.661  19.711 -0.6380 -0.6620  0.6467
  259TIP3   OH224971   2.496   6.459  17.889  0.6387 -0.7303  0.0610
  259TIP3    H124972   2.559   6.386  17.888  1.2744 -0.1813 -0.8992
  259TIP3    H224973   2.413   6.419  17.863  0.8874 -1.1977 -0.0297
  260TIP3   OH224974   0.957   3.218  16.597 -0.5035 -0.0618 -0.5384
  260TIP3    H124975   1.049   3.191  16.586 -0.0842  0.9204  0.3796
  260TIP3    H224976   0.908   3.157  16.541  0.6098 -1.1781 -0.3575
  261TIP3   OH224977   5.103   3.234  17.807 -0.3083 -0.0605  0.2797
  261TIP3    H124978   5.197   3.226  17.793 -0.0786  1.5932  0.7397
  261TIP3    H224979   5.072   3.143  17.814  1.4816 -0.6286  1.5409
  262TIP3   OH224980   1.166   6.175  18.104 -0.2499  0.0090  0.4409
  262TIP3    H124981   1.099   6.201  18.167 -2.1985 -0.7043 -1.2401
  262TIP3    H224982   1.121   6.117  18.043  2.0607 -0.9917 -0.4521
  263TIP3   OH224983   5.588   1.121  19.200  0.3118  0.4796  0.2716
  263TIP3    H124984   5.588   1.174  19.121  0.0207 -0.5203 -0.4234
  263TIP3    H224985   5.506   1.143  19.244  0.3604  0.8619  0.1773
  264TIP3   OH224986   2.369   1.543  17.880 -0.0638  0.2989 -0.3756
  264TIP3    H124987   2.305   1.546  17.951  0.1991  1.4189 -0.1741
  264TIP3    H224988   2.410   1.457  17.888  1.0847  0.9743  1.8469
  265TIP3   OH224989   4.559   5.721  18.263  0.3758  0.5362 -1.0249
  265TIP3    H124990   4.619   5.696  18.191  2.8518  0.2085  0.9986
  265TIP3    H224991   4.616   5.761  18.328 -2.0446  2.3671  0.1060
  266TIP3   OH224992   6.669   1.009  17.753 -0.0232  0.6334  0.0934
  266TIP3    H124993   6.596   1.049  17.705 -0.0970 -2.0077 -2.2036
  266TIP3    H224994   6.744   1.018  17.694  0.6549  0.0311  0.8448
  267TIP3   OH224995   1.623   2.800  17.559  0.0268 -0.3946  0.4305
  267TIP3    H124996   1.676   2.879  17.555  0.3590 -0.6599 -0.9009
  267TIP3    H224997   1.532   2.832  17.564  0.2415  0.0564  1.5905
  268TIP3   OH224998   0.432   6.262  17.528  0.0472  0.1181 -0.0973
  268TIP3    H124999   0.522   6.280  17.500  1.2151 -1.2841  2.4430
  268TIP3    H225000   0.399   6.199  17.464  1.9701 -1.6133  0.5090
  269TIP3   OH225001   5.971   3.872  16.885 -0.3903 -0.2184 -0.7182
  269TIP3    H125002   5.913   3.940  16.918  0.0449  0.8832 -2.1432
  269TIP3    H225003   5.925   3.790  16.905 -1.2007  0.5021  0.4895
  270TIP3   OH225004   0.278   3.851  17.348 -0.1408  0.1843  0.1071
  270TIP3    H125005   0.349   3.801  17.388 -0.1209  1.1393  1.3055
  270TIP3    H225006   0.264   3.925  17.406 -1.8809  0.2264 -0.2982
  271TIP3   OH225007   5.018   6.439  20.091 -0.1584  0.6957  0.2663
  271TIP3    H125008   4.985   6.368  20.146  1.3911  1.6873  2.6918
  271TIP3    H225009   4.945   6.501  20.085 -0.7127  0.0489  0.2593
  272TIP3   OH225010   3.565   1.859  19.716  0.4084 -0.0533  0.1632
  272TIP3    H125011   3.646   1.867  19.665 -0.3452  1.8548 -0.8510
  272TIP3    H225012   3.594   1.858  19.807  1.5973  0.7150 -0.1762
  273TIP3   OH225013   6.454   4.978  16.752  0.4182 -0.2753 -0.0049
  273TIP3    H125014   6.487   4.898  16.794  2.6092 -0.0410 -1.1683
  273TIP3    H225015   6.418   4.947  16.669  1.5075 -0.0503 -0.5746
  274TIP3   OH225016   1.912   3.405  18.199 -0.2119  0.0984 -0.0428
  274TIP3    H125017   1.949   3.493  18.193  0.8867 -0.3251  0.3747
  274TIP3    H225018   1.819   3.420  18.220 -0.8050  1.2138 -2.9933
  275TIP3   OH225019   1.559   0.858  17.306  0.1428 -0.6233  0.9895
  275TIP3    H125020   1.507   0.936  17.285  1.1863 -0.1794 -0.0516
  275TIP3    H225021   1.493   0.792  17.329 -0.7983  0.3444  1.1880
  276TIP3   OH225022   4.828   0.649  19.130 -0.4498  0.0199  0.3917
  276TIP3    H125023   4.825   0.741  19.156  0.5888 -0.2307  1.4829
  276TIP3    H225024   4.871   0.604  19.203  2.3294 -0.7750 -1.5414
  277TIP3   OH225025   4.709   5.245  16.489 -1.1468  0.3618 -0.6861
  277TIP3    H125026   4.771   5.194  16.437 -0.1851  0.3641  0.4219
  277TIP3    H225027   4.686   5.320  16.434  1.5959  1.5926 -0.2984
  278TIP3   OH225028   4.612   4.066  18.589 -0.2780  0.7840 -0.3707
  278TIP3    H125029   4.620   4.025  18.675  0.0235  0.5967 -0.4862
  278TIP3    H225030   4.573   4.152  18.606  0.4847  1.0581  0.0432
  279TIP3   OH225031   6.192   6.375  19.120  0.3764  0.1934 -0.4350
  279TIP3    H125032   6.172   6.283  19.138  1.0825  0.2659  0.7539
  279TIP3    H225033   6.251   6.372  19.045 -0.1994 -0.2717 -0.8833
  280TIP3   OH225034   3.751   1.001  18.061  0.2405 -0.4152  0.3696
  280TIP3    H125035   3.826   1.007  18.120 -1.1367  1.3677  2.0840
  280TIP3    H225036   3.689   0.943  18.105 -1.8880  2.9084  2.2003
  281TIP3   OH225037   0.932   0.560  18.169 -0.4653  0.1708  0.0205
  281TIP3    H125038   0.961   0.479  18.127  0.2397  0.4476 -0.0465
  281TIP3    H225039   0.914   0.620  18.097  0.0487  0.4125  0.0862
  282TIP3   OH225040   1.283   5.161  19.686  0.4813 -0.1584  0.2581
  282TIP3    H125041   1.375   5.142  19.667  0.3894 -0.5417  0.1877
  282TIP3    H225042   1.239   5.076  19.677 -0.1853  0.3286 -1.5501
  283TIP3   OH225043   1.626   1.606  19.538  0.1473 -0.0713  0.3305
  283TIP3    H125044   1.651   1.547  19.467  0.5942  1.3738 -0.7674
  283TIP3    H225045   1.692   1.592  19.606  1.7641  0.9462 -0.9599
  284TIP3   OH225046   3.337   4.102  10.186  0.3397 -0.0783  0.3067
  284TIP3    H125047   3.253   4.127  10.146  0.5743  0.6764  0.2792
  284TIP3    H225048   3.372   4.035  10.127 -1.1558 -1.8917  1.3595
  285TIP3   OH225049   2.681   3.657   9.672 -0.2602 -0.0445  0.0331
  285TIP3    H125050   2.663   3.637   9.580  2.5462 -2.1844 -0.1962
  285TIP3    H225051   2.624   3.599   9.722 -0.0048 -0.7090 -0.4367
  286TIP3   OH225052   4.328   1.091   9.747 -0.4077 -0.2878  0.0142
  286TIP3    H125053   4.385   1.149   9.798  0.1148  0.2449 -1.1272
  286TIP3    H225054   4.388   1.030   9.704 -0.8651 -0.9508  0.3078
  287TIP3   OH225055   1.660   1.054  10.378 -0.1375 -0.1707 -0.4632
  287TIP3    H125056   1.695   1.063  10.289  0.0976  1.1862 -0.2546
  287TIP3    H225057   1.625   1.141  10.399 -1.7731 -0.9247  0.1221
  288TIP3   OH225058   5.267   5.434  10.226  0.2934  0.4117 -0.0982
  288TIP3    H125059   5.258   5.339  10.228 -2.0567  0.5731 -0.3297
  288TIP3    H225060   5.300   5.458  10.312 -0.1799 -0.5363  0.3555
  289TIP3   OH225061   6.552   1.455   9.210 -0.2606  0.0042 -0.5363
  289TIP3    H125062   6.631   1.498   9.176  0.0700  0.8637  1.1944
  289TIP3    H225063   6.497   1.441   9.133  0.6535  1.4160 -1.4871
  290TIP3   OH225064   2.607   6.233   9.636  0.0212  0.5587  0.0944
  290TIP3    H125065   2.537   6.298   9.630 -0.2745  0.2392  0.0292
  290TIP3    H225066   2.607   6.204   9.727 -1.1086 -0.7082 -0.2695
  291TIP3   OH225067   0.902   3.723  11.622 -0.3286 -0.3160 -0.4379
  291TIP3    H125068   0.955   3.682  11.691  0.4462  0.6443 -0.4388
  291TIP3    H225069   0.876   3.651  11.565 -1.6545 -1.2725  1.2707
  292TIP3   OH225070   3.965   3.288  12.569 -0.3344  0.1270 -0.1202
  292TIP3    H125071   3.973   3.242  12.653  2.2400  0.9973  0.2164
  292TIP3    H225072   3.880   3.332  12.574 -0.1533  0.3450  2.1595
  293TIP3   OH225073   4.707   1.667  10.779  0.5571 -0.1949  0.1700
  293TIP3    H125074   4.730   1.704  10.864  0.9139 -1.2342  0.5256
  293TIP3    H225075   4.623   1.710  10.757  1.4009  1.5277  0.1221
  294TIP3   OH225076   4.295   6.612   9.861 -0.0473 -0.3892  0.1531
  294TIP3    H125077   4.229   6.655   9.807  0.3768 -1.5266 -1.3357
  294TIP3    H225078   4.245   6.547   9.912 -0.2942 -0.0625  0.3349
  295TIP3   OH225079   4.960   3.556   9.080  0.2677  0.0072 -0.7093
  295TIP3    H125080   4.927   3.479   9.127  0.0446 -0.2590 -1.2968
  295TIP3    H225081   4.898   3.626   9.102  1.9612  0.7925  2.0741
  296TIP3   OH225082   4.747   3.279  11.968 -0.7051 -0.3543  0.0304
  296TIP3    H125083   4.839   3.305  11.956 -0.2401 -1.5340  0.8693
  296TIP3    H225084   4.720   3.243  11.884 -0.3450 -0.1572 -0.1710
  297TIP3   OH225085   1.639   6.583   8.738 -0.2247 -0.2383 -0.2073
  297TIP3    H125086   1.726   6.557   8.708 -0.2149 -1.0771  0.5100
  297TIP3    H225087   1.653   6.615   8.828 -0.5954 -0.0009 -0.2325
  298TIP3   OH225088   5.135   0.412  11.706  0.3766  0.0348  0.2609
  298TIP3    H125089   5.099   0.464  11.634  0.2511 -0.1131  0.2162
  298TIP3    H225090   5.230   0.426  11.700  0.4721 -0.8971 -0.6569
  299TIP3   OH225091   3.462   3.524  11.748  0.4825  0.5187  0.1840
  299TIP3    H125092   3.385   3.554  11.701  0.6078  1.0663  0.3260
  299TIP3    H225093   3.536   3.546  11.691  0.5838  0.5774  0.3359
  300TIP3   OH225094   2.811   1.308  10.812  0.4726 -0.4621  0.1527
  300TIP3    H125095   2.780   1.233  10.761  0.2733 -0.8931  0.8792
  300TIP3    H225096   2.732   1.360  10.829  0.7818  0.5300 -1.3019
  301TIP3   OH225097   4.569   2.219  10.736 -0.1416  0.1047  0.6192
  301TIP3    H125098   4.614   2.298  10.764  0.4939  0.1918 -0.5797
  301TIP3    H225099   4.639   2.161  10.705 -0.7662 -0.0872 -0.4796
  302TIP3   OH225100   1.543   2.568  11.364 -0.1863 -0.4618 -0.3952
  302TIP3    H125101   1.561   2.528  11.279  3.7007  1.8276 -0.9116
  302TIP3    H225102   1.520   2.659  11.343 -1.7542 -0.4773  0.9985
  303TIP3   OH225103   1.195   2.894  11.625 -0.2558  0.3844 -0.1252
  303TIP3    H125104   1.161   2.806  11.642 -0.0825  0.5442  1.1574
  303TIP3    H225105   1.289   2.882  11.614 -0.3964  0.2513 -1.2815
  304TIP3   OH225106   6.764   0.072   9.885  0.4467 -0.3948  0.3978
  304TIP3    H125107   6.852   0.041   9.864  1.6279  1.1430  2.5882
  304TIP3    H225108   6.778   0.135   9.956 -2.4996 -0.5566  1.2340
  305TIP3   OH225109   3.500   4.680   8.696 -0.6188 -0.0121 -0.0772
  305TIP3    H125110   3.530   4.764   8.730 -1.6301 -0.0637  1.0319
  305TIP3    H225111   3.580   4.630   8.679 -0.0282  1.0031 -0.3155
  306TIP3   OH225112   0.429   1.643   9.820 -0.7315 -0.1388  0.0835
  306TIP3    H125113   0.367   1.658   9.891  0.3170 -1.7858  1.4357
  306TIP3    H225114   0.484   1.721   9.819 -1.1954  0.1991  0.6036
  307TIP3   OH225115   2.243   2.733   8.588 -0.1289  0.2051 -0.4232
  307TIP3    H125116   2.295   2.709   8.665  0.2374  0.8634 -0.4550
  307TIP3    H225117   2.289   2.808   8.551 -0.9308  0.6004 -0.6426
  308TIP3   OH225118   5.861   2.213   9.774  0.6219 -0.4628  0.2672
  308TIP3    H125119   5.791   2.268   9.809  1.1191  1.6214 -1.7614
  308TIP3    H225120   5.912   2.271   9.718  1.7941 -2.7802 -1.2483
  309TIP3   OH225121   5.856   0.519   9.966  0.0656 -0.0021 -0.2538
  309TIP3    H125122   5.795   0.553   9.901  1.1283  0.4574 -1.0506
  309TIP3    H225123   5.911   0.457   9.918 -0.4341 -1.2245  0.6891
  310TIP3   OH225124   3.814   3.544  10.086  0.2852 -0.4942 -0.2484
  310TIP3    H125125   3.870   3.567  10.161 -1.6983 -0.8297  1.4397
  310TIP3    H225126   3.835   3.609  10.020  1.8633  0.0553  0.7241
  311TIP3   OH225127   6.132   2.772   9.357  0.1873 -0.2414 -0.0657
  311TIP3    H125128   6.057   2.778   9.299  1.0721 -1.7429 -1.4773
  311TIP3    H225129   6.172   2.859   9.354 -0.9313  0.2903 -0.0545
  312TIP3   OH225130   0.435   4.546   9.750 -0.1912 -0.1667  0.5608
  312TIP3    H125131   0.348   4.511   9.729  0.7150 -2.3747  0.1550
  312TIP3    H225132   0.457   4.505   9.833  1.5615 -1.9601 -0.6937
  313TIP3   OH225133   3.120   4.142   8.801  0.2039  0.0683 -0.2852
  313TIP3    H125134   3.041   4.116   8.847  0.1959 -1.3185 -1.0388
  313TIP3    H225135   3.094   4.219   8.751 -0.7339 -0.4829 -0.6764
  314TIP3   OH225136   4.550   5.824  11.361 -0.5249  0.1572  0.0044
  314TIP3    H125137   4.644   5.839  11.355 -0.4575 -0.7446 -2.6637
  314TIP3    H225138   4.515   5.859  11.278 -1.9374 -3.1242 -0.9420
  315TIP3   OH225139   5.551   4.805  10.158 -0.1252 -0.4584  0.7620
  315TIP3    H125140   5.490   4.829  10.227  0.7576 -0.1213  1.4548
  315TIP3    H225141   5.521   4.852  10.081 -1.4670 -1.2969  0.7531
  316TIP3   OH225142   1.988   5.547   9.506 -0.1625  0.2876 -0.1804
  316TIP3    H125143   2.060   5.523   9.448 -1.1728 -0.8418 -1.0179
  316TIP3    H225144   2.003   5.496   9.586  0.4487  0.7595  0.0164
  317TIP3   OH225145   4.420   1.536   9.144 -0.3770 -0.9464  0.4773
  317TIP3    H125146   4.458   1.618   9.113  0.5351 -1.3981  0.3413
  317TIP3    H225147   4.329   1.538   9.115  0.1979 -0.9397 -1.4277
  318TIP3   OH225148   1.672   5.169   9.682 -0.6613 -0.0668  0.4911
  318TIP3    H125149   1.737   5.187   9.615 -2.4080  0.2973 -1.1944
  318TIP3    H225150   1.706   5.212   9.761 -0.2843  2.7629 -1.0830
  319TIP3   OH225151   0.219   2.662   9.464  0.0922 -0.0973 -0.0085
  319TIP3    H125152   0.213   2.657   9.369 -0.6553 -0.4783  0.0481
  319TIP3    H225153   0.129   2.670   9.494  0.2822 -0.3957  0.6890
  320TIP3   OH225154   4.870   4.355   9.104  0.2502  0.1648  0.2638
  320TIP3    H125155   4.849   4.299   9.029 -0.3914  2.6929 -1.5361
  320TIP3    H225156   4.881   4.293   9.177 -2.1494 -2.1687 -1.1865
  321TIP3   OH225157   4.246   5.324  10.085  0.5453 -0.5723  0.2949
  321TIP3    H125158   4.302   5.287  10.017  1.0744  1.3509 -0.3771
  321TIP3    H225159   4.157   5.299  10.059  0.8261 -0.7307 -0.5433
  322TIP3   OH225160   4.728   3.225  11.668 -0.0378  0.2636  0.3783
  322TIP3    H125161   4.804   3.201  11.614 -0.4065 -0.1472  0.0284
  322TIP3    H225162   4.695   3.141  11.701 -0.9174  0.3486 -0.2634
  323TIP3   OH225163   1.349   1.941  19.476 -0.1345  0.2657  0.2582
  323TIP3    H125164   1.314   1.890  19.403 -1.1385  0.2670  0.7314
  323TIP3    H225165   1.275   1.991  19.509  0.1808 -0.1139  1.6012
  324TIP3   OH225166   5.966   3.902  18.774 -0.0107 -0.1398 -0.0182
  324TIP3    H125167   6.018   3.948  18.841 -2.3668  1.3400  0.9150
  324TIP3    H225168   5.967   3.960  18.699 -2.2955  1.1722  0.8743
  325TIP3   OH225169   4.952   1.659  19.408  0.0841 -0.5542  0.7718
  325TIP3    H125170   4.977   1.722  19.341 -0.3927 -1.3518 -0.1740
  325TIP3    H225171   5.013   1.675  19.480 -0.8368  1.8776  1.1210
  326TIP3   OH225172   5.932   2.744  18.893 -0.5908  0.3861 -0.2572
  326TIP3    H125173   5.999   2.719  18.830 -0.1374  0.8592  0.0271
  326TIP3    H225174   5.980   2.765  18.973 -1.0443  1.0912 -0.1605
  327TIP3   OH225175   1.548   2.160  18.974  0.4453  0.0890  0.2431
  327TIP3    H125176   1.518   2.080  19.018 -0.4538  1.2677  1.8875
  327TIP3    H225177   1.642   2.147  18.962  0.6242 -0.5738  2.0036
  328TIP3   OH225178   0.876   2.920  18.430  0.4238 -0.1350  0.1214
  328TIP3    H125179   0.965   2.888  18.449  0.1780 -0.1922  1.2513
  328TIP3    H225180   0.856   2.884  18.343  0.8191 -1.6584  0.6220
  329TIP3   OH225181   0.167   1.448  17.695  0.2722 -1.0084  0.0051
  329TIP3    H125182   0.233   1.510  17.663  0.0308 -1.4843 -1.5222
  329TIP3    H225183   0.095   1.503  17.725  0.6071 -0.5177 -0.0760
  330TIP3   OH225184   0.349   4.453  16.903 -0.2913  0.0127 -0.3762
  330TIP3    H125185   0.330   4.544  16.879  0.7351 -0.5094 -3.6813
  330TIP3    H225186   0.444   4.447  16.901 -0.1507 -0.5182  2.8650
  331TIP3   OH225187   0.699   4.189  17.005  0.5182  0.0833  0.1957
  331TIP3    H125188   0.629   4.254  17.010 -0.1738 -0.5334 -1.0620
  331TIP3    H225189   0.762   4.226  16.944 -0.2766 -0.7518 -1.1774
  332TIP3   OH225190   0.578   5.413  16.895 -0.5533  0.0218 -0.1539
  332TIP3    H125191   0.624   5.485  16.852 -0.3673 -0.0038 -0.0026
  332TIP3    H225192   0.489   5.417  16.861 -0.6268  0.5116  0.0744
  333TIP3   OH225193   2.918   6.222  18.509 -0.5262  0.3747 -0.5419
  333TIP3    H125194   2.865   6.200  18.586  0.2295  0.0163 -0.1190
  333TIP3    H225195   2.972   6.145  18.494  1.0982  1.3437  0.0757
  334TIP3   OH225196   3.826   5.614  16.457 -0.1070  0.2071 -0.6834
  334TIP3    H125197   3.758   5.629  16.522  0.0864 -2.1820  0.1740
  334TIP3    H225198   3.802   5.669  16.383 -1.6135  1.2424  0.5323
  335TIP3   OH225199   6.641   6.647  18.383 -0.1503 -0.2877 -0.1387
  335TIP3    H125200   6.718   6.614  18.430 -0.6044 -1.0506  0.0777
  335TIP3    H225201   6.653   6.618  18.293  1.0245  1.6869 -0.6928
  336TIP3   OH225202   6.420   4.428  16.881  0.5377 -0.2600  0.1556
  336TIP3    H125203   6.508   4.466  16.877  0.9770 -1.3149 -3.4092
  336TIP3    H225204   6.434   4.335  16.866 -1.2598 -0.1293 -3.0984
  337TIP3   OH225205   4.313   1.711  18.393 -0.1336  0.5986 -0.2133
  337TIP3    H125206   4.368   1.743  18.464 -2.7157  1.2824  1.6195
  337TIP3    H225207   4.282   1.626  18.424 -0.8792  0.6719 -0.7408
  338TIP3   OH225208   0.463   4.992  19.184  0.2397 -0.2661 -0.2016
  338TIP3    H125209   0.526   5.002  19.112 -0.0996  1.6511 -0.2829
  338TIP3    H225210   0.503   5.038  19.258 -1.1797  1.2941 -0.3606
  339TIP3   OH225211   2.386   2.307  17.649  0.3632  0.4434 -0.4129
  339TIP3    H125212   2.376   2.339  17.739 -1.5742 -1.7849  0.2494
  339TIP3    H225213   2.414   2.215  17.660 -0.4993 -0.0418 -2.0641
  340TIP3   OH225214   6.547   1.741  19.904 -0.2028  0.0074 -0.5890
  340TIP3    H125215   6.453   1.732  19.914 -0.1458 -0.6394 -0.6014
  340TIP3    H225216   6.562   1.733  19.810 -0.3162  1.9920 -0.8189
  341TIP3   OH225217   0.475   1.276  17.653  0.1182 -0.5297 -1.0119
  341TIP3    H125218   0.560   1.247  17.619  2.5860  3.5081  1.0034
  341TIP3    H225219   0.486   1.369  17.670 -3.6755 -0.4408  2.5175
  342TIP3   OH225220   6.463   4.670  18.961  0.3886  0.1657  0.4304
  342TIP3    H125221   6.446   4.593  18.906  2.2815 -0.3703  0.5164
  342TIP3    H225222   6.454   4.638  19.050  2.1797 -0.2648  0.4892
  343TIP3   OH225223   5.778   0.623  17.960 -0.3941  0.5600  0.6130
  343TIP3    H125224   5.804   0.619  17.868  2.2466 -0.2325  1.3180
  343TIP3    H225225   5.751   0.714  17.974 -0.6324  0.7377 -0.8663
  344TIP3   OH225226   0.569   0.261  19.767 -0.1312 -0.2299 -0.1165
  344TIP3    H125227   0.504   0.193  19.784  0.2060 -0.5372 -0.0397
  344TIP3    H225228   0.527   0.320  19.704 -0.7485 -0.0174  0.4977
  345TIP3   OH225229   3.438   3.807  19.676  0.3127  0.7051 -0.0206
  345TIP3    H125230   3.527   3.796  19.711 -0.3166 -0.8548  1.2258
  345TIP3    H225231   3.449   3.863  19.600  2.3953  0.4222  0.0080
  346TIP3   OH225232   4.085   0.348  19.481 -0.2102  0.0216 -0.6981
  346TIP3    H125233   4.134   0.409  19.536 -0.0972 -0.5342 -0.1769
  346TIP3    H225234   4.105   0.376  19.392  0.4038  0.3058 -0.4784
  347TIP3   OH225235   4.671   1.269  19.250 -0.3547 -0.2932  0.3594
  347TIP3    H125236   4.690   1.362  19.247 -1.7910  0.0184 -0.4123
  347TIP3    H225237   4.744   1.230  19.297  0.0682  1.2672  1.0383
  348TIP3   OH225238   1.631   5.217  17.218 -0.4594  0.2134  0.2419
  348TIP3    H125239   1.617   5.149  17.152  1.7729  0.6981 -0.8181
  348TIP3    H225240   1.543   5.241  17.246 -1.4628 -0.5486 -1.9946
  349TIP3   OH225241   0.355   5.448  18.324 -0.5463  0.1275 -0.4014
  349TIP3    H125242   0.398   5.533  18.322  0.7094 -0.4526  0.5493
  349TIP3    H225243   0.262   5.468  18.329 -0.5948  1.4420 -3.6593
  350TIP3   OH225244   0.038   5.556  19.783 -0.2126 -0.3639 -0.4227
  350TIP3    H125245   0.039   5.613  19.705  2.4476  1.0972  0.5650
  350TIP3    H225246  -0.047   5.573  19.823 -0.5838  0.8562 -1.6251
  351TIP3   OH225247   2.958   3.288  18.286  0.5088 -0.3104  0.7279
  351TIP3    H125248   2.999   3.360  18.237 -0.2593 -0.3183  0.0528
  351TIP3    H225249   2.921   3.331  18.363 -0.3031  0.1119  0.1264
  352TIP3   OH225250   5.303   3.871  17.958  0.8165 -0.2412  0.2304
  352TIP3    H125251   5.338   3.918  17.882  2.7304 -3.1513 -0.8510
  352TIP3    H225252   5.340   3.918  18.034  1.5096  0.7895 -0.7126
  353TIP3   OH225253   1.961   2.668  17.456  0.5851  0.5859 -0.5278
  353TIP3    H125254   1.980   2.752  17.497 -1.3709  1.6538 -1.6708
  353TIP3    H225255   1.913   2.619  17.523 -1.2463  1.7287 -0.9227
  354TIP3   OH225256   0.758   3.342  18.022 -0.2589 -0.4974 -0.7150
  354TIP3    H125257   0.730   3.420  17.975  2.2444 -0.1137 -1.7586
  354TIP3    H225258   0.739   3.270  17.962 -0.1651 -0.3705 -0.8998
  355TIP3   OH225259   2.022   1.176  16.465 -0.1610  0.1914  0.5210
  355TIP3    H125260   2.020   1.084  16.493 -2.4863 -0.5280 -1.6731
  355TIP3    H225261   2.059   1.173  16.377 -0.8638  1.2700  0.1776
  356TIP3   OH225262   0.088   0.437  18.522 -0.2876 -0.4386  0.3473
  356TIP3    H125263   0.157   0.389  18.569 -0.3709  0.0469  0.9717
  356TIP3    H225264   0.052   0.497  18.586  0.1273  0.8156 -0.5471
  357TIP3   OH225265   6.253   5.320  17.756  0.0343 -0.0299  0.0335
  357TIP3    H125266   6.305   5.347  17.681 -0.8191 -0.0038 -0.5574
  357TIP3    H225267   6.291   5.236  17.782 -1.2400 -1.3207 -2.0228
  358TIP3   OH225268   1.527   3.658  19.178  0.2385 -0.3434 -0.4301
  358TIP3    H125269   1.432   3.650  19.188  0.4064 -1.0332  0.8306
  358TIP3    H225270   1.550   3.588  19.117  0.0225 -0.7126 -0.0997
  359TIP3   OH225271   1.269   4.335  18.290 -0.0369 -0.1696  0.1148
  359TIP3    H125272   1.248   4.243  18.274 -0.8338  0.1566 -0.8563
  359TIP3    H225273   1.184   4.379  18.293  0.3214  0.4884  0.9136
  360TIP3   OH225274   5.110   2.562  17.802  0.1703  0.3266 -0.3926
  360TIP3    H125275   5.020   2.588  17.825 -0.2109  0.3474 -1.8063
  360TIP3    H225276   5.165   2.624  17.850 -0.6163  1.2025 -0.5766
  361TIP3   OH225277   4.847   4.148  18.854  0.2363  0.4323  0.4431
  361TIP3    H125278   4.882   4.095  18.926  0.6093 -0.4352 -0.3540
  361TIP3    H225279   4.783   4.206  18.896 -1.1783 -1.5555  1.1698
  362TIP3   OH225280   2.653   4.071  17.982  0.4230  0.3519 -0.2919
  362TIP3    H125281   2.706   4.073  17.903 -0.4630  2.1328 -0.8882
  362TIP3    H225282   2.674   4.152  18.028 -0.2918  0.1291  0.4683
  363TIP3   OH225283   3.756   3.780  19.122 -0.1708  0.5363  0.3809
  363TIP3    H125284   3.763   3.685  19.135 -2.0179  0.4087  0.6594
  363TIP3    H225285   3.804   3.797  19.041 -0.8096 -0.8140 -0.3067
  364TIP3   OH225286   0.998   4.643  16.623  0.1611  0.0705  0.0427
  364TIP3    H125287   1.067   4.692  16.577 -0.3977  0.5583 -0.2961
  364TIP3    H225288   1.046   4.581  16.678  0.8672  0.2554 -0.3416
  365TIP3   OH225289   6.286   2.887  19.713 -0.0767 -0.5835 -0.3652
  365TIP3    H125290   6.240   2.956  19.759  0.2437  0.8144 -2.0329
  365TIP3    H225291   6.272   2.907  19.620  1.2008 -1.9611 -0.8929
  366TIP3   OH225292   3.266   3.307  19.489 -0.4826 -0.3108 -0.2321
  366TIP3    H125293   3.189   3.361  19.511 -1.1301 -1.5634  0.6593
  366TIP3    H225294   3.233   3.217  19.491  0.9280 -0.8399 -0.2675
  367TIP3   OH225295   6.035   4.244  18.335 -0.0481 -0.2069 -0.3121
  367TIP3    H125296   5.943   4.220  18.319  0.1890 -0.2758 -1.6699
  367TIP3    H225297   6.063   4.185  18.405 -1.4583  0.8317  1.2004
  368TIP3   OH225298   6.394   4.581  19.194 -0.1288  0.3856  0.3880
  368TIP3    H125299   6.430   4.589  19.282  1.0922  0.6841 -0.1258
  368TIP3    H225300   6.300   4.599  19.205 -0.0965 -0.1452  1.7009
  369TIP3   OH225301   3.705   1.970  18.647 -0.5176  0.1828 -0.4647
  369TIP3    H125302   3.642   1.949  18.579  0.0428 -0.4288 -0.8061
  369TIP3    H225303   3.779   1.911  18.631  0.1737  0.9217 -0.1147
  370TIP3   OH225304   4.589   3.456  17.694  1.2430  0.3314  0.4192
  370TIP3    H125305   4.548   3.509  17.625  0.7055 -0.3921  0.1714
  370TIP3    H225306   4.516   3.425  17.747  1.6434  0.7421  1.2225
  371TIP3   OH225307   0.572   4.695  19.400 -0.0350 -0.6546 -0.3680
  371TIP3    H125308   0.518   4.772  19.417 -0.4817 -0.3750 -2.6674
  371TIP3    H225309   0.562   4.640  19.478 -0.8758  0.9345  0.6965
  372TIP3   OH225310   6.560   1.693  19.627 -0.0379 -0.2869 -0.3080
  372TIP3    H125311   6.596   1.751  19.560  1.6504 -0.5713  0.2944
  372TIP3    H225312   6.472   1.674  19.597  0.9074 -1.0664 -2.9039
  373TIP3   OH225313   6.190   5.828  16.460 -0.3250  0.6071 -0.4140
  373TIP3    H125314   6.231   5.754  16.504 -0.8460  0.8912  0.5838
  373TIP3    H225315   6.104   5.836  16.501 -0.7937  0.9401 -1.4371
  374TIP3   OH225316   0.629   0.761  16.947  0.1817  0.4075 -0.3963
  374TIP3    H125317   0.713   0.807  16.956 -0.2295  0.9095  1.1345
  374TIP3    H225318   0.595   0.755  17.036 -1.6061  0.5690 -1.0302
  375TIP3   OH225319   0.166   6.594  18.776 -0.6322  0.2222 -0.3697
  375TIP3    H125320   0.186   6.646  18.698  0.5317  0.7009  0.2219
  375TIP3    H225321   0.077   6.562  18.761 -0.0033 -0.7462 -2.4641
  376TIP3   OH225322   5.205   2.743  16.969  0.2359  0.2624 -0.0269
  376TIP3    H125323   5.131   2.701  16.924 -0.4642  1.7522 -0.3365
  376TIP3    H225324   5.220   2.689  17.046 -0.9403 -0.2961 -0.1618
  377TIP3   OH225325   6.543   6.499  17.418 -0.2277  0.0496  0.2667
  377TIP3    H125326   6.474   6.470  17.477 -2.0022  2.3110 -0.5348
  377TIP3    H225327   6.578   6.578  17.460  1.8809 -0.9792  0.5986
  378TIP3   OH225328   5.458   0.527  17.963 -0.3897 -0.3653  0.0689
  378TIP3    H125329   5.524   0.540  18.030  1.0658  1.3721 -1.5928
  378TIP3    H225330   5.507   0.503  17.885 -1.5133  2.0763 -1.5316
  379TIP3   OH225331   0.289   6.064  18.060  0.2651  0.0156 -0.1163
  379TIP3    H125332   0.302   5.989  18.002 -0.7470 -0.0248 -0.3175
  379TIP3    H225333   0.361   6.123  18.040  1.7030 -1.3499  0.8083
  380TIP3   OH225334   3.359   4.286  18.721  0.2721 -0.0103 -0.2692
  380TIP3    H125335   3.350   4.291  18.816 -1.4659 -1.2319 -0.3132
  380TIP3    H225336   3.433   4.227  18.707  0.5213  0.1490  0.3103
  381TIP3   OH225337   6.767   2.526  18.453  0.1026  0.2057 -0.9809
  381TIP3    H125338   6.831   2.456  18.464 -1.1372 -1.1649 -2.0050
  381TIP3    H225339   6.760   2.567  18.540  0.7934 -1.0046 -0.3358
  382TIP3   OH225340   3.401   5.695  19.074  0.3629 -0.3911 -0.1159
  382TIP3    H125341   3.347   5.616  19.076 -0.7711  0.1727 -2.9250
  382TIP3    H225342   3.358   5.756  19.133  0.0043 -1.1485  0.4114
  383TIP3   OH225343   0.248   4.023  17.594  0.2226 -0.6785 -0.0434
  383TIP3    H125344   0.167   4.012  17.544 -1.2392 -0.1614  2.0594
  383TIP3    H225345   0.238   4.108  17.636  0.9674 -1.4324  1.7646
  384TIP3   OH225346   5.508   6.258  18.365 -0.3348  0.8459  0.6476
  384TIP3    H125347   5.422   6.225  18.339 -0.6166  1.4236  0.8361
  384TIP3    H225348   5.565   6.180  18.364 -0.6062  0.6405 -0.5222
  385TIP3   OH225349   2.961   1.866  17.025 -0.3910 -0.1887  0.2698
  385TIP3    H125350   3.032   1.846  16.963 -0.9619 -2.5038  0.2751
  385TIP3    H225351   2.905   1.928  16.979  0.8833  0.5860 -0.2766
  386TIP3   OH225352   6.345   4.422  19.636  0.8133 -0.3455 -0.2221
  386TIP3    H125353   6.260   4.462  19.658  1.5804  1.4232 -0.2832
  386TIP3    H225354   6.335   4.330  19.658 -1.0923 -0.1527 -0.1202
  387TIP3   OH225355   3.862   5.605  18.275  0.0714 -0.1076 -0.3547
  387TIP3    H125356   3.937   5.607  18.335  0.5619 -0.6724 -0.9311
  387TIP3    H225357   3.806   5.535  18.308  0.7613 -1.0012 -1.0223
  388TIP3   OH225358   0.437   3.500  19.270 -0.0109  0.1610  0.5287
  388TIP3    H125359   0.500   3.520  19.339 -0.1334 -0.2624  0.7682
  388TIP3    H225360   0.491   3.471  19.196  0.0924  0.0794  0.6358
  389TIP3   OH225361   5.721   3.565  18.262 -0.3338  0.0018 -0.1810
  389TIP3    H125362   5.663   3.493  18.236 -0.5508  0.2229 -0.3165
  389TIP3    H225363   5.664   3.626  18.308  0.1483 -0.6261  1.2966
  390TIP3   OH225364   1.211   2.125  19.083  0.4064  0.9130  0.1637
  390TIP3    H125365   1.291   2.079  19.109 -0.1120  0.2414  0.6134
  390TIP3    H225366   1.143   2.087  19.137 -0.6134 -0.0851 -1.7121
  391TIP3   OH225367   0.253   3.374  18.883  0.1750 -0.4482  0.1881
  391TIP3    H125368   0.220   3.313  18.949 -0.1967 -0.4055  0.0484
  391TIP3    H225369   0.290   3.319  18.814  2.5711 -0.4727  1.4083
  392TIP3   OH225370   2.085   1.897  17.304  0.2632 -0.2739 -0.0790
  392TIP3    H125371   2.087   1.872  17.397 -0.2498  1.2929  0.3799
  392TIP3    H225372   2.011   1.957  17.297  0.0685 -0.6526 -1.6026
  393TIP3   OH225373   4.268   4.671  19.184 -0.1113  0.3264  0.5511
  393TIP3    H125374   4.187   4.622  19.173  1.5418 -2.4054 -0.5476
  393TIP3    H225375   4.320   4.619  19.245  1.8787  0.4124 -0.9544
  394TIP3   OH225376   3.070   5.629  19.070 -0.1267 -0.3437 -0.2261
  394TIP3    H125377   3.012   5.696  19.106  0.2233  0.2436 -0.7404
  394TIP3    H225378   3.036   5.547  19.105  0.5215  0.2287  1.8740
  395TIP3   OH225379   0.584   4.713  17.856  0.0084  0.0630  0.4255
  395TIP3    H125380   0.603   4.712  17.762  1.1729  1.4333  0.6083
  395TIP3    H225381   0.559   4.623  17.877  0.4245 -0.4210 -1.0544
  396TIP3   OH225382   1.733   0.601  18.791  0.5141  0.1236 -0.6213
  396TIP3    H125383   1.784   0.614  18.870  1.0413 -3.2570 -0.2510
  396TIP3    H225384   1.731   0.687  18.749  1.5345  1.6615  2.2403
  397TIP3   OH225385   1.969   0.984  19.512 -0.2738 -0.5143 -0.0812
  397TIP3    H125386   1.900   0.961  19.450 -1.4461  1.6369  0.3231
  397TIP3    H225387   2.039   1.021  19.458 -0.1978 -1.0010 -0.3242
  398TIP3   OH225388   3.306   4.281  17.675  0.3004  0.0080  0.4141
  398TIP3    H125389   3.389   4.256  17.634  0.2332 -0.7518  0.7241
  398TIP3    H225390   3.279   4.359  17.627  1.9750  1.2209  1.3514
  399TIP3   OH225391   2.666   3.494  18.972  0.0993 -0.1643  0.3133
  399TIP3    H125392   2.739   3.497  18.910  1.7685  1.0217  2.2022
  399TIP3    H225393   2.594   3.539  18.926  1.9571  2.7263 -0.0564
  400TIP3   OH225394   3.411   5.885  19.655 -0.7841 -0.0795 -0.4564
  400TIP3    H125395   3.407   5.979  19.671 -0.5859  0.0936 -1.3305
  400TIP3    H225396   3.420   5.846  19.741 -0.6576  0.7169 -0.0976
  401TIP3   OH225397   1.040   3.803  19.229  0.0338  0.1346  0.1633
  401TIP3    H125398   1.037   3.709  19.206 -0.4569  0.5347 -1.6019
  401TIP3    H225399   0.979   3.811  19.303  0.6633 -1.0542  0.8448
  402TIP3   OH225400   1.346   3.685  19.779  0.1701  0.2445 -0.2876
  402TIP3    H125401   1.401   3.757  19.748 -1.1851  0.9989 -1.0545
  402TIP3    H225402   1.279   3.676  19.711 -1.1293 -0.0854  0.9874
  403TIP3   OH225403   6.125   0.964  16.920 -0.1212 -0.2607  0.2207
  403TIP3    H125404   6.209   0.967  16.967 -0.2635  0.7283  0.4272
  403TIP3    H225405   6.150   0.947  16.829  0.3110  0.0979  0.2666
  404TIP3   OH225406   6.780   3.279  20.238  0.7521 -0.2183 -0.6314
  404TIP3    H125407   6.717   3.243  20.300  1.5445 -1.7047 -0.6319
  404TIP3    H225408   6.748   3.367  20.219 -1.2188 -0.8436 -0.4892
  405TIP3   OH225409   4.671   0.003  20.023  0.0255 -0.1714 -0.6403
  405TIP3    H125410   4.704   0.079  19.976 -0.4818 -1.0977 -2.6104
  405TIP3    H225411   4.594  -0.024  19.973 -0.6142 -1.1516  0.8237
  406TIP3   OH225412   5.316   4.967  18.747  0.2715  0.7585  0.3912
  406TIP3    H125413   5.370   4.923  18.813  1.8988  1.6980 -0.2515
  406TIP3    H225414   5.356   5.054  18.738 -0.7199  1.1136 -0.8834
  407TIP3   OH225415   6.032   0.570  18.170  0.3034 -0.3011 -0.3975
  407TIP3    H125416   6.075   0.486  18.157  0.1334 -0.5508  0.5844
  407TIP3    H225417   5.950   0.563  18.122 -0.0746 -0.9957  0.3354
  408TIP3   OH225418   4.976   5.561  18.579 -0.4737 -0.1671  0.1637
  408TIP3    H125419   5.006   5.616  18.506 -1.9170 -1.6561 -1.6403
  408TIP3    H225420   5.056   5.522  18.614  0.2845  0.9175 -0.2981
  409TIP3   OH225421   1.978   5.795  19.801 -0.0476 -0.2932  0.0395
  409TIP3    H125422   1.965   5.818  19.708 -1.6895 -0.6006  0.1724
  409TIP3    H225423   2.020   5.873  19.838  0.1394  0.0469 -0.8471
  410TIP3   OH225424   6.501   6.562  17.750 -0.4090 -0.2387  0.1447
  410TIP3    H125425   6.458   6.609  17.822 -1.2374  1.2001 -1.2201
  410TIP3    H225426   6.566   6.507  17.792  0.4573  1.9641  1.8873
  411TIP3   OH225427   1.081   6.309  19.157 -0.8876  0.0737  0.1181
  411TIP3    H125428   0.999   6.282  19.116 -2.2408  0.7487  2.1772
  411TIP3    H225429   1.063   6.305  19.251  1.7113 -0.4600  0.6771
  412TIP3   OH225430   4.111   6.404  16.861  0.1028 -0.5156 -0.3504
  412TIP3    H125431   4.037   6.464  16.870  0.5574  0.2812 -1.7274
  412TIP3    H225432   4.074   6.326  16.819 -0.0858 -0.3959 -0.4076
  413TIP3   OH225433   4.426   3.048  19.916  0.4679 -0.0933  0.4800
  413TIP3    H125434   4.344   3.053  19.966 -0.2146  2.5366 -0.6819
  413TIP3    H225435   4.405   2.991  19.842 -1.4503  2.7405 -1.4099
  414TIP3   OH225436   6.510   3.837  18.562  0.0528 -1.0392 -0.0728
  414TIP3    H125437   6.506   3.876  18.650  3.2919  1.7990 -0.9325
  414TIP3    H225438   6.597   3.798  18.557  0.0940 -0.8119 -2.0889
  415TIP3   OH225439   6.745   2.289  16.875  0.0877 -0.7511 -0.0764
  415TIP3    H125440   6.721   2.271  16.784 -0.3813 -1.9482  0.2718
  415TIP3    H225441   6.732   2.206  16.920  1.8969 -0.6288  0.7613
  416TIP3   OH225442   1.289   0.815  18.927  0.1593 -0.7341 -0.4006
  416TIP3    H125443   1.287   0.839  18.834  1.5711  0.7263 -0.0901
  416TIP3    H225444   1.261   0.895  18.973 -0.0409 -1.2846  0.4523
  417TIP3   OH225445   6.205   0.906  16.670 -0.2600 -0.5309  0.1740
  417TIP3    H125446   6.292   0.871  16.652 -0.8507 -2.5107  0.8467
  417TIP3    H225447   6.148   0.863  16.606 -0.7679  0.6839 -0.2127
  418TIP3   OH225448   2.837   3.226  19.442 -0.3888  0.0385  0.0236
  418TIP3    H125449   2.870   3.271  19.520 -0.2286 -1.0428  0.5968
  418TIP3    H225450   2.903   3.243  19.375  0.1966 -0.2246  0.5286
  419TIP3   OH225451   1.164   0.945  17.460 -0.2644 -0.3832  0.3837
  419TIP3    H125452   1.223   0.904  17.524 -1.4824 -1.9963  0.5354
  419TIP3    H225453   1.133   1.025  17.503  0.2797 -0.5394  1.0803
  420TIP3   OH225454   3.883   5.057  17.349  0.0457  0.4348  0.3827
  420TIP3    H125455   3.914   5.147  17.346  2.4510 -0.3364 -1.2039
  420TIP3    H225456   3.792   5.062  17.321 -0.1939  2.4398  1.3383
  421TIP3   OH225457   0.976   2.870  17.183  0.3385  0.1876 -0.1427
  421TIP3    H125458   1.020   2.803  17.131 -1.3700 -0.3860 -0.9436
  421TIP3    H225459   0.888   2.875  17.146  0.0425  2.0612  0.6574
  422TIP3   OH225460   2.628   5.147  18.065  0.2384  0.2285  0.3752
  422TIP3    H125461   2.542   5.119  18.095 -0.5470  1.4297 -0.6197
  422TIP3    H225462   2.610   5.226  18.013  1.7574 -0.4611 -1.2754
  423TIP3   OH225463   1.299   5.716  16.789  0.1392 -0.1635 -0.1162
  423TIP3    H125464   1.366   5.647  16.788 -0.6490 -0.9661 -1.2408
  423TIP3    H225465   1.217   5.668  16.791 -0.4488  0.8128  2.6050
  424TIP3   OH225466   4.606   5.993  17.664 -0.0570  0.3214 -0.0762
  424TIP3    H125467   4.605   6.016  17.571  1.4458 -0.4410 -0.3234
  424TIP3    H225468   4.690   6.028  17.696 -0.9717  1.4189  1.2440
  425TIP3   OH225469   4.503   4.084  19.510 -0.3885 -0.2053  0.5261
  425TIP3    H125470   4.460   4.018  19.456  1.0490 -1.2450  0.6024
  425TIP3    H225471   4.596   4.067  19.499 -0.0187  0.9110  1.6863
  426TIP3   OH225472   0.883   0.798  18.327 -0.7687  0.1303 -0.0421
  426TIP3    H125473   0.890   0.707  18.298  1.2293  0.2312  0.0109
  426TIP3    H225474   0.868   0.792  18.422 -0.8873 -0.1374 -0.0773
  427TIP3   OH225475   3.771   1.927  17.157  0.3648 -0.5654 -0.1143
  427TIP3    H125476   3.764   1.831  17.157  2.0767 -0.7568 -1.5209
  427TIP3    H225477   3.752   1.953  17.067  2.9920  0.0367 -0.5971
  428TIP3   OH225478   6.672   6.782  17.253 -0.2840  0.0665  0.0437
  428TIP3    H125479   6.711   6.797  17.339  0.8959 -1.6074 -0.1735
  428TIP3    H225480   6.746   6.771  17.193 -1.0885  0.2835 -1.0338
  429TIP3   OH225481   1.130   6.741  17.338 -0.1951 -0.1088  0.5477
  429TIP3    H125482   1.201   6.803  17.323  0.8179 -1.4406 -0.4358
  429TIP3    H225483   1.082   6.738  17.256 -1.0915  0.3944  1.0423
  430TIP3   OH225484   3.014   3.864  18.310 -0.4107 -0.0198  0.5230
  430TIP3    H125485   2.999   3.910  18.392 -2.0423  1.6151 -0.6160
  430TIP3    H225486   2.938   3.887  18.256  1.3348  0.1620 -1.9799
  431TIP3   OH225487   5.766   2.491  18.779 -0.3323  0.2876  0.2584
  431TIP3    H125488   5.826   2.526  18.714  0.0492  0.8250  0.8818
  431TIP3    H225489   5.700   2.445  18.729  1.5332 -1.8578 -0.4012
  432TIP3   OH225490   0.877   0.155  18.478 -0.0157 -0.3515 -0.3800
  432TIP3    H125491   0.927   0.230  18.512 -1.3795  0.9584 -1.1521
  432TIP3    H225492   0.838   0.115  18.556 -1.7003  1.5717 -0.1579
  433TIP3   OH225493   0.303   1.448  17.968  0.1715  0.2715 -0.2822
  433TIP3    H125494   0.281   1.416  17.880 -0.1126 -1.5199  0.3981
  433TIP3    H225495   0.219   1.449  18.014  0.3088  1.2781 -0.0330
  434TIP3   OH225496   3.252   2.752  17.033 -0.2742  0.5093  0.3114
  434TIP3    H125497   3.238   2.846  17.043  1.1920  0.5867  2.1938
  434TIP3    H225498   3.331   2.745  16.980 -1.2028  0.2752 -1.0890
  435TIP3   OH225499   0.688   2.177  19.378  0.6655 -0.1139 -0.0052
  435TIP3    H125500   0.705   2.092  19.419  2.1805 -0.3713 -1.0619
  435TIP3    H225501   0.593   2.180  19.368  0.5833 -1.7625 -0.0593
  436TIP3   OH225502   6.502   2.126  18.922 -0.4243 -0.5045 -0.6581
  436TIP3    H125503   6.548   2.195  18.873 -0.8380  2.5949  2.8261
  436TIP3    H225504   6.410   2.149  18.914 -0.5721 -0.6405  0.5545
  437TIP3   OH225505   3.847   1.604  18.837 -0.7154 -0.1409  0.0044
  437TIP3    H125506   3.876   1.515  18.816  0.7194  0.1964  0.4110
  437TIP3    H225507   3.878   1.619  18.926 -0.3223  1.0049 -0.3041
  438TIP3   OH225508   1.216   2.540  17.586 -0.7594 -0.1627  0.3811
  438TIP3    H125509   1.282   2.487  17.540 -0.7548 -1.0713  1.3945
  438TIP3    H225510   1.265   2.588  17.652 -0.4279  2.8100 -1.8465
  439TIP3   OH225511   6.359   1.856  17.636 -0.7727 -0.1807  0.6226
  439TIP3    H125512   6.340   1.866  17.730  0.3108  3.0234  0.5912
  439TIP3    H225513   6.416   1.929  17.615  0.3144 -1.7079 -2.2607
  440TIP3   OH225514   5.072   2.314  19.521 -0.0649 -0.5796 -0.2352
  440TIP3    H125515   5.088   2.219  19.519  2.0763 -0.4270  2.3905
  440TIP3    H225516   5.085   2.337  19.613  0.4392  2.4077 -0.9660
  441TIP3   OH225517   1.487   4.384  17.638 -0.2600  0.4260  0.3508
  441TIP3    H125518   1.458   4.471  17.664  0.8345  0.7277  0.6350
  441TIP3    H225519   1.540   4.399  17.560 -0.5439 -0.0612  0.0549
  442TIP3   OH225520   5.892   3.324  17.868 -0.3814  0.1463 -0.4011
  442TIP3    H125521   5.915   3.246  17.817  1.3989  0.1143  0.3670
  442TIP3    H225522   5.956   3.390  17.840 -0.8461  0.8422  0.1368
  443TIP3   OH225523   4.412   6.727  19.887  0.8812 -0.4993 -0.4827
  443TIP3    H125524   4.386   6.636  19.894  0.0080 -0.3344 -1.3428
  443TIP3    H225525   4.354   6.764  19.821 -1.0967  1.5084  2.1090
  444TIP3   OH225526   4.384   3.274  19.720 -0.1372  0.3926  0.0266
  444TIP3    H125527   4.411   3.184  19.742 -0.4658  0.2979  0.0515
  444TIP3    H225528   4.466   3.322  19.710  0.0353  0.3120  0.9484
  445TIP3   OH225529   4.811   3.259  19.402  0.8369 -0.6769 -0.1327
  445TIP3    H125530   4.717   3.275  19.406  0.7965 -1.0861  0.6371
  445TIP3    H225531   4.826   3.223  19.314  0.6202  1.4671 -1.1077
  446TIP3   OH225532   1.401   4.142  18.883 -0.3369  0.5528 -0.0353
  446TIP3    H125533   1.321   4.148  18.934 -0.5268 -0.4923 -0.1886
  446TIP3    H225534   1.395   4.213  18.819 -1.0617  0.5838  0.0683
  447TIP3   OH225535   3.760   1.370  18.036  0.2152  0.2900  0.2751
  447TIP3    H125536   3.702   1.305  18.075 -0.2436  0.9022  0.6239
  447TIP3    H225537   3.848   1.342  18.062  0.2387 -1.4325 -1.3905
  448TIP3   OH225538   2.057   4.848  19.631 -0.2594  0.2496 -0.0744
  448TIP3    H125539   2.150   4.868  19.633 -0.2045 -0.0545  0.8722
  448TIP3    H225540   2.019   4.916  19.576  0.2367  1.6384  1.2454
  449TIP3   OH225541   3.052   3.126  19.750  0.8926 -0.0043 -0.3921
  449TIP3    H125542   3.123   3.126  19.814  0.4794  0.1912  0.0758
  449TIP3    H225543   3.002   3.205  19.770 -1.1250 -1.5393  1.1926
  450TIP3   OH225544   4.105   4.098  17.827 -0.2571  0.3758 -0.5435
  450TIP3    H125545   4.165   4.060  17.762  0.1932  2.2070 -1.2691
  450TIP3    H225546   4.018   4.082  17.791 -0.0099  1.5388 -1.7695
  451TIP3   OH225547   0.655   2.630  19.263  0.0164  0.0901 -0.4507
  451TIP3    H125548   0.742   2.604  19.292 -0.0269 -0.5393 -0.8673
  451TIP3    H225549   0.636   2.710  19.313  0.1475 -0.6869  0.8718
  452TIP3   OH225550   1.374   1.124  16.302  0.6112 -0.6200 -0.5498
  452TIP3    H125551   1.315   1.051  16.322 -0.3948  0.8261  2.2265
  452TIP3    H225552   1.404   1.106  16.212 -1.6227 -3.0291 -0.9457
  453TIP3   OH225553   5.445   3.286  16.823 -0.2330  0.5385 -0.6312
  453TIP3    H125554   5.470   3.292  16.915  0.5586 -2.1052 -0.5763
  453TIP3    H225555   5.350   3.290  16.824 -0.2692 -0.0783  0.3930
  454TIP3   OH225556   0.596   0.559  18.402  0.3155  0.2999 -0.5163
  454TIP3    H125557   0.573   0.595  18.488  2.8001  1.0491 -0.0996
  454TIP3    H225558   0.620   0.634  18.349 -1.4697 -0.1213 -2.0498
  455TIP3   OH225559   4.823   2.067  19.786 -0.1057  0.3623 -0.1842
  455TIP3    H125560   4.823   2.001  19.855  0.2207  1.6089  1.0462
  455TIP3    H225561   4.761   2.034  19.721  1.2977 -1.9654 -0.4454
  456TIP3   OH225562   3.263   2.506  18.385 -0.2822  0.3512 -0.1680
  456TIP3    H125563   3.193   2.496  18.450  0.9136 -4.3916  0.7619
  456TIP3    H225564   3.334   2.549  18.433 -0.9686  1.1365  0.1800
  457TIP3   OH225565   2.672   6.133  19.423  0.3702 -0.0781 -0.4988
  457TIP3    H125566   2.652   6.168  19.337  0.2015 -1.1998 -0.9273
  457TIP3    H225567   2.766   6.114  19.420  0.6862  1.2728  0.0909
  458TIP3   OH225568   5.037   1.471  17.936  0.1716  0.6178  0.5811
  458TIP3    H125569   5.052   1.456  18.030  0.8268 -0.3700  0.3274
  458TIP3    H225570   5.118   1.442  17.894  0.0425  1.4378 -0.2677
  459TIP3   OH225571   5.619   4.820  19.688 -0.2979 -0.2973 -0.4415
  459TIP3    H125572   5.565   4.751  19.726 -1.1466  1.3730  1.5552
  459TIP3    H225573   5.555   4.879  19.647  0.4482 -0.8791 -2.5628
  460TIP3   OH225574   1.984   0.222  17.437  0.6517 -0.1922 -0.4101
  460TIP3    H125575   1.942   0.196  17.519  1.2094 -0.7252 -0.2852
  460TIP3    H225576   1.982   0.144  17.382  0.4997  0.0904 -0.8168
  461TIP3   OH225577   4.095   3.722  16.862  0.1448  0.2157 -0.1224
  461TIP3    H125578   4.055   3.646  16.904 -1.7425 -0.5027 -2.9137
  461TIP3    H225579   4.028   3.790  16.868  0.3373  0.4792 -0.8539
  462TIP3   OH225580   4.343   2.117  19.228 -0.2120  0.7931 -0.1331
  462TIP3    H125581   4.353   2.026  19.202 -0.6326  0.2959  1.3287
  462TIP3    H225582   4.256   2.142  19.196 -1.2974 -0.2245  1.8041
  463TIP3   OH225583   0.726   1.427  18.970  0.0249 -0.0319 -0.4964
  463TIP3    H125584   0.803   1.407  18.916 -0.1744  1.4155 -1.3756
  463TIP3    H225585   0.652   1.407  18.913 -0.2633 -0.8718  0.1489
  464TIP3   OH225586   5.826   3.761  19.347 -0.2207  0.3574  1.0337
  464TIP3    H125587   5.810   3.707  19.425  2.3814 -1.7879  0.2272
  464TIP3    H225588   5.876   3.836  19.379  0.6991 -0.4298  1.4763
  465TIP3   OH225589   2.986   3.571  18.452 -0.0666  0.1424 -0.1668
  465TIP3    H125590   3.054   3.620  18.406 -2.3140  2.4477 -1.2808
  465TIP3    H225591   2.958   3.629  18.523 -2.1513  0.1063 -0.9005
  466TIP3   OH225592   6.620   0.271  17.915 -0.2495 -0.8344 -0.4860
  466TIP3    H125593   6.709   0.298  17.935 -0.1043  1.1710 -3.2847
  466TIP3    H225594   6.565   0.334  17.961 -0.2545 -1.5621  0.5490
  467TIP3   OH225595   5.478   2.618  16.883  0.5683 -0.1772  0.1027
  467TIP3    H125596   5.527   2.700  16.894  0.7915 -0.2482 -0.3183
  467TIP3    H225597   5.518   2.557  16.945  0.9540 -0.2080 -0.1767
  468TIP3   OH225598   3.247   2.401  19.559  0.1330 -0.2089 -0.1882
  468TIP3    H125599   3.293   2.467  19.611  0.2795 -0.4000 -0.0729
  468TIP3    H225600   3.280   2.414  19.470 -0.1693  0.1632 -0.2468
  469TIP3   OH225601   4.779   3.183  18.758  0.6925  0.6987 -0.1948
  469TIP3    H125602   4.862   3.166  18.714  0.7335  1.3654 -0.3805
  469TIP3    H225603   4.766   3.107  18.814  1.5520  0.6966  0.0200
  470TIP3   OH225604   1.955   2.266  18.795 -0.2591  0.0054  0.2928
  470TIP3    H125605   1.944   2.342  18.738 -1.2906  0.3294  0.8964
  470TIP3    H225606   2.028   2.290  18.853 -1.0568  0.8569  0.9654
  471TIP3   OH225607   4.384   0.881  18.848  0.2476  0.6553  0.4270
  471TIP3    H125608   4.364   0.930  18.927  0.1209 -0.3352  1.0241
  471TIP3    H225609   4.300   0.875  18.802 -0.2135 -0.7874  1.3904
  472TIP3   OH225610   3.900   3.417  18.002 -0.1811 -0.3585 -0.1746
  472TIP3    H125611   3.973   3.466  17.964 -0.0102 -0.3860  0.1124
  472TIP3    H225612   3.854   3.380  17.927  1.1925 -1.9134 -0.2900
  473TIP3   OH225613   3.141   3.395  17.587 -0.2315  0.3375 -0.0940
  473TIP3    H125614   3.090   3.473  17.608 -0.5895 -0.1776  1.0625
  473TIP3    H225615   3.150   3.396  17.492  0.2184  2.0600 -0.0573
  474TIP3   OH225616   3.802   0.883  17.811  0.6077  0.3255 -0.3917
  474TIP3    H125617   3.785   0.936  17.889  0.4651  0.8924 -0.8080
  474TIP3    H225618   3.892   0.905  17.786  0.0484  1.5396 -1.4538
  475TIP3   OH225619   4.158   2.433  18.274  0.7720 -0.3705 -0.0451
  475TIP3    H125620   4.196   2.375  18.340 -1.3311 -0.0967  1.5434
  475TIP3    H225621   4.175   2.522  18.308  0.6578 -0.1890 -0.4581
  476TIP3   OH225622   4.495   0.169  19.590  0.3092 -0.6551  0.2489
  476TIP3    H125623   4.589   0.176  19.605  0.3665 -0.4865 -0.1752
  476TIP3    H225624   4.485   0.183  19.496 -0.2851  0.8305  0.4967
  477TIP3   OH225625   1.824   4.242  17.931  0.4184  0.0152  0.1227
  477TIP3    H125626   1.828   4.323  17.982 -0.1605 -1.2774  2.3649
  477TIP3    H225627   1.772   4.264  17.854 -3.6499  0.8245  2.8030
  478TIP3   OH225628   1.272   1.143  17.901 -0.0812  0.0043 -0.1361
  478TIP3    H125629   1.220   1.063  17.907  1.4738 -0.9666  1.1111
  478TIP3    H225630   1.348   1.128  17.957  1.3568  1.5229 -1.5233
  479TIP3   OH225631   1.056   4.837  17.242 -0.6248 -0.0973 -0.0031
  479TIP3    H125632   1.050   4.796  17.156  0.4270  0.2417 -0.2549
  479TIP3    H225633   1.047   4.931  17.225  1.7742  0.1875 -0.0685
  480TIP3   OH225634   3.684   4.495  19.619  0.1603  0.1898 -0.2666
  480TIP3    H125635   3.685   4.406  19.583  1.2138 -0.3909  1.1079
  480TIP3    H225636   3.617   4.492  19.688  1.2806  0.0029  0.8328
  481TIP3   OH225637   1.532   4.418  19.297 -0.0473  0.2504  0.1171
  481TIP3    H125638   1.503   4.457  19.215 -0.6939 -1.1309 -0.3401
  481TIP3    H225639   1.452   4.404  19.348  0.2077 -0.0858  0.4403
  482TIP3   OH225640   2.200   2.712  19.296  0.1712 -0.0671 -0.1520
  482TIP3    H125641   2.260   2.711  19.370  0.2673 -0.3629 -0.2362
  482TIP3    H225642   2.141   2.639  19.311 -0.6313  0.6544  0.3119
  483TIP3   OH225643   3.709   6.156  17.574 -0.1503  0.4097  0.5500
  483TIP3    H125644   3.709   6.198  17.660  0.8868 -0.1619  0.8512
  483TIP3    H225645   3.691   6.227  17.512  1.8051  1.3584  1.0139
  484TIP3   OH225646   0.060   4.294  18.634 -0.4208  0.5243 -0.1412
  484TIP3    H125647   0.057   4.205  18.668  0.4756  0.2995 -0.6280
  484TIP3    H225648   0.121   4.290  18.560 -2.1186  1.0257 -1.6626
  485TIP3   OH225649   1.533   3.036  17.962 -0.0885 -0.0027  0.1230
  485TIP3    H125650   1.481   3.102  18.008 -0.0081  0.6276 -0.6701
  485TIP3    H225651   1.587   3.086  17.901 -1.7751 -0.9230 -2.2566
  486TIP3   OH225652   0.481   5.423  19.173  0.4205  0.8695 -0.4091
  486TIP3    H125653   0.456   5.514  19.188 -1.0490  0.2794  1.0025
  486TIP3    H225654   0.403   5.383  19.133  0.5494 -0.0749  0.2621
  487TIP3   OH225655   0.573   2.342  18.750  0.2379 -0.3972 -0.0478
  487TIP3    H125656   0.501   2.280  18.756  0.2549 -0.3037  1.6740
  487TIP3    H225657   0.612   2.342  18.838 -0.7464  3.1939  0.5670
  488TIP3   OH225658   5.843   0.151  19.419  0.0938  0.2136  0.1299
  488TIP3    H125659   5.873   0.241  19.409 -1.2627  0.6835  0.1273
  488TIP3    H225660   5.839   0.116  19.330 -0.1668  0.4200  0.0605
  489TIP3   OH225661   3.555   0.288  19.135 -0.2520 -0.1650  0.1751
  489TIP3    H125662   3.650   0.299  19.143  0.3074 -3.4192 -0.6744
  489TIP3    H225663   3.532   0.336  19.055  0.7970  0.1039  0.0225
  490TIP3   OH225664   6.617   3.550  18.447 -0.5037  0.0114 -0.1694
  490TIP3    H125665   6.539   3.561  18.501 -0.2516  0.0177  0.1968
  490TIP3    H225666   6.596   3.477  18.388 -0.2160 -1.0209  0.9733
  491TIP3   OH225667   6.509   1.721  17.310  0.0380  0.0935 -0.1760
  491TIP3    H125668   6.523   1.667  17.387 -0.9424  0.3499  0.2055
  491TIP3    H225669   6.557   1.677  17.240  2.4043  0.7880  0.9316
  492TIP3   OH225670   4.830   0.157  18.065  0.1734 -0.2432 -0.5231
  492TIP3    H125671   4.916   0.124  18.089 -0.1851 -0.5605  0.3572
  492TIP3    H225672   4.796   0.092  18.003 -0.2834 -1.2696  0.7433
  493TIP3   OH225673   4.695   2.473  16.359 -0.2386 -0.7025 -0.4728
  493TIP3    H125674   4.652   2.480  16.274 -2.3919  0.8456  0.6533
  493TIP3    H225675   4.763   2.539  16.357 -0.7310 -0.1920 -0.7689
  494TIP3   OH225676   1.853   4.597  18.761 -0.2028  0.2276  0.5881
  494TIP3    H125677   1.796   4.520  18.769 -2.9008  1.6208 -2.6979
  494TIP3    H225678   1.929   4.564  18.712 -0.5508 -0.6742  0.6207
  495TIP3   OH225679   4.339   5.661  16.875 -0.6885  0.3647  0.0545
  495TIP3    H125680   4.308   5.576  16.905 -0.0449 -1.1032 -2.9653
  495TIP3    H225681   4.273   5.689  16.811  0.9519  0.1781 -1.8384
  496TIP3   OH225682   1.141   6.737  18.747  0.0538  0.0738 -0.4844
  496TIP3    H125683   1.204   6.677  18.785 -1.7035 -1.1241  0.7276
  496TIP3    H225684   1.144   6.720  18.653  2.5280  1.1170 -0.6464
  497TIP3   OH225685   1.162   5.680  17.982 -0.1391  0.1084 -0.2344
  497TIP3    H125686   1.121   5.635  17.907  0.3907  0.0605 -0.4962
  497TIP3    H225687   1.219   5.614  18.021  1.1805  0.7311 -1.0322
  498TIP3   OH225688   2.446   3.646  18.846 -1.0298  0.4785  0.4013
  498TIP3    H125689   2.406   3.702  18.912 -2.2108 -1.8236  1.7690
  498TIP3    H225690   2.376   3.586  18.821  0.4290 -1.0133 -0.2413
  499TIP3   OH225691   6.460   5.817  16.591  0.4212  0.2949  0.1066
  499TIP3    H125692   6.492   5.853  16.508  0.0752  0.2897 -0.0308
  499TIP3    H225693   6.443   5.725  16.573  0.9586  0.1422  0.3605
  500TIP3   OH225694   6.328   4.909  19.405 -0.2263 -0.6959 -0.6868
  500TIP3    H125695   6.306   4.817  19.419  0.0062 -0.6231  0.1911
  500TIP3    H225696   6.312   4.951  19.489 -0.1683  0.0441 -1.0335
  501TIP3   OH225697   1.834   0.868  16.910  0.3163  0.5632  0.5904
  501TIP3    H125698   1.919   0.824  16.919  0.3073  0.8688  2.9450
  501TIP3    H225699   1.854   0.961  16.924 -0.4133  0.6079  1.4301
  502TIP3   OH225700   2.653   2.774  17.472 -0.3329  0.6676 -0.0308
  502TIP3    H125701   2.712   2.806  17.540  1.1410  1.5920 -1.6590
  502TIP3    H225702   2.705   2.776  17.392 -2.3229  0.6925 -1.4020
  503TIP3   OH225703   2.239   2.475  18.330  0.1944 -0.2314 -0.5935
  503TIP3    H125704   2.278   2.397  18.369 -0.0639  0.2805  0.7535
  503TIP3    H225705   2.147   2.472  18.354 -0.6711 -1.3075 -3.5575
  504TIP3   OH225706   1.862   4.061  20.008 -0.0079 -0.1286 -0.6583
  504TIP3    H125707   1.912   4.056  20.089 -1.3806  0.6890  0.2975
  504TIP3    H225708   1.915   4.115  19.950  0.5991  0.0174  0.0146
  505TIP3   OH225709   5.606   3.685  17.779 -0.7503  0.5449 -0.1583
  505TIP3    H125710   5.639   3.725  17.860  1.0629  0.0566 -0.5934
  505TIP3    H225711   5.666   3.717  17.711 -0.0199 -1.8345 -0.7219
  506TIP3   OH225712   5.669   6.773  16.176 -0.1155  0.2222 -0.5133
  506TIP3    H125713   5.654   6.678  16.179  0.1007  0.1182 -1.9280
  506TIP3    H225714   5.762   6.781  16.157  0.1059  0.7518  0.7333
  507TIP3   OH225715   1.350   4.624  18.573  0.3031 -0.3040 -0.0963
  507TIP3    H125716   1.281   4.644  18.510  1.7232 -0.3112 -1.7130
  507TIP3    H225717   1.313   4.651  18.657 -0.6821  2.1900 -1.2229
  508TIP3   OH225718   1.260   3.033  19.624 -0.1159  0.1577 -0.3234
  508TIP3    H125719   1.216   2.948  19.622 -0.6312  0.3900  0.5611
  508TIP3    H225720   1.339   3.019  19.676 -0.7386  0.4498  0.7265
  509TIP3   OH225721   0.717   4.669  17.602 -0.0562 -0.3842 -0.6393
  509TIP3    H125722   0.785   4.620  17.556 -1.4790 -1.3408 -1.8052
  509TIP3    H225723   0.753   4.758  17.612  1.6663 -1.0661 -0.4667
  510TIP3   OH225724   4.321   6.170  18.866 -0.8791  0.1603 -1.0536
  510TIP3    H125725   4.399   6.221  18.845 -0.8874  0.8722  0.4659
  510TIP3    H225726   4.355   6.090  18.906 -0.8998  0.4184 -0.5000
  511TIP3   OH225727   4.706   1.883  18.740 -0.5371  0.0110  0.3956
  511TIP3    H125728   4.680   1.892  18.832  1.7076  0.7957  1.0030
  511TIP3    H225729   4.778   1.820  18.741 -0.6407 -0.1637 -0.8743
  512TIP3   OH225730   2.078   1.008  18.229 -0.3552  0.1789 -0.3012
  512TIP3    H125731   2.089   0.967  18.143 -0.4016  0.0883 -0.2631
  512TIP3    H225732   2.145   0.967  18.284 -0.3630  0.1960 -0.2784
  513TIP3   OH225733   0.011   1.675  17.728 -0.8241 -0.2149 -0.2100
  513TIP3    H125734   0.058   1.758  17.718  0.5739 -1.0535 -0.9210
  513TIP3    H225735  -0.046   1.688  17.804 -0.4980  1.3247 -0.2048
  514TIP3   OH225736   1.029   3.136  19.315  0.1235 -0.3736  0.2521
  514TIP3    H125737   0.985   3.154  19.398 -0.2258  4.3390 -0.6575
  514TIP3    H225738   1.118   3.111  19.340  0.2367  1.6318  2.1256
  515TIP3   OH225739   2.478   2.034  17.342 -0.2998 -0.4063  0.0341
  515TIP3    H125740   2.548   1.970  17.354 -0.5364 -0.8661 -0.9478
  515TIP3    H225741   2.488   2.064  17.251  0.3059  1.5546  0.6832
  516TIP3   OH225742   1.507   6.328  19.022 -0.1447 -0.0902  0.0096
  516TIP3    H125743   1.430   6.306  18.969  0.0540 -0.0361 -0.3005
  516TIP3    H225744   1.554   6.245  19.031 -1.4337 -0.6837  2.1895
  517TIP3   OH225745   6.086   4.655  20.210 -0.7587 -0.6726 -1.2100
  517TIP3    H125746   6.129   4.677  20.127  0.1887  0.1794 -0.5266
  517TIP3    H225747   6.146   4.593  20.252 -0.2652  0.3588 -0.3443
  518TIP3   OH225748   5.586   4.198  18.852  0.1105 -0.0819  0.2337
  518TIP3    H125749   5.675   4.234  18.848 -0.2774  0.8526 -0.3441
  518TIP3    H225750   5.562   4.201  18.944  0.2504  0.7506  0.2454
  519TIP3   OH225751   6.522   5.432  18.876  0.6064  0.1615  0.1012
  519TIP3    H125752   6.524   5.416  18.970  0.4374 -0.2576  0.0328
  519TIP3    H225753   6.528   5.345  18.836 -0.5038  0.2349 -0.2584
  520TIP3   OH225754   3.430   5.421  18.585 -0.1980  0.2471  0.5184
  520TIP3    H125755   3.501   5.467  18.628 -0.1395  0.0886  0.5905
  520TIP3    H225756   3.355   5.432  18.644 -0.4882  1.2372 -0.0154
  521TIP3   OH225757   1.739   5.248  19.945 -0.4640 -0.2369 -0.0074
  521TIP3    H125758   1.676   5.215  20.009 -1.1500 -0.3557 -0.7244
  521TIP3    H225759   1.806   5.179  19.939  0.9249  0.8160  2.3301
  522TIP3   OH225760   4.594   1.425  18.915  0.1893  0.6972  0.2906
  522TIP3    H125761   4.524   1.446  18.854  0.8340 -0.0533 -0.7195
  522TIP3    H225762   4.628   1.341  18.886  0.3372  0.1932  1.8422
  523TIP3   OH225763   1.944   0.135  18.862 -0.4630  0.4550 -0.9027
  523TIP3    H125764   1.902   0.163  18.943 -1.1736 -1.9282 -0.3612
  523TIP3    H225765   1.887   0.167  18.793 -1.7038 -0.3381 -0.2863
  524TIP3   OH225766   3.276   3.873  18.170  0.4420 -0.0091 -0.0743
  524TIP3    H125767   3.304   3.964  18.182  0.1479  0.1394 -0.4683
  524TIP3    H225768   3.187   3.871  18.207  0.9648 -0.4843  1.2114
  525TIP3   OH225769   2.419   6.709  20.050 -0.1445  0.0135 -0.3973
  525TIP3    H125770   2.514   6.718  20.042 -0.0381  0.1360  0.8589
  525TIP3    H225771   2.405   6.662  20.132 -1.1371 -1.2488 -1.2464
  526TIP3   OH225772   0.766   4.515  16.501 -0.4208  0.1045 -0.3633
  526TIP3    H125773   0.822   4.559  16.565 -0.9201  2.9919 -1.7351
  526TIP3    H225774   0.677   4.537  16.528 -0.8260 -2.0600  0.1869
  527TIP3   OH225775   5.956   3.282  20.002 -0.0492  0.2049  0.6391
  527TIP3    H125776   5.899   3.244  20.069  0.4159 -2.9865 -0.6384
  527TIP3    H225777   5.918   3.369  19.986 -0.4923  0.9201  4.5264
  528TIP3   OH225778   6.287   0.084  16.925  0.2139  0.0393 -0.0015
  528TIP3    H125779   6.329   0.081  17.012 -0.1489 -0.4269  0.1586
  528TIP3    H225780   6.252   0.173  16.919 -0.1127 -0.0500  0.4993
  529TIP3   OH225781   4.105   4.102  19.251  0.1266 -0.4509  0.3333
  529TIP3    H125782   4.090   4.008  19.263 -2.3967  0.0439  1.6091
  529TIP3    H225783   4.060   4.123  19.169  1.6033 -0.4931 -0.5244
  530TIP3   OH225784   4.498   3.230  18.272  0.2576  0.0069 -0.0529
  530TIP3    H125785   4.558   3.268  18.208 -0.7811  0.8045 -0.5900
  530TIP3    H225786   4.431   3.298  18.284 -1.0636 -1.2429 -0.1988
  531TIP3   OH225787   1.899   6.535  19.867  0.6552  0.4655 -0.4121
  531TIP3    H125788   1.841   6.597  19.823  1.0489  0.1180 -1.4467
  531TIP3    H225789   1.967   6.590  19.908 -0.8651  0.9517  1.6066
  532TIP3   OH225790   1.795   0.547  16.317 -0.2368  0.1176  0.1097
  532TIP3    H125791   1.863   0.613  16.334  0.8085 -1.0723  0.7888
  532TIP3    H225792   1.785   0.546  16.222  1.8072 -0.6951 -0.1518
  533TIP3   OH225793   5.883   3.733  18.569  0.9567  0.4763 -0.2036
  533TIP3    H125794   5.793   3.707  18.590  1.9885 -1.4124  2.4341
  533TIP3    H225795   5.910   3.786  18.644  1.8811  1.5424 -1.2613
  534TIP3   OH225796   1.407   1.862  20.163  0.3081  0.4498  0.4150
  534TIP3    H125797   1.381   1.814  20.085 -0.3136 -0.7413  1.3227
  534TIP3    H225798   1.325   1.879  20.209  0.8509 -1.3842  2.2136
  535TIP3   OH225799   5.688   2.720  19.761 -0.1831  0.6124 -0.3009
  535TIP3    H125800   5.596   2.738  19.778  0.0672  1.4142  0.2764
  535TIP3    H225801   5.714   2.784  19.695  0.0969  0.7759 -0.0388
  536TIP3   OH225802   3.308   5.127  20.150  0.1581 -0.3592 -0.1059
  536TIP3    H125803   3.222   5.168  20.161  0.3072 -0.1180  0.2100
  536TIP3    H225804   3.291   5.033  20.153 -0.3467 -0.3587 -2.0516
  537TIP3   OH225805   3.212   0.605  19.350  0.0215  0.7877  0.2068
  537TIP3    H125806   3.138   0.554  19.317  2.5204 -2.3141 -1.0929
  537TIP3    H225807   3.193   0.616  19.443 -2.4453  0.9007 -0.2279
  538TIP3   OH225808   3.964   0.063  19.799 -0.2956 -0.2796 -0.0621
  538TIP3    H125809   3.954   0.147  19.844 -0.6602  0.1006 -0.8140
  538TIP3    H225810   4.056   0.060  19.773 -0.6513  0.7455 -1.5944
  539TIP3   OH225811   4.036   4.711  19.717  0.5119 -0.1702 -0.6205
  539TIP3    H125812   3.965   4.690  19.778  0.8197 -0.4845 -0.3728
  539TIP3    H225813   4.067   4.797  19.745  0.1318  0.0427 -0.8277
  540TIP3   OH225814   3.092   4.009  17.583  0.1282 -0.6213  0.0700
  540TIP3    H125815   3.156   3.987  17.651 -1.2495 -1.7466  1.0551
  540TIP3    H225816   3.136   3.985  17.501  1.1776 -0.8525  0.6832
  541TIP3   OH225817   2.877   1.763  19.613 -0.5867  0.1434 -0.1136
  541TIP3    H125818   2.960   1.752  19.659 -0.9973 -0.4531  0.4959
  541TIP3    H225819   2.887   1.713  19.533 -0.1793  0.4849 -0.2824
  542TIP3   OH225820   2.507   2.612  17.834  0.6070  0.2597 -0.0353
  542TIP3    H125821   2.516   2.542  17.899 -1.1166 -1.8529 -1.9007
  542TIP3    H225822   2.472   2.686  17.883 -0.1807 -1.1037  1.5600
  543TIP3   OH225823   0.863   1.573  17.009 -0.7331 -0.0326 -0.3793
  543TIP3    H125824   0.943   1.620  16.985 -1.4593  0.8693 -1.0939
  543TIP3    H225825   0.885   1.527  17.090 -0.0476  1.6963  0.4382
  544TIP3   OH225826   0.787   0.925  19.802 -1.1143  0.6969  0.3334
  544TIP3    H125827   0.786   1.020  19.808 -0.6662  0.9202 -2.0424
  544TIP3    H225828   0.879   0.901  19.814 -1.3007  0.4738  1.4678
  545TIP3   OH225829   6.265   4.415  18.490  0.0668 -0.0265 -0.0962
  545TIP3    H125830   6.281   4.322  18.500  0.5958  0.0372 -0.3066
  545TIP3    H225831   6.205   4.437  18.561  1.9195 -0.0307  1.5640
  546TIP3   OH225832   1.278   5.941  17.935 -0.1669  0.1271  0.0752
  546TIP3    H125833   1.316   5.959  18.021 -2.3411  2.4242  0.6628
  546TIP3    H225834   1.218   5.868  17.951 -1.6395  1.4658  0.9027
  547TIP3   OH225835   3.359   1.205  19.075  0.1287 -0.4355 -0.3076
  547TIP3    H125836   3.429   1.261  19.109 -0.8315  0.2402  0.5812
  547TIP3    H225837   3.285   1.220  19.134 -1.3051  0.0787 -2.1750
  548TIP3   OH225838   3.862   0.625  17.211 -0.2495 -0.5291 -0.2589
  548TIP3    H125839   3.956   0.616  17.225  0.0211 -0.4288 -1.7725
  548TIP3    H225840   3.854   0.703  17.154 -1.2983 -0.1585  0.3686
  549TIP3   OH225841   1.936   3.199  17.999 -0.3608  0.3093 -0.2989
  549TIP3    H125842   2.015   3.149  18.019 -0.6729 -0.4672 -0.9454
  549TIP3    H225843   1.934   3.268  18.065  0.0664 -0.5482  0.6349
  550TIP3   OH225844   3.151   3.691  17.309  0.2571 -0.5114 -0.0378
  550TIP3    H125845   3.190   3.668  17.394  0.2955 -1.4789 -0.3121
  550TIP3    H225846   3.113   3.778  17.324  1.2164 -0.1941  0.6538
  551TIP3   OH225847   6.124   4.012  19.106  0.2890  0.0649 -0.1809
  551TIP3    H125848   6.173   4.031  19.186  0.4082 -1.5355  0.1665
  551TIP3    H225849   6.123   4.095  19.058 -0.9336  1.4446  2.0533
  552TIP3   OH225850   2.850   0.377  19.207 -0.1849 -0.3864  0.1737
  552TIP3    H125851   2.762   0.348  19.234  0.2608 -0.7941  1.2721
  552TIP3    H225852   2.835   0.434  19.132 -1.3837 -0.5468  0.2731
  553TIP3   OH225853   0.410   0.518  19.041  0.0661  0.1557 -0.5148
  553TIP3    H125854   0.488   0.508  19.095  0.1654 -1.1242 -0.8738
  553TIP3    H225855   0.346   0.559  19.100 -0.0646 -1.8501  0.8648
  554TIP3   OH225856   3.723   6.380  18.102  0.7046  0.3963 -0.1559
  554TIP3    H125857   3.765   6.450  18.151  0.5154  1.2792 -1.2213
  554TIP3    H225858   3.645   6.420  18.064  0.4521 -0.4576 -0.5790
  555TIP3   OH225859   4.304   1.677  18.935 -0.4134 -0.0996 -0.5131
  555TIP3    H125860   4.291   1.637  18.849  0.0896 -2.1939  0.3436
  555TIP3    H225861   4.342   1.608  18.989  2.4969  2.1216  0.5114
  556TIP3   OH225862   4.346   2.011  16.795  0.1345  0.6583 -0.7414
  556TIP3    H125863   4.257   2.032  16.821 -0.6187 -3.3798  0.7036
  556TIP3    H225864   4.344   2.012  16.699 -1.9950 -0.7601 -0.7988
  557TIP3   OH225865   3.060   4.961  17.807  0.2558 -0.0027  0.1502
  557TIP3    H125866   3.010   4.886  17.777  0.4461 -0.9690  2.0860
  557TIP3    H225867   3.151   4.938  17.788  0.4632 -1.0225  2.1189
  558TIP3   OH225868   1.005   6.753  17.085 -0.6397 -0.5364  0.0774
  558TIP3    H125869   0.925   6.778  17.039 -0.8070 -0.4818  0.3963
  558TIP3    H225870   1.051   6.697  17.022  1.1665  2.8148 -1.8553
  559TIP3   OH225871   0.652   6.746  19.324 -0.1781 -0.2323  0.0902
  559TIP3    H125872   0.674   6.667  19.374  2.1746 -0.4303 -1.0754
  559TIP3    H225873   0.567   6.727  19.284  0.6773 -2.5689 -0.7969
  560TIP3   OH225874   3.848   4.289  17.776  0.0581 -0.6406 -0.3138
  560TIP3    H125875   3.915   4.262  17.840  0.2523  0.9034  0.1730
  560TIP3    H225876   3.859   4.228  17.703  0.9610 -1.3806  0.4082
  561TIP3   OH225877   3.967   2.846  19.365  0.3926  0.1409 -0.2922
  561TIP3    H125878   3.936   2.936  19.356 -0.8784 -0.2094  0.2482
  561TIP3    H225879   3.933   2.801  19.288  0.8680  0.0745 -0.4668
  562TIP3   OH225880   5.610   6.182  19.276 -0.2652  0.0568  0.2685
  562TIP3    H125881   5.596   6.087  19.281  1.0554 -0.2456 -1.0722
  562TIP3    H225882   5.636   6.207  19.365  0.0402 -0.9615  0.4821
  563TIP3   OH225883   4.398   3.631  19.373  0.2646  0.0586  0.1610
  563TIP3    H125884   4.441   3.585  19.446  1.0187  0.1056 -0.2381
  563TIP3    H225885   4.318   3.582  19.358  0.5641 -0.5240  0.4112
  564TIP3   OH225886   6.283   4.142  19.307  0.4681 -0.1898  0.2657
  564TIP3    H125887   6.218   4.210  19.327  0.2172 -0.0661 -0.8826
  564TIP3    H225888   6.363   4.190  19.287  0.4399 -0.2517 -0.0027
  565TIP3   OH225889   5.058   6.115  17.410  0.2181  0.0953  0.0804
  565TIP3    H125890   4.992   6.046  17.404  0.3682 -0.0008 -0.5405
  565TIP3    H225891   5.037   6.175  17.338  2.0356 -1.0365 -1.4862
  566TIP3   OH225892   3.694   3.097  18.138 -0.2646  0.2912  0.0965
  566TIP3    H125893   3.737   3.174  18.175 -1.7198  0.0115  2.5853
  566TIP3    H225894   3.764   3.031  18.132  0.1842  0.5548  1.8548
  567TIP3   OH225895   3.345   1.574  19.441  0.4140 -0.1960 -0.1093
  567TIP3    H125896   3.321   1.641  19.505  0.4008 -1.5572  1.4024
  567TIP3    H225897   3.264   1.525  19.426  0.9545 -1.4186  0.7879
  568TIP3   OH225898   6.557   4.115  17.890  0.7593 -0.5016  0.4984
  568TIP3    H125899   6.610   4.182  17.934 -1.6072  1.8030  0.1311
  568TIP3    H225900   6.512   4.069  17.961  0.2811  0.2480  0.6992
  569TIP3   OH225901   1.602   5.929  18.234 -0.4427 -0.6637  0.3447
  569TIP3    H125902   1.583   5.881  18.153  1.3243 -1.5194  0.3836
  569TIP3    H225903   1.676   5.986  18.210  0.0446 -0.8692  1.3415
  570TIP3   OH225904   6.537   3.853  19.396  0.0294 -0.1225  0.4008
  570TIP3    H125905   6.527   3.897  19.312  0.2290  1.1011  0.9961
  570TIP3    H225906   6.632   3.844  19.408 -0.0125 -1.4056 -0.0401
  571TIP3   OH225907   6.722   0.239  15.948  0.1097 -0.0484  0.2873
  571TIP3    H125908   6.754   0.292  15.874 -1.0012  0.3701  0.0754
  571TIP3    H225909   6.641   0.284  15.975  0.6821 -0.0030  1.9945
  572TIP3   OH225910   3.859   3.288  18.242  0.0730 -0.5806  0.1720
  572TIP3    H125911   3.881   3.347  18.170 -0.0738  0.3893  0.8886
  572TIP3    H225912   3.944   3.261  18.277  0.1485 -1.3750 -0.6049
  573TIP3   OH225913   0.603   0.622  17.680 -0.0994 -0.4446 -0.2290
  573TIP3    H125914   0.617   0.615  17.586 -0.5692 -0.3675 -0.3064
  573TIP3    H225915   0.638   0.709  17.703 -2.1365  0.5626 -0.7439
  574TIP3   OH225916   0.752   6.611  19.671  0.3716 -0.0872 -0.6725
  574TIP3    H125917   0.783   6.547  19.607  2.1245  1.1818 -1.1585
  574TIP3    H225918   0.831   6.660  19.697 -0.6385  0.8023  0.9058
  575TIP3   OH225919   2.351   0.111  19.886 -0.4341 -0.1617 -0.0046
  575TIP3    H125920   2.395   0.192  19.910  1.8444 -0.6062 -2.1797
  575TIP3    H225921   2.390   0.044  19.942  0.2192 -0.2320 -0.5237
  576TIP3   OH225922   4.822   2.898  18.229  0.1201 -0.4384  0.5092
  576TIP3    H125923   4.871   2.834  18.178  0.1503  0.1197 -0.1759
  576TIP3    H225924   4.866   2.900  18.314  1.2160 -0.0333 -0.0556
  577TIP3   OH225925   0.833   1.202  18.317  0.0395  0.4587 -0.1818
  577TIP3    H125926   0.834   1.122  18.265  2.3546  0.5500 -0.3924
  577TIP3    H225927   0.831   1.272  18.253  1.5181  0.5539 -0.1723
  578TIP3   OH225928   5.944   5.213  19.444  0.1860  0.0900 -0.1845
  578TIP3    H125929   6.012   5.191  19.381 -0.3982  0.6500 -1.0272
  578TIP3    H225930   5.966   5.301  19.474  0.0194  0.1392 -0.2054
  579TIP3   OH225931   2.185   5.080  17.599  0.2411  0.0019 -0.6244
  579TIP3    H125932   2.145   5.148  17.653 -1.2054  0.4770 -2.2218
  579TIP3    H225933   2.180   5.001  17.653  1.1885  0.9341  0.9271
  580TIP3   OH225934   6.571   4.923  18.936  0.0448  0.1726  0.2950
  580TIP3    H125935   6.627   4.960  19.003  1.9458 -1.2050 -0.4390
  580TIP3    H225936   6.568   4.829  18.956  1.0052 -0.3448 -1.7036
  581TIP3   OH225937   1.036   1.541  18.468 -0.2563  0.2603 -0.2457
  581TIP3    H125938   1.032   1.636  18.461 -0.9101  0.2758  0.2181
  581TIP3    H225939   1.018   1.522  18.560  1.9038 -0.2348  0.1121
  582TIP3   OH225940   5.799   4.440  17.103  0.3447  0.0452 -0.1031
  582TIP3    H125941   5.796   4.394  17.020 -0.5043  0.1123 -0.1098
  582TIP3    H225942   5.847   4.521  17.083  2.0737 -0.9141 -0.0284
  583TIP3   OH225943   0.199   1.322  19.681  0.2015 -0.1190  0.6097
  583TIP3    H125944   0.249   1.247  19.649 -0.1017  0.5070 -1.4822
  583TIP3    H225945   0.108   1.300  19.662  0.2600  1.9054 -2.8994
  584TIP3   OH225946   3.812   3.808  18.212  0.1869  0.2089  0.3870
  584TIP3    H125947   3.769   3.862  18.279 -1.5825  0.4726 -0.8841
  584TIP3    H225948   3.757   3.729  18.206 -1.3785  1.3753 -2.6047
  585TIP3   OH225949   5.006   3.565  17.784 -0.2179  0.0871  0.2901
  585TIP3    H125950   5.005   3.471  17.766 -3.7264  0.2958 -1.4884
  585TIP3    H225951   4.963   3.605  17.708  0.3942  3.0668  1.3549
  586TIP3   OH225952   5.125   3.379  18.766 -0.0030 -0.4758  0.3862
  586TIP3    H125953   5.098   3.377  18.674  2.6651  2.5358 -0.6373
  586TIP3    H225954   5.114   3.471  18.792  2.5178 -0.5279  1.9444
  587TIP3   OH225955   0.792   4.268  16.757 -0.2443 -0.7196  0.7159
  587TIP3    H125956   0.887   4.273  16.748 -0.2657 -0.1029  0.7801
  587TIP3    H225957   0.768   4.184  16.716  0.2375 -0.5054 -0.0285
  588TIP3   OH225958   4.038   2.101  17.833 -0.1391 -0.1495  0.5440
  588TIP3    H125959   4.122   2.147  17.830  0.2256 -0.7191  1.6286
  588TIP3    H225960   3.985   2.144  17.765  0.6615  0.9193  0.5691
  589TIP3   OH225961   1.282   4.988  18.125 -0.2916 -0.1378 -0.3045
  589TIP3    H125962   1.210   4.936  18.090 -0.7472 -0.0184  0.4226
  589TIP3    H225963   1.336   5.009  18.049 -0.5177 -1.0145 -0.7150
  590TIP3   OH225964   3.135   2.896  18.892 -0.5475  0.5447  0.3541
  590TIP3    H125965   3.175   2.883  18.978  0.0651  0.5772  0.0822
  590TIP3    H225966   3.076   2.822  18.881 -0.1334  0.1872  0.5290
  591TIP3   OH225967   3.445   4.119  19.670  0.2623 -0.1241  0.0734
  591TIP3    H125968   3.529   4.153  19.698  0.1387 -0.1808  0.5172
  591TIP3    H225969   3.386   4.133  19.744 -0.4416  1.0461 -0.6713
  592TIP3   OH225970   3.784   6.717  17.830 -0.1665 -0.2373  0.0633
  592TIP3    H125971   3.873   6.701  17.861  0.0902  0.2233 -0.4308
  592TIP3    H225972   3.730   6.707  17.908  0.3425 -0.2673  0.4181
  593TIP3   OH225973   3.766   5.044  17.028  1.0225  0.0050  0.5144
  593TIP3    H125974   3.781   4.950  17.023  0.0683 -0.1324  0.0759
  593TIP3    H225975   3.720   5.058  17.110  0.0071 -0.0861 -0.0237
  594TIP3   OH225976   5.207   0.735  16.952 -0.3526  0.7259 -0.2153
  594TIP3    H125977   5.228   0.647  16.921  1.8197  1.3411 -0.6332
  594TIP3    H225978   5.143   0.769  16.889 -0.7100 -0.3098 -0.4199
  595TIP3   OH225979   1.507   2.332  19.372  0.0653  0.4519 -0.2983
  595TIP3    H125980   1.549   2.367  19.294  0.2336  1.2082  0.1241
  595TIP3    H225981   1.558   2.255  19.395 -0.5284 -0.3048 -1.4508
  596TIP3   OH225982   6.507   3.614  19.974 -0.5234 -0.8494  0.1120
  596TIP3    H125983   6.547   3.641  19.891 -1.4801  0.5135  0.0693
  596TIP3    H225984   6.418   3.587  19.950 -0.4603 -1.4821  0.5609
  597TIP3   OH225985   2.254   5.849  18.733 -0.2010 -0.1139 -0.0719
  597TIP3    H125986   2.202   5.925  18.707 -0.9739 -0.2853  0.9272
  597TIP3    H225987   2.340   5.884  18.754 -0.6853  0.5592  0.8250
  598TIP3   OH225988   1.545   3.149  18.587  0.8118 -0.1128  0.5195
  598TIP3    H125989   1.512   3.239  18.594  0.3736 -0.2519  0.2689
  598TIP3    H225990   1.467   3.095  18.581  1.0783 -0.3781 -0.9614
  599TIP3   OH225991   3.282   6.690  19.129  0.0976 -0.0150 -0.2570
  599TIP3    H125992   3.361   6.737  19.101  0.7102 -1.3048 -0.7820
  599TIP3    H225993   3.210   6.742  19.093  0.8014 -0.3064 -2.2366
  600TIP3   OH225994   0.195   2.984  17.914 -0.2651 -0.4094  0.5637
  600TIP3    H125995   0.138   3.004  17.840 -0.1148 -1.1824  0.2220
  600TIP3    H225996   0.280   3.020  17.889 -0.3463 -0.1930  0.5999
  601TIP3   OH225997   0.705   1.962  17.177  0.2240  0.5708 -0.1430
  601TIP3    H125998   0.669   1.995  17.095 -0.3613 -0.2792 -0.2416
  601TIP3    H225999   0.657   1.881  17.193  1.1670  0.1108  0.4275
  602TIP3   OH226000   5.233   6.184  16.502  0.1357  0.2747  0.5782
  602TIP3    H126001   5.323   6.157  16.484 -0.1913 -1.6686  1.5693
  602TIP3    H226002   5.228   6.188  16.598 -1.2166 -1.3489  0.6410
  603TIP3   OH226003   5.648   3.368  17.551  0.2353 -0.2539 -0.0788
  603TIP3    H126004   5.563   3.411  17.561  0.4204  0.6890 -2.0593
  603TIP3    H226005   5.643   3.291  17.607 -0.7359  1.4186  2.3268
  604TIP3   OH226006   0.033   5.493  19.145  0.0317 -0.4353  0.1971
  604TIP3    H126007   0.014   5.489  19.238  0.4047 -0.5193  0.2687
  604TIP3    H226008   0.122   5.459  19.136  0.3752  0.5062 -0.0740
  605TIP3   OH226009   5.292   0.995  17.359  0.3140  0.2715  0.2928
  605TIP3    H126010   5.322   0.996  17.268  2.2945  0.6111  0.9113
  605TIP3    H226011   5.231   0.921  17.363 -0.6900  0.9257 -1.5432
  606TIP3   OH226012   2.164   2.209  17.841  0.2807  0.4393  0.1461
  606TIP3    H126013   2.189   2.296  17.874 -1.0457  0.4164  1.2777
  606TIP3    H226014   2.143   2.159  17.919 -1.3629 -0.1262 -0.6152
  607TIP3   OH226015   2.101   4.524  18.198  0.2173  0.5072 -0.3768
  607TIP3    H126016   2.052   4.506  18.118 -0.6111  0.8307  0.0466
  607TIP3    H226017   2.057   4.472  18.265 -0.8187  2.2797  0.4095
  608TIP3   OH226018   1.292   4.438  19.583  0.4449 -0.6497 -0.0359
  608TIP3    H126019   1.373   4.472  19.619  0.5894  0.1902 -1.1047
  608TIP3    H226020   1.258   4.379  19.651  0.1795  1.6076  1.9241
  609TIP3   OH226021   0.666   2.639  17.841  0.0901 -0.9518 -0.5184
  609TIP3    H126022   0.627   2.656  17.755 -1.2094 -0.3989  0.1456
  609TIP3    H226023   0.598   2.665  17.903  1.6351  0.3080  0.7254
  610TIP3   OH226024   1.404   1.639  19.718 -0.1419  0.8949  0.4953
  610TIP3    H126025   1.435   1.557  19.680 -0.9657  0.4531  0.7651
  610TIP3    H226026   1.438   1.707  19.659 -0.7592  0.2716 -0.6105
  611TIP3   OH226027   4.310   4.299  16.798 -0.0872  0.0611  0.0674
  611TIP3    H126028   4.365   4.349  16.857 -0.1472 -1.0588  1.1125
  611TIP3    H226029   4.221   4.333  16.812 -0.1223 -0.2998  0.7460
  612TIP3   OH226030   1.128   2.439  19.083  0.1585 -0.4781 -0.2151
  612TIP3    H126031   1.197   2.502  19.103  0.3068  0.2078 -2.5404
  612TIP3    H226032   1.162   2.356  19.115  0.9205  0.2519  0.9685
  613TIP3   OH226033   0.710   2.446  19.564 -0.1492 -0.7735  0.1275
  613TIP3    H126034   0.688   2.396  19.485  0.8638 -0.4221 -0.3984
  613TIP3    H226035   0.800   2.477  19.549  0.7187 -2.0712  2.1203
  614TIP3   OH226036   4.389   2.725  17.357 -0.1089 -0.0882  0.4188
  614TIP3    H126037   4.368   2.732  17.264 -0.1362  0.1944  0.4483
  614TIP3    H226038   4.317   2.769  17.401  0.8865  1.5540  0.4966
  615TIP3   OH226039   0.256   5.345  19.021 -0.5867  0.1531  0.3548
  615TIP3    H126040   0.289   5.399  18.950 -0.4600 -1.5308 -0.9202
  615TIP3    H226041   0.193   5.286  18.980  1.4304 -2.7060  1.0360
  616TIP3   OH226042   6.738   0.384  17.202  0.0798 -0.2293 -0.3538
  616TIP3    H126043   6.832   0.381  17.184  0.1193 -1.1779 -0.0308
  616TIP3    H226044   6.697   0.357  17.120  0.0497  0.9635 -0.7452
  617TIP3   OH226045   0.803   0.787  16.215  0.2963 -0.3747 -0.9598
  617TIP3    H126046   0.759   0.871  16.219  0.5049 -0.2474 -1.2833
  617TIP3    H226047   0.792   0.758  16.124  0.7576 -0.4009 -1.0142
  618TIP3   OH226048   2.414   5.971  17.351  0.3480  0.3971  0.4271
  618TIP3    H126049   2.332   5.929  17.375  0.2573 -0.4550 -1.1989
  618TIP3    H226050   2.454   5.997  17.434 -1.0094 -0.2310  1.2989
  619TIP3   OH226051   3.015   2.392  19.286 -0.6470 -0.1153 -0.3535
  619TIP3    H126052   3.027   2.297  19.287 -2.9695 -0.4655  0.4819
  619TIP3    H226053   2.937   2.406  19.231 -2.3276  0.9452  2.0921
  620TIP3   OH226054   0.035   4.098  19.592 -0.0469  0.4956 -0.1132
  620TIP3    H126055   0.036   4.130  19.502 -0.5560  0.2956 -0.1961
  620TIP3    H226056  -0.024   4.157  19.638  1.0893  1.2903  0.3668
  621TIP3   OH226057   3.763   1.571  17.841 -0.1633  0.2601 -0.1353
  621TIP3    H126058   3.708   1.548  17.766  1.0768  0.6316 -1.1961
  621TIP3    H226059   3.765   1.492  17.895  1.6917 -1.2708 -2.2501
  622TIP3   OH226060   5.635   1.355  19.791  0.1169 -0.3618  0.0242
  622TIP3    H126061   5.552   1.386  19.827  0.3068 -1.5415  1.5509
  622TIP3    H226062   5.693   1.431  19.796 -1.1043  0.8406 -2.1211
  623TIP3   OH226063   1.923   3.440  17.318 -0.3860 -0.4836  0.7311
  623TIP3    H126064   1.939   3.496  17.393  2.5445  1.8695 -1.4311
  623TIP3    H226065   1.992   3.374  17.321  0.2996  0.1592 -0.3083
  624TIP3   OH226066   4.588   4.776  17.226  0.2789 -0.1082 -0.5626
  624TIP3    H126067   4.522   4.731  17.174 -1.2070  0.1320  1.0257
  624TIP3    H226068   4.662   4.716  17.230  0.1270 -0.4350 -2.2848
  625TIP3   OH226069   3.698   1.894  17.672 -0.0225 -0.0399  0.5705
  625TIP3    H126070   3.714   1.871  17.763  1.5977 -0.4383  0.2143
  625TIP3    H226071   3.764   1.961  17.652 -0.3021 -0.0206 -0.3260
  626TIP3   OH226072   6.487   0.842  19.203 -0.5953 -0.0983 -0.8124
  626TIP3    H126073   6.480   0.747  19.206  0.3845 -0.1731  2.0214
  626TIP3    H226074   6.577   0.859  19.176 -0.5551  0.0109 -0.6122
  627TIP3   OH226075   5.704   4.751  19.061  0.1967  0.5534 -0.5366
  627TIP3    H126076   5.714   4.836  19.103  0.7980  1.1689 -1.8690
  627TIP3    H226077   5.793   4.714  19.062 -0.0141  0.0316 -0.1974
  628TIP3   OH226078   0.720   1.735  19.871 -0.0718  0.0365  1.0752
  628TIP3    H126079   0.804   1.719  19.829  1.3317  3.0647  2.4322
  628TIP3    H226080   0.658   1.679  19.824  2.0014  0.4312 -2.4313
  629TIP3   OH226081   2.418   4.587  19.910  0.3412 -0.2832 -0.2537
  629TIP3    H126082   2.458   4.559  19.992  0.1531 -3.4536 -1.0875
  629TIP3    H226083   2.325   4.565  19.920 -0.0878  1.3183 -0.5526
  630TIP3   OH226084   6.638   3.116  17.333 -0.5567 -0.2567  0.1773
  630TIP3    H126085   6.687   3.169  17.396 -0.3984  1.7964 -1.5879
  630TIP3    H226086   6.696   3.042  17.315  0.7918  0.7811  0.0783
  631TIP3   OH226087   5.651   5.347  18.731  0.7743  0.0506  0.3602
  631TIP3    H126088   5.562   5.326  18.706 -0.1584  0.5524  2.9336
  631TIP3    H226089   5.700   5.265  18.718 -0.1904 -0.4105 -0.4771
  632TIP3   OH226090   5.393   2.282  16.888 -0.0645 -0.4872 -0.1019
  632TIP3    H126091   5.474   2.332  16.900  0.5046 -1.0745 -1.3695
  632TIP3    H226092   5.350   2.323  16.813 -1.3233  0.2628  0.9737
  633TIP3   OH226093   3.566   0.048  19.012  0.6798 -0.1491 -0.4025
  633TIP3    H126094   3.543   0.129  19.058  2.1042  0.5930 -0.9285
  633TIP3    H226095   3.615  -0.003  19.077 -0.5290 -0.7758  0.0442
  634TIP3   OH226096   2.342   0.420  16.740 -0.2946  0.1544  0.1147
  634TIP3    H126097   2.279   0.353  16.764 -0.2631 -0.1621 -0.6735
  634TIP3    H226098   2.423   0.395  16.786 -0.6713  0.4677  0.9842
  635TIP3   OH226099   1.703   4.477  17.518  0.7596 -0.3328 -0.0011
  635TIP3    H126100   1.710   4.456  17.611  0.2709 -2.8519 -0.4760
  635TIP3    H226101   1.794   4.478  17.487  0.8076 -3.7006 -0.2731
  636TIP3   OH226102   5.995   6.176  18.641  0.0082 -0.3884  0.2799
  636TIP3    H126103   6.057   6.244  18.612 -0.9554 -0.5691 -2.4951
  636TIP3    H226104   6.049   6.113  18.688  1.5483  0.5720 -0.1166
  637TIP3   OH226105   3.240   6.065  19.466  0.1170 -0.0260 -0.5438
  637TIP3    H126106   3.199   5.983  19.436 -2.7021  1.0314  0.0548
  637TIP3    H226107   3.241   6.057  19.562 -0.4917  0.7481 -0.4641
  638TIP3   OH226108   1.525   0.568  17.519  0.0577  0.3083 -0.1617
  638TIP3    H126109   1.580   0.567  17.440  0.3381  2.2369 -0.0424
  638TIP3    H226110   1.445   0.613  17.492  0.2120  1.1053  0.6508
  639TIP3   OH226111   3.330   3.425  18.407  0.2690  0.2469  0.2592
  639TIP3    H126112   3.354   3.496  18.347 -1.0244  0.6680  0.2208
  639TIP3    H226113   3.368   3.346  18.367 -2.0384  0.2121 -2.1367
  640TIP3   OH226114   1.112   0.174  18.845  0.5184  0.2236 -0.7106
  640TIP3    H126115   1.106   0.098  18.787 -0.8266  0.8758 -1.4842
  640TIP3    H226116   1.154   0.141  18.924  0.4630 -1.1923 -1.2456
  641TIP3   OH226117   0.158   5.166  17.217 -0.4899  0.3446 -0.2446
  641TIP3    H126118   0.069   5.189  17.242  0.2011  2.0558  0.8334
  641TIP3    H226119   0.157   5.071  17.208 -2.4932  0.3683 -0.6085
  642TIP3   OH226120   3.704   5.714  17.845 -0.1116  0.1236  0.4241
  642TIP3    H126121   3.702   5.787  17.908  0.6961  0.2093  0.3629
  642TIP3    H226122   3.778   5.661  17.873 -0.2926 -0.3181  0.0669
  643TIP3   OH226123   5.597   0.896  18.432 -0.0513 -0.7444 -0.1381
  643TIP3    H126124   5.598   0.978  18.382  0.2147 -0.7841 -0.2008
  643TIP3    H226125   5.630   0.831  18.371  0.5974 -0.7313  0.1928
  644TIP3   OH226126   1.820   2.148  18.988  0.1688  0.3987 -0.1558
  644TIP3    H126127   1.861   2.082  19.044  1.5920  0.5260 -1.0160
  644TIP3    H226128   1.888   2.173  18.925 -0.9340  1.3196 -1.0332
  645TIP3   OH226129   4.019   6.719  17.304  0.0739 -0.1765 -0.4751
  645TIP3    H126130   3.934   6.764  17.299  0.7208  1.0066 -1.2294
  645TIP3    H226131   4.063   6.741  17.222  0.5948 -1.9068 -0.7070
  646TIP3   OH226132   3.636   0.568  19.484  0.3595 -0.2187 -0.0738
  646TIP3    H126133   3.690   0.643  19.511  0.7059 -0.7769  0.8387
  646TIP3    H226134   3.582   0.602  19.413  1.3417  0.5754 -0.4600
  647TIP3   OH226135   1.846   6.707  17.560  0.2125 -0.4871 -0.0048
  647TIP3    H126136   1.886   6.663  17.635  2.3693  1.8689  0.3536
  647TIP3    H226137   1.764   6.744  17.595  0.4913 -0.6317  0.8223
  648TIP3   OH226138   4.536   6.378  19.727  0.1678  0.2973  0.4407
  648TIP3    H126139   4.579   6.433  19.661  1.0407 -0.7109  0.1481
  648TIP3    H226140   4.474   6.437  19.770 -0.2817  1.0265 -1.1374
  649TIP3   OH226141   6.377   3.646  17.442  0.0037  0.0405 -0.0822
  649TIP3    H126142   6.299   3.642  17.386  0.2277  1.2187 -0.5000
  649TIP3    H226143   6.352   3.599  17.521 -0.3610 -1.5940 -1.1133
  650TIP3   OH226144   0.380   1.060  17.104  0.0355 -0.0192  0.3430
  650TIP3    H126145   0.293   1.085  17.135  0.5596  1.3365  0.8180
  650TIP3    H226146   0.381   1.089  17.012  0.6634  1.9173  0.9111
  651TIP3   OH226147   3.878   1.514  16.940  0.3338  0.1014  0.6763
  651TIP3    H126148   3.838   1.569  16.874  0.1220 -0.7677  0.0665
  651TIP3    H226149   3.972   1.525  16.926  0.2972 -0.6343 -0.2636
  652TIP3   OH226150   2.470   5.938  19.516  0.2393 -0.1673 -0.4043
  652TIP3    H126151   2.540   5.998  19.491 -0.1771 -0.2358 -1.8216
  652TIP3    H226152   2.403   5.950  19.449 -1.9674  1.2343  1.8709
  653TIP3   OH226153   5.914   1.268  18.344  0.4311 -0.7216 -0.4507
  653TIP3    H126154   5.860   1.315  18.280  0.3689 -0.4656 -0.2149
  653TIP3    H226155   5.856   1.255  18.419  0.8442  0.0223  0.0130
  654TIP3   OH226156   5.402   1.492  19.887 -0.2281  0.0216 -0.3204
  654TIP3    H126157   5.318   1.446  19.888 -0.0122 -0.3715  0.2075
  654TIP3    H226158   5.399   1.550  19.963  0.6663 -1.2828  0.7695
  655TIP3   OH226159   6.095   6.133  19.144  0.5036  0.0263  0.2665
  655TIP3    H126160   6.043   6.080  19.084 -2.8564  3.5289 -0.3373
  655TIP3    H226161   6.068   6.105  19.231  0.3308 -0.5955  0.0158
  656TIP3   OH226162   6.661   5.477  16.633 -0.4000 -0.3111 -0.2339
  656TIP3    H126163   6.585   5.500  16.580 -0.4487 -0.5477 -0.2691
  656TIP3    H226164   6.633   5.400  16.682 -0.7470  0.5731  0.9919
  657TIP3   OH226165   1.326   1.144  19.548  0.0403 -0.8345 -0.2064
  657TIP3    H126166   1.260   1.099  19.601 -1.2705 -0.5809 -1.5660
  657TIP3    H226167   1.302   1.124  19.458  2.1588 -1.1621 -0.7505
  658TIP3   OH226168   5.927   0.752  16.925 -0.5057  0.3535  0.0240
  658TIP3    H126169   5.876   0.806  16.864  0.5505  0.4664 -0.7830
  658TIP3    H226170   5.997   0.810  16.956 -0.9214  0.2351  1.2144
  659TIP3   OH226171   6.696   0.987  16.493 -0.0794  0.2984  0.1146
  659TIP3    H126172   6.668   0.930  16.421  0.3659  0.0063  0.1660
  659TIP3    H226173   6.617   1.031  16.522 -0.7939 -1.6333  1.2758
  660TIP3   OH226174   0.218   2.396  19.236  0.3579  0.3229 -0.7162
  660TIP3    H126175   0.186   2.377  19.324 -1.1353 -0.9188 -1.4914
  660TIP3    H226176   0.311   2.415  19.248  0.5143 -1.2662  0.9372
  661TIP3   OH226177   5.361   1.228  19.301  0.6245  0.5866  0.0009
  661TIP3    H126178   5.406   1.224  19.386  0.3660  0.3690  0.1273
  661TIP3    H226179   5.286   1.285  19.316  0.7641  0.8183 -0.1682
  662TIP3   OH226180   1.970   2.159  17.189 -0.3429  0.0975 -0.2393
  662TIP3    H126181   1.975   2.255  17.184 -0.2451  0.0873 -0.3727
  662TIP3    H226182   2.057   2.130  17.160 -0.5079 -0.0434 -0.6006
  663TIP3   OH226183   1.292   0.409  16.651  0.5456  0.5682 -0.2184
  663TIP3    H126184   1.246   0.432  16.570 -1.1765 -0.1360  0.5069
  663TIP3    H226185   1.321   0.319  16.637 -0.4694  0.1615  0.2354
  664TIP3   OH226186   6.224   2.275  17.685 -0.4978  0.0219  0.9702
  664TIP3    H126187   6.173   2.196  17.704 -0.0678 -0.3266  0.6934
  664TIP3    H226188   6.296   2.273  17.749 -0.0030 -0.2691  0.4228
  665TIP3   OH226189   1.649   5.904  17.957  0.2173  0.1338 -0.4696
  665TIP3    H126190   1.616   5.816  17.936  0.3419  0.3546 -1.6351
  665TIP3    H226191   1.742   5.891  17.974  0.4167  0.1435 -1.4688
  666TIP3   OH226192   5.998   5.396  17.692 -0.7277 -0.6416  0.0023
  666TIP3    H126193   6.092   5.388  17.710 -0.6365  0.3364  0.0139
  666TIP3    H226194   5.985   5.348  17.611 -0.1358 -0.4230 -0.2284
  667TIP3   OH226195   3.427   0.055  17.041  0.5676 -0.7114 -0.0585
  667TIP3    H126196   3.409   0.067  16.948  3.4048  1.1670 -0.5073
  667TIP3    H226197   3.381  -0.025  17.065 -0.1502 -1.3148 -3.1033
  668TIP3   OH226198   6.796   1.669  17.220 -0.0134 -0.6227 -0.8835
  668TIP3    H126199   6.771   1.596  17.163  1.9497 -1.9777 -0.1130
  668TIP3    H226200   6.811   1.629  17.305 -3.0508  1.3716  0.7717
  669TIP3   OH226201   2.175   2.329  18.934 -0.0523 -0.8050 -0.5805
  669TIP3    H126202   2.257   2.375  18.916  0.0450 -0.4504  0.6496
  669TIP3    H226203   2.202   2.248  18.977 -0.3048 -1.2488 -1.2421
  670TIP3   OH226204   1.170   1.451  19.285 -0.3147 -0.1278  0.0503
  670TIP3    H126205   1.134   1.501  19.212 -0.4335 -1.2104 -0.6632
  670TIP3    H226206   1.238   1.507  19.321 -0.0656  0.3351 -1.0782
  671TIP3   OH226207   2.655   6.746  19.419 -0.1037  0.2216 -0.2491
  671TIP3    H126208   2.592   6.771  19.486 -3.1598  1.1320 -3.1423
  671TIP3    H226209   2.634   6.655  19.399  0.7036 -0.0143 -0.0502
  672TIP3   OH226210   4.295   4.789  18.311 -0.4254 -0.2276 -0.0574
  672TIP3    H126211   4.333   4.848  18.246 -0.6449  0.5164  0.4769
  672TIP3    H226212   4.352   4.798  18.388 -0.6352 -0.4913  0.1297
  673TIP3   OH226213   3.798   5.829  17.001 -0.2768 -0.2594  0.1647
  673TIP3    H126214   3.832   5.741  16.985  2.1433 -0.0649  3.3305
  673TIP3    H226215   3.856   5.887  16.952  0.0278 -0.2778  0.5022
  674TIP3   OH226216   4.218   4.193  17.325 -0.5211  0.7267 -0.0199
  674TIP3    H126217   4.273   4.185  17.247  0.9619 -0.6155  1.1111
  674TIP3    H226218   4.147   4.131  17.311  0.0808  0.0338 -0.0449
  675TIP3   OH226219   1.904   6.127  18.827  0.3845  0.0528 -0.1902
  675TIP3    H126220   1.962   6.120  18.902  1.1256  2.0613 -0.5319
  675TIP3    H226221   1.869   6.216  18.831  0.7929  0.3841 -2.4361
  676TIP3   OH226222   1.941   2.266  19.922  0.4006  0.6205 -0.4440
  676TIP3    H126223   1.962   2.198  19.985  1.0006  1.7048  0.5555
  676TIP3    H226224   1.849   2.287  19.938 -0.4227 -1.3706 -2.1670
  677TIP3   OH226225   2.537   0.669  17.720  0.2514  0.7164 -0.6453
  677TIP3    H126226   2.575   0.592  17.678  0.2583  0.4931 -0.2288
  677TIP3    H226227   2.533   0.734  17.650 -1.1768 -0.1403 -1.4154
  678TIP3   OH226228   4.191   5.396  17.733 -0.2231  0.0248 -0.2352
  678TIP3    H126229   4.113   5.348  17.761 -1.1076  0.4322 -1.8809
  678TIP3    H226230   4.163   5.487  17.727  1.0600  0.6054  1.4635
  679TIP3   OH226231   6.361   5.856  19.766  0.3461  0.5616  0.1522
  679TIP3    H126232   6.357   5.893  19.678  0.4870 -0.2597 -0.2153
  679TIP3    H226233   6.454   5.857  19.789  0.2505  1.2833  0.5199
  680TIP3   OH226234   4.350   6.343  17.300  0.0642  0.0314 -0.4108
  680TIP3    H126235   4.297   6.396  17.241 -0.7547 -1.2155 -0.8572
  680TIP3    H226236   4.298   6.264  17.314  1.4916 -0.9371 -0.2852
  681TIP3   OH226237   5.626   6.032  17.025 -0.4303 -0.4248 -0.1484
  681TIP3    H126238   5.676   5.950  17.021  2.0543  1.0132 -3.7203
  681TIP3    H226239   5.681   6.091  17.076  0.5363  0.5114 -2.1816
  682TIP3   OH226240   3.977   4.294  19.790 -0.0502 -0.2085  0.3093
  682TIP3    H126241   3.978   4.209  19.835  2.5511 -0.7491 -0.5892
  682TIP3    H226242   4.017   4.354  19.853  0.7943 -0.3213 -0.0963
  683TIP3   OH226243   3.585   5.225  17.479 -0.0088  0.0345  0.4431
  683TIP3    H126244   3.523   5.295  17.502 -1.4852 -0.8342 -0.6806
  683TIP3    H226245   3.562   5.153  17.538  0.4347 -0.0608  0.5025
  684TIP3   OH226246   6.326   2.672  18.471 -0.7978 -0.2537  0.6594
  684TIP3    H126247   6.309   2.766  18.476 -0.0575 -0.1949  2.4330
  684TIP3    H226248   6.361   2.659  18.383 -1.6442  0.9857  0.1058
  685TIP3   OH226249   1.228   1.948  16.854  0.1177 -0.2262 -0.1986
  685TIP3    H126250   1.317   1.936  16.821  1.2355  0.8978  2.1723
  685TIP3    H226251   1.192   2.018  16.800  0.5880 -0.7960 -1.2851
  686TIP3   OH226252   4.005   1.788  19.223  0.1032 -0.6241 -0.5414
  686TIP3    H126253   4.044   1.723  19.281 -0.8687 -0.6236  0.1336
  686TIP3    H226254   3.912   1.763  19.218  0.3542 -1.3848 -3.1141
  687TIP3   OH226255   4.172   4.121  18.588  0.0823 -0.3822 -0.0455
  687TIP3    H126256   4.193   4.204  18.545 -0.5933 -0.1989 -0.0301
  687TIP3    H226257   4.166   4.058  18.517 -0.6415 -0.1602 -0.1900
  688TIP3   OH226258   3.934   5.920  19.653  0.5463  0.1442  0.1452
  688TIP3    H126259   3.997   5.975  19.607  1.1582 -1.3508 -0.8690
  688TIP3    H226260   3.869   5.897  19.588 -1.0935  1.6152  1.1695
  689TIP3   OH226261   4.545   1.741  17.544  0.0310 -0.3715 -0.4785
  689TIP3    H126262   4.587   1.793  17.476 -0.3479  0.7559  0.1277
  689TIP3    H226263   4.459   1.781  17.556  0.2278 -0.3070  0.9101
  690TIP3   OH226264   4.922   1.469  18.707  0.2113 -0.1969  0.0062
  690TIP3    H126265   4.846   1.431  18.663 -0.3133  1.4777 -0.6120
  690TIP3    H226266   4.899   1.469  18.800 -0.8969  0.9895 -0.2480
  691TIP3   OH226267   6.199   4.185  16.966 -0.5776 -0.5131  0.2673
  691TIP3    H126268   6.291   4.163  16.949 -1.1932 -1.2053 -2.7097
  691TIP3    H226269   6.203   4.247  17.038  1.8989 -3.6627  3.1912
  692TIP3   OH226270   0.227   2.435  18.282 -0.3710  0.8726 -0.0205
  692TIP3    H126271   0.251   2.504  18.344  0.3412 -1.1474  2.1242
  692TIP3    H226272   0.302   2.375  18.285 -2.0440 -1.3082  0.2825
  693TIP3   OH226273   2.923   0.211  18.412 -0.7749  0.0610  0.6513
  693TIP3    H126274   2.944   0.236  18.501 -0.4010  1.4067  0.2048
  693TIP3    H226275   2.874   0.129  18.421  0.6376 -0.6871  1.9789
  694TIP3   OH226276   5.431   5.467  17.014  0.4631  0.5447  0.2488
  694TIP3    H126277   5.481   5.416  16.950  0.7598 -0.8096  1.4988
  694TIP3    H226278   5.435   5.415  17.094 -2.5086  0.6383  0.5616
  695TIP3   OH226279   6.013   4.499  19.065  0.4315 -0.3759 -0.0741
  695TIP3    H126280   6.015   4.591  19.040  1.7805  0.0837  1.5062
  695TIP3    H226281   6.078   4.492  19.135 -0.5980 -2.2562  0.7826
  696TIP3   OH226282   3.019   0.636  19.079 -0.1427  0.0057 -0.3370
  696TIP3    H126283   3.065   0.555  19.059 -1.5081 -1.0548  0.5887
  696TIP3    H226284   3.053   0.700  19.016  1.9863 -0.8841 -0.1742
  697TIP3   OH226285   3.271   5.499  18.778 -0.1297 -0.0388  0.2611
  697TIP3    H126286   3.196   5.558  18.790 -1.4371 -1.4685 -0.4451
  697TIP3    H226287   3.283   5.458  18.863  2.0048  2.5133  1.2999
  698TIP3   OH226288   1.606   1.893  17.885 -0.1823  0.0141 -0.1221
  698TIP3    H126289   1.532   1.845  17.923  0.2077 -0.5481 -0.0471
  698TIP3    H226290   1.667   1.904  17.958 -0.1491  0.3884 -0.2057
  699TIP3   OH226291   1.953   3.360  18.687  0.4100  0.3627 -0.4640
  699TIP3    H126292   1.971   3.399  18.601  0.2700  0.6133 -0.3794
  699TIP3    H226293   2.030   3.383  18.740 -0.2564  1.6447 -0.0275
  700TIP3   OH226294   1.922   5.372  18.062  0.2314  0.3711 -0.3372
  700TIP3    H126295   2.015   5.386  18.080  0.3311  1.4281 -1.5482
  700TIP3    H226296   1.876   5.423  18.128  0.5407  1.2876 -0.8220
  701TIP3   OH226297   5.241   4.525  16.698 -0.5781  0.2012 -0.1006
  701TIP3    H126298   5.257   4.602  16.643  0.2881 -0.2136 -0.4581
  701TIP3    H226299   5.146   4.517  16.701 -0.6555  0.1198 -1.7314
  702TIP3   OH226300   6.404   1.069  19.323 -0.7153 -0.0618  0.2769
  702TIP3    H126301   6.443   0.992  19.282 -1.7880  0.4236 -1.8187
  702TIP3    H226302   6.370   1.038  19.407  1.0455 -1.2570  0.5885
  703TIP3   OH226303   2.588   6.331  18.154 -0.1263 -0.0276 -0.4375
  703TIP3    H126304   2.579   6.274  18.231 -0.4325 -0.2240 -0.6166
  703TIP3    H226305   2.677   6.316  18.123 -0.0010  0.0494 -0.1214
  704TIP3   OH226306   6.135   2.188  19.530 -0.1124  0.4409  0.0145
  704TIP3    H126307   6.130   2.259  19.594 -0.5747  0.0599  0.4196
  704TIP3    H226308   6.065   2.128  19.557 -1.5879  1.1564 -1.9546
  705TIP3   OH226309   0.025   3.693  18.346 -0.7594 -0.3234 -0.3138
  705TIP3    H126310  -0.021   3.629  18.401 -1.6831  1.6707  1.3670
  705TIP3    H226311  -0.041   3.723  18.284 -0.8730  0.3633  0.1373
  706TIP3   OH226312   0.706   4.312  17.280  0.1627 -0.2878  0.0778
  706TIP3    H126313   0.750   4.363  17.348  0.5450 -0.9740  0.3530
  706TIP3    H226314   0.776   4.286  17.221  0.1511 -1.4142  0.5378
  707TIP3   OH226315   3.961   2.557  16.777 -0.1238 -0.2505 -0.4326
  707TIP3    H126316   3.926   2.555  16.687 -0.0294  0.1532 -0.4781
  707TIP3    H226317   4.027   2.487  16.778 -0.1532 -0.2837 -0.6664
  708TIP3   OH226318   5.647   1.390  16.529 -0.6227 -0.3371  0.1959
  708TIP3    H126319   5.685   1.395  16.441  0.5680  1.4947  0.7522
  708TIP3    H226320   5.571   1.448  16.526 -1.5583 -1.5428 -0.0435
  709TIP3   OH226321   2.145   4.545  18.913 -0.2797 -0.2372  0.1751
  709TIP3    H126322   2.228   4.567  18.870  0.6352 -1.4047  1.2684
  709TIP3    H226323   2.098   4.493  18.849 -0.9367  1.7853 -1.0884
  710TIP3   OH226324   0.624   0.423  16.960 -0.3173  0.0431  0.4204
  710TIP3    H126325   0.570   0.468  16.895  1.0484  1.4832  0.2253
  710TIP3    H226326   0.597   0.461  17.044  1.2762  1.7855  0.1973
  711TIP3   OH226327   3.099   0.894  16.618 -0.0897  0.2656  0.6793
  711TIP3    H126328   3.012   0.858  16.634  0.4512 -0.4812  2.1501
  711TIP3    H226329   3.098   0.980  16.660 -0.1046  0.2345  0.7432
  712TIP3   OH226330   1.883   5.003  16.916  0.2010 -0.3125  0.0474
  712TIP3    H126331   1.919   5.028  17.001  0.8747 -0.1725 -0.2685
  712TIP3    H226332   1.922   4.918  16.897  0.4051 -0.1386 -0.3225
  713TIP3   OH226333   3.199   4.456  17.903 -0.1832  0.1526 -0.3066
  713TIP3    H126334   3.216   4.363  17.917 -0.0485  0.1048 -0.7800
  713TIP3    H226335   3.286   4.494  17.888 -0.1464  0.5087  0.7701
  714TIP3   OH226336   2.943   6.469  19.759 -0.3929 -0.1019 -0.2817
  714TIP3    H126337   2.996   6.480  19.680  1.2196  1.4052  0.9301
  714TIP3    H226338   2.894   6.388  19.744  0.6082 -0.3854 -2.3918
  715TIP3   OH226339   4.155   3.490  19.099  0.0181  0.1387 -0.2631
  715TIP3    H126340   4.108   3.409  19.116 -0.7439  0.8071  0.9422
  715TIP3    H226341   4.208   3.504  19.178  1.7424 -0.2298 -1.2904
  716TIP3   OH226342   4.414   5.584  17.226  0.6979 -0.3768 -0.1357
  716TIP3    H126343   4.328   5.617  17.199  1.0887  1.1654  0.3960
  716TIP3    H226344   4.400   5.547  17.313  0.3954 -0.9595 -0.4305
  717TIP3   OH226345   1.972   5.005  16.644  0.3460  0.2429  0.3322
  717TIP3    H126346   1.951   5.048  16.726 -0.3560 -1.0871  0.8751
  717TIP3    H226347   1.974   4.911  16.665  4.5569  0.0235 -0.1476
  718TIP3   OH226348   1.210   0.607  18.640  0.2116 -0.4227  0.2983
  718TIP3    H126349   1.164   0.675  18.592  0.1201  0.0765  1.0673
  718TIP3    H226350   1.303   0.628  18.630  0.2189 -0.6786 -0.1729
  719TIP3   OH226351   0.847   1.022  18.116  0.3028 -0.2017 -0.3201
  719TIP3    H126352   0.854   0.936  18.158  1.3908  0.0667  0.0985
  719TIP3    H226353   0.759   1.024  18.081  0.0438 -1.2475  0.2048
  720TIP3   OH226354   6.649   0.056  16.952 -0.2868 -0.3731 -0.0928
  720TIP3    H126355   6.567   0.075  16.997 -0.5021 -0.4543 -0.4448
  720TIP3    H226356   6.708   0.024  17.020  0.0662  1.4494  0.5081
  721TIP3   OH226357   4.087   6.187  18.385  0.1093  0.2651  0.0637
  721TIP3    H126358   4.124   6.242  18.315  0.7498  0.1396  0.2993
  721TIP3    H226359   4.094   6.241  18.464  0.9238 -0.2122  0.3346
  722TIP3   OH226360   3.267   6.776  19.469  0.1480  0.0326  0.0088
  722TIP3    H126361   3.261   6.872  19.472 -0.6022 -0.0135  0.0561
  722TIP3    H226362   3.361   6.759  19.461  0.3416  0.7624  0.5240
  723TIP3   OH226363   6.131   1.793  19.441  0.1444  0.1837  0.3773
  723TIP3    H126364   6.188   1.864  19.413  1.2443  0.0179  2.0634
  723TIP3    H226365   6.053   1.836  19.475 -0.3615  0.4506 -1.0769
  724TIP3   OH226366   5.528   3.178  19.540  0.1834 -0.3120 -0.4109
  724TIP3    H126367   5.475   3.148  19.466  0.2389  0.0182 -0.5864
  724TIP3    H226368   5.464   3.193  19.610  0.1452 -0.7493 -0.3489
  725TIP3   OH226369   1.758   0.499  19.375  0.2199  0.9369 -0.2270
  725TIP3    H126370   1.722   0.550  19.447  1.3242 -2.3179  2.9716
  725TIP3    H226371   1.682   0.467  19.327 -0.9159 -0.0417  2.0603
  726TIP3   OH226372   4.736   6.053  19.011  0.1618  0.5218 -0.7458
  726TIP3    H126373   4.755   5.972  18.964  1.3434  0.7067 -0.6081
  726TIP3    H226374   4.821   6.095  19.024 -0.2772  1.1338  0.3696
  727TIP3   OH226375   4.593   1.253  17.638  0.2631 -0.4526  0.0340
  727TIP3    H126376   4.600   1.301  17.556 -0.4694 -0.2605  0.0870
  727TIP3    H226377   4.658   1.182  17.629  2.5115  1.4017  0.5896
  728TIP3   OH226378   0.763   5.677  19.352 -0.0588 -0.9716  0.0948
  728TIP3    H126379   0.854   5.651  19.367  1.1351  2.2435 -0.7974
  728TIP3    H226380   0.722   5.672  19.439  1.3612 -1.1093  0.7857
  729TIP3   OH226381   3.460   6.388  17.944  0.0034 -0.2975 -0.2293
  729TIP3    H126382   3.396   6.455  17.922  0.2166  0.5181  1.4363
  729TIP3    H226383   3.412   6.325  17.997  0.4194  0.0333  0.5690
  730TIP3   OH226384   1.306   0.914  18.627 -0.3147 -0.7350 -0.4794
  730TIP3    H126385   1.242   0.985  18.630 -2.2027 -2.3733  0.9222
  730TIP3    H226386   1.317   0.895  18.533 -1.7696 -0.2830 -0.7638
  731TIP3   OH226387   6.088   5.643  17.948 -0.1548  0.0933 -0.3807
  731TIP3    H126388   6.144   5.638  17.871  2.0075  0.3531  1.1026
  731TIP3    H226389   6.070   5.552  17.971  0.8204 -0.0445 -0.1025
  732TIP3   OH226390   6.604   0.832  18.891  0.1648  0.1505 -0.7494
  732TIP3    H126391   6.579   0.902  18.952 -0.4561 -0.6268 -0.0879
  732TIP3    H226392   6.613   0.876  18.807 -2.1512  0.7264 -0.7627
  733TIP3   OH226393   3.014   5.021  19.317  0.5547  0.0896 -0.0538
  733TIP3    H126394   2.956   4.960  19.271 -1.6548  1.6636  0.4789
  733TIP3    H226395   3.050   5.076  19.247 -0.9879  0.9866 -0.2097
  734TIP3   OH226396   2.762   0.821  20.005  0.4044  0.7534 -0.3515
  734TIP3    H126397   2.738   0.891  19.944 -0.7115 -1.9284 -3.3288
  734TIP3    H226398   2.842   0.784  19.968  0.0722 -0.5204  0.1491
  735TIP3   OH226399   1.895   5.470  19.607  0.1922  0.1915  0.3559
  735TIP3    H126400   1.853   5.542  19.561 -1.1300 -1.0776 -0.5204
  735TIP3    H226401   1.870   5.481  19.698  1.8217  2.0434  0.6314
  736TIP3   OH226402   3.111   5.946  17.704 -0.3122  0.7874 -0.5158
  736TIP3    H126403   3.181   6.004  17.737 -0.7488  0.9182  0.2103
  736TIP3    H226404   3.156   5.865  17.682  0.6079  1.9364 -3.2307
  737TIP3   OH226405   5.616   4.255  19.342  0.3049 -0.0226 -0.5620
  737TIP3    H126406   5.705   4.222  19.328  1.6701  2.2206  1.9039
  737TIP3    H226407   5.576   4.192  19.401  1.1620  0.1526  0.2369
  738TIP3   OH226408   6.493   3.577  19.406 -0.0256  0.4632 -0.1282
  738TIP3    H126409   6.474   3.671  19.414  0.4371  0.8554 -2.6920
  738TIP3    H226410   6.578   3.573  19.363 -0.2733 -1.1284 -0.5473
  739TIP3   OH226411   4.988   5.754  19.829  0.1413  0.1951  0.1755
  739TIP3    H126412   4.969   5.725  19.739 -0.0490 -0.2168  0.3437
  739TIP3    H226413   4.902   5.758  19.871  0.2778 -0.1447  0.4925
  740TIP3   OH226414   4.111   3.712  18.919 -0.0328 -0.2397 -0.8026
  740TIP3    H126415   4.105   3.625  18.960  1.2082  0.2503  0.4894
  740TIP3    H226416   4.068   3.701  18.834 -2.7354 -1.3201  0.5607
  741TIP3   OH226417   4.327   2.273  18.440  0.2582  0.1676 -0.4263
  741TIP3    H126418   4.257   2.221  18.401 -0.7671  0.5755  0.8130
  741TIP3    H226419   4.357   2.222  18.515  0.7451  0.3706 -0.4755
  742TIP3   OH226420   3.394   2.728  19.570 -0.3041  0.1870  0.7997
  742TIP3    H126421   3.344   2.697  19.646  0.1287  1.1600  1.4934
  742TIP3    H226422   3.442   2.651  19.541 -1.9656 -0.7140  0.2796
  743TIP3   OH226423   1.866   3.469  17.041 -0.3100 -0.4551 -0.1368
  743TIP3    H126424   1.834   3.462  17.131 -1.3381 -0.1229 -0.4638
  743TIP3    H226425   1.805   3.416  16.989 -0.2731  0.0946 -0.7545
  744TIP3   OH226426   4.716   4.618  19.191 -0.1413 -0.2726  0.0354
  744TIP3    H126427   4.714   4.682  19.120 -0.9993  1.4044  1.5086
  744TIP3    H226428   4.793   4.564  19.172 -0.3549  0.1014 -2.1574
  745TIP3   OH226429   5.008   4.499  19.758  0.4704 -0.1664 -0.2922
  745TIP3    H126430   4.942   4.556  19.798  0.8502 -1.0274  1.6600
  745TIP3    H226431   4.966   4.413  19.754  1.6544 -0.9121  1.6955
  746TIP3   OH226432   2.672   1.248  19.987  0.4084  0.0476  0.0166
  746TIP3    H126433   2.609   1.313  20.018  1.2260  1.3144 -0.8998
  746TIP3    H226434   2.693   1.196  20.065 -1.1078  0.1292  0.5197
  747TIP3   OH226435   1.460   0.977  16.987 -0.0517  0.2837 -0.7035
  747TIP3    H126436   1.518   0.952  16.915 -0.9740  0.4807 -1.5288
  747TIP3    H226437   1.425   0.894  17.020  2.5986 -0.1088  1.5174
  748TIP3   OH226438   2.821   4.904  18.435 -0.1142 -0.3844  0.0150
  748TIP3    H126439   2.907   4.907  18.477  0.0849  0.5978 -0.4579
  748TIP3    H226440   2.761   4.882  18.507  0.1700  1.6802  0.9420
  749TIP3   OH226441   3.405   5.033  17.644 -0.3938  0.1372 -0.9511
  749TIP3    H126442   3.337   5.080  17.595 -0.1839  1.7263  0.2200
  749TIP3    H226443   3.384   5.050  17.736  1.2787  0.1959 -0.5576
  750TIP3   OH226444   0.441   5.785  16.289  0.5748  0.1771 -0.4711
  750TIP3    H126445   0.413   5.694  16.304  0.6557  0.2259  0.0168
  750TIP3    H226446   0.426   5.800  16.196  0.3405 -0.2633 -0.5096
  751TIP3   OH226447   0.007   5.363  17.039 -0.1168 -0.4287  0.4636
  751TIP3    H126448  -0.067   5.320  16.996  0.5859 -0.2366 -0.9675
  751TIP3    H226449   0.084   5.318  17.006  0.4453 -0.4142  1.6999
  752TIP3   OH226450   0.264   1.235  18.704 -0.2210 -0.3287 -0.0413
  752TIP3    H126451   0.346   1.238  18.753 -0.2891  0.7784  0.0340
  752TIP3    H226452   0.250   1.142  18.686  0.5522 -0.6149  0.7767
  753TIP3   OH226453   4.602   0.921  17.503  0.1819  0.2147 -0.5240
  753TIP3    H126454   4.594   0.835  17.544  0.3382  0.3426 -0.2252
  753TIP3    H226455   4.526   0.926  17.444 -1.4605  1.0058  1.5377
  754TIP3   OH226456   5.901   5.888  16.820  0.0157 -0.0963 -0.4600
  754TIP3    H126457   5.966   5.958  16.825  1.7061 -1.4873 -1.4909
  754TIP3    H226458   5.920   5.844  16.736 -1.2415 -1.5056 -0.0503
  755TIP3   OH226459   4.107   4.097  18.136 -0.4254  0.5196  0.0368
  755TIP3    H126460   4.119   4.103  18.041  0.0475  0.5163  0.0987
  755TIP3    H226461   4.019   4.132  18.151 -0.3327  0.9240 -0.3546
  756TIP3   OH226462   4.862   2.064  17.464  0.0133  0.7564  0.3944
  756TIP3    H126463   4.803   1.992  17.442  0.6099 -0.3007  2.0266
  756TIP3    H226464   4.814   2.144  17.441 -2.4285 -0.0245  2.3882
  757TIP3   OH226465   3.402   1.276  19.584  0.4479  0.0278 -0.3084
  757TIP3    H126466   3.352   1.317  19.654 -1.2037  0.7763 -1.8559
  757TIP3    H226467   3.359   1.191  19.571  0.2375  0.2205 -0.9166
  758TIP3   OH226468   5.522   6.453  19.203 -0.1070  0.5174  0.7729
  758TIP3    H126469   5.456   6.399  19.160 -0.2350  0.0000  1.5902
  758TIP3    H226470   5.594   6.392  19.222  1.4008  1.3944 -1.6354
  759TIP3   OH226471   3.313   2.616  19.284 -0.0787 -0.4349  0.2597
  759TIP3    H126472   3.263   2.539  19.258 -1.0396  0.5258 -0.8641
  759TIP3    H226473   3.250   2.670  19.331  0.2335  0.2373 -0.0804
  760TIP3   OH226474   1.773   4.918  18.003  0.3180  0.4243  0.0535
  760TIP3    H126475   1.758   4.973  17.926  1.6381 -1.3536 -1.5893
  760TIP3    H226476   1.865   4.930  18.025  0.6532 -1.0705 -0.3719
  761TIP3   OH226477   0.701   4.042  16.616 -0.1854 -0.0621  0.3396
  761TIP3    H126478   0.639   4.089  16.560  1.0843  1.9570  0.5496
  761TIP3    H226479   0.654   3.963  16.642 -1.8816  0.3842 -1.1975
  762TIP3   OH226480   1.881   1.371  17.507 -0.0349  0.0851  0.4998
  762TIP3    H126481   1.912   1.451  17.465  2.9056 -1.3701 -0.3569
  762TIP3    H226482   1.929   1.301  17.463 -0.8143 -1.9801  2.7426
  763TIP3   OH226483   3.971   5.425  19.100  0.2601  0.5428 -0.6162
  763TIP3    H126484   3.997   5.489  19.166  0.9532 -1.0322  0.7050
  763TIP3    H226485   4.051   5.405  19.052  0.2479  0.0228 -0.4303
  764TIP3   OH226486   0.065   3.619  16.586 -0.3306  0.2480 -0.3914
  764TIP3    H126487   0.133   3.651  16.527 -0.2253 -1.2237 -1.1273
  764TIP3    H226488   0.020   3.697  16.616  0.3985  1.1129 -1.4762
  765TIP3   OH226489   5.031   3.260  19.136  0.4182 -0.1189  0.3505
  765TIP3    H126490   4.983   3.285  19.057  0.7741  2.1033  0.7811
  765TIP3    H226491   5.104   3.207  19.103 -0.4218 -0.7363 -0.6135
  766TIP3   OH226492   6.029   5.245  17.117  0.1326  0.6695  0.0817
  766TIP3    H126493   5.991   5.179  17.176  0.4348  0.9641  0.6172
  766TIP3    H226494   5.972   5.321  17.126  0.0190  0.6214 -0.2232
  767TIP3   OH226495   4.022   0.870  19.094  0.8364  0.1011  0.5503
  767TIP3    H126496   3.952   0.925  19.060  1.1959 -0.0728 -0.5260
  767TIP3    H226497   3.985   0.781  19.093  0.3792  0.2473  1.9470
  768TIP3   OH226498   2.996   3.188  16.990 -0.5501 -0.2116 -0.3405
  768TIP3    H126499   2.955   3.115  17.035 -0.5398 -0.2083 -0.3253
  768TIP3    H226500   2.946   3.265  17.018 -0.7356 -0.2465 -0.5710
  769TIP3   OH226501   3.073   6.562  17.136  0.0209 -0.2840  0.0270
  769TIP3    H126502   3.021   6.512  17.073  0.6942 -0.1055 -0.6897
  769TIP3    H226503   3.008   6.607  17.190 -0.5889  0.1294 -1.0065
  770TIP3   OH226504   1.708   1.421  19.103  0.3434  0.1797  0.1836
  770TIP3    H126505   1.802   1.412  19.121  0.1906 -2.1842  0.0526
  770TIP3    H226506   1.691   1.360  19.032 -1.1803  1.1789 -0.3681
  771TIP3   OH226507   1.746   2.597  18.170 -0.1129  0.7867 -0.6116
  771TIP3    H126508   1.743   2.693  18.161 -0.4760  0.7021 -1.4847
  771TIP3    H226509   1.666   2.576  18.219  0.9350  1.0856  1.3149
  772TIP3   OH226510   6.241   3.765  18.669  0.2918  0.2216  0.2618
  772TIP3    H126511   6.159   3.809  18.645 -0.6453 -1.2068  0.6992
  772TIP3    H226512   6.248   3.777  18.764 -0.3402 -1.0861  0.5055
  773TIP3   OH226513   5.826   4.605  18.519  0.0483  0.1714  0.0860
  773TIP3    H126514   5.851   4.678  18.463  1.4866 -0.1831  0.2126
  773TIP3    H226515   5.793   4.646  18.599  1.8300  0.7401  0.5924
  774TIP3   OH226516   1.636   5.574  18.116 -0.5679 -0.0872  0.1102
  774TIP3    H126517   1.596   5.604  18.034  0.1746  0.7500  0.0300
  774TIP3    H226518   1.592   5.492  18.136 -1.5110  0.2351 -0.5638
  775TIP3   OH226519   2.201   0.806  18.790 -0.8694  0.3525 -0.0494
  775TIP3    H126520   2.174   0.744  18.858 -1.3107  0.1808 -0.3735
  775TIP3    H226521   2.250   0.752  18.728  0.9513  0.7993  0.9263
  776TIP3   OH226522   4.607   6.793  16.633  0.0049 -0.1061  0.0479
  776TIP3    H126523   4.665   6.837  16.695  0.1891  0.4551 -0.5126
  776TIP3    H226524   4.660   6.722  16.597  0.3699  0.4108 -0.4695
  777TIP3   OH226525   5.851   0.930  18.558  0.7735  0.3969  0.2826
  777TIP3    H126526   5.911   0.875  18.608  2.2847  0.5602 -1.2463
  777TIP3    H226527   5.846   0.888  18.472 -0.9687  0.6530  0.2215
  778TIP3   OH226528   2.085   4.039  20.169 -0.3606  0.1372 -0.2844
  778TIP3    H126529   2.117   3.972  20.109 -2.3499 -2.0842  0.9680
  778TIP3    H226530   2.120   4.013  20.255 -2.0433  0.0154  0.4028
  779TIP3   OH226531   4.866   3.352  18.946  0.5265  0.8656  0.5375
  779TIP3    H126532   4.850   3.317  18.858  1.4454 -0.0272  0.7057
  779TIP3    H226533   4.781   3.383  18.975  0.2097  1.2208 -0.6860
  780TIP3   OH226534   3.654   0.257  17.309 -0.2884 -0.4192 -0.2138
  780TIP3    H126535   3.712   0.209  17.368 -1.2622 -0.7070  0.5301
  780TIP3    H226536   3.711   0.285  17.238  0.8076 -0.5318  0.5869
  781TIP3   OH226537   3.454   5.372  18.275 -0.2220 -0.1558  0.5940
  781TIP3    H126538   3.407   5.404  18.352  0.7553 -0.0180  1.1522
  781TIP3    H226539   3.546   5.371  18.301  0.0922 -0.4794 -0.4470
  782TIP3   OH226540   6.215   1.670  16.652 -0.0686 -0.2257  0.1610
  782TIP3    H126541   6.257   1.756  16.649  1.1848 -0.7921  0.6410
  782TIP3    H226542   6.168   1.663  16.569  1.2953  0.2095 -0.6850
  783TIP3   OH226543   0.668   3.328  19.606  0.1345 -0.4638 -0.4436
  783TIP3    H126544   0.694   3.371  19.524 -0.6537  1.9578  0.4830
  783TIP3    H226545   0.748   3.329  19.660  0.1475 -0.2406 -0.4652
  784TIP3   OH226546   2.893   0.872  18.215  0.3406 -0.7476  0.0821
  784TIP3    H126547   2.872   0.834  18.301 -0.3020  0.9522  0.7230
  784TIP3    H226548   2.857   0.810  18.152  0.8914 -2.0772  1.0061
  785TIP3   OH226549   1.316   2.794  18.565  0.0058  0.4759  0.4699
  785TIP3    H126550   1.403   2.755  18.573 -0.4023 -0.3101  1.3528
  785TIP3    H226551   1.256   2.719  18.570 -0.6917  0.7352 -2.2134
  786TIP3   OH226552   2.053   4.547  17.165 -0.3069  0.3188  0.0559
  786TIP3    H126553   2.052   4.542  17.261 -0.7361  3.0572  0.2735
  786TIP3    H226554   2.008   4.629  17.145  0.5884  0.2797 -2.4684
  787TIP3   OH226555   5.013   0.314  19.381  0.4135 -0.2640 -0.3531
  787TIP3    H126556   4.985   0.311  19.289 -0.8139 -3.6393 -0.0354
  787TIP3    H226557   5.099   0.273  19.382  0.3752 -0.3429 -0.0037
  788TIP3   OH226558   0.610   1.204  16.886 -0.4259 -0.1644 -0.0611
  788TIP3    H126559   0.668   1.158  16.824  0.5662  1.1036 -0.1157
  788TIP3    H226560   0.653   1.195  16.971 -0.4218  0.3115 -0.0085
  789TIP3   OH226561   1.538   4.079  16.890 -0.2026  0.6189  0.2269
  789TIP3    H126562   1.533   4.169  16.923 -2.8820  0.5608  0.2453
  789TIP3    H226563   1.526   4.087  16.795 -0.1689  0.3080  0.1960
  790TIP3   OH226564   2.039   6.701  17.081  0.1001 -0.2976  0.2350
  790TIP3    H126565   2.031   6.785  17.036 -0.5691 -0.7132 -0.4465
  790TIP3    H226566   2.016   6.721  17.172 -1.6552 -0.0154 -0.2261
  791TIP3   OH226567   6.274   0.188  18.808  0.6836  0.2484  0.3660
  791TIP3    H126568   6.315   0.145  18.733 -2.3091 -1.4786 -0.4222
  791TIP3    H226569   6.214   0.252  18.770 -2.2412 -1.8950  1.0176
  792TIP3   OH226570   3.524   0.433  18.900 -0.5228  0.1638 -0.2681
  792TIP3    H126571   3.502   0.519  18.935  1.0925  0.6906 -0.4941
  792TIP3    H226572   3.449   0.409  18.846 -3.0883 -0.5852  3.2161
  793TIP3   OH226573   1.687   6.614  17.077 -0.0058  0.3475 -0.1458
  793TIP3    H126574   1.765   6.593  17.129  0.4362 -1.0239 -1.2782
  793TIP3    H226575   1.618   6.558  17.113 -0.5908  1.8063  1.0780
  794TIP3   OH226576   2.117   1.218  18.006  0.1035 -0.2705 -0.0870
  794TIP3    H126577   2.063   1.235  18.083  0.8156 -2.2547  0.9197
  794TIP3    H226578   2.085   1.134  17.973  1.0805 -0.3694 -0.8128
  795TIP3   OH226579   3.306   5.861  18.680  0.2717  0.4048  0.3685
  795TIP3    H126580   3.396   5.865  18.648 -0.0082  0.5700 -0.4222
  795TIP3    H226581   3.295   5.771  18.710  0.9621  0.6130  1.2856
  796TIP3   OH226582   4.790   2.224  19.461 -0.2676  0.6295 -0.0145
  796TIP3    H126583   4.861   2.188  19.513 -0.8186  0.8984  0.9364
  796TIP3    H226584   4.764   2.304  19.507 -0.2179  1.3270 -1.1457
  797TIP3   OH226585   5.370   0.368  19.116 -0.2978  0.4794  0.0650
  797TIP3    H126586   5.384   0.459  19.090 -0.3280  0.1930 -0.9635
  797TIP3    H226587   5.343   0.324  19.036 -1.3967 -0.2061  0.7858
  798TIP3   OH226588   1.781   1.515  18.772  0.1996  0.4511 -0.2657
  798TIP3    H126589   1.707   1.465  18.806  1.2226  0.2041  1.7874
  798TIP3    H226590   1.765   1.522  18.678 -0.3694 -3.0717 -0.5576
  799TIP3   OH226591   2.510   1.929  18.697 -0.1643  0.4545 -0.4906
  799TIP3    H126592   2.525   1.956  18.606 -1.3517  0.8114 -0.6022
  799TIP3    H226593   2.481   1.837  18.690  0.4543  0.2490 -0.4032
  800TIP3   OH226594   0.223   4.714  19.669 -0.4886 -0.1725 -0.4025
  800TIP3    H126595   0.263   4.798  19.693 -1.6803  0.4488 -0.5076
  800TIP3    H226596   0.216   4.717  19.574 -1.4252  0.0417 -0.3352
  801TIP3   OH226597   2.685   6.579  19.782 -0.2010 -0.7580 -0.2597
  801TIP3    H126598   2.781   6.577  19.789 -0.0385  1.4313 -1.2119
  801TIP3    H226599   2.661   6.669  19.806 -1.9500 -1.0275 -0.8788
  802TIP3   OH226600   3.089   6.295  17.800  0.6076  0.8878  0.7165
  802TIP3    H126601   3.090   6.237  17.724 -0.4382  1.9668 -0.1614
  802TIP3    H226602   3.000   6.290  17.834  0.7522  1.2883  1.1744
  803TIP3   OH226603   6.462   0.038  17.558  0.1249  0.1813 -0.0084
  803TIP3    H126604   6.555   0.062  17.562  1.0011 -2.6040 -1.1923
  803TIP3    H226605   6.434   0.038  17.650  1.3914  0.7496  0.4019
  804TIP3   OH226606   4.855   6.365  17.943  0.6359 -0.2328  0.2467
  804TIP3    H126607   4.782   6.413  17.904  0.3528 -0.2898  0.7032
  804TIP3    H226608   4.888   6.423  18.011  2.5776  0.8694 -1.5007
  805TIP3   OH226609   0.470   5.461  16.566 -0.1781  0.6470  0.6085
  805TIP3    H126610   0.417   5.441  16.489 -0.2936  1.5366  0.4441
  805TIP3    H226611   0.413   5.440  16.641 -0.2928  0.3915  0.4522
  806TIP3   OH226612   4.436   1.549  17.710 -0.7713 -0.2034 -0.2700
  806TIP3    H126613   4.468   1.472  17.662 -1.0886  0.3487 -1.4173
  806TIP3    H226614   4.485   1.622  17.672 -2.0077  0.4171 -0.7300
  807TIP3   OH226615   0.456   0.413  16.054 -0.6939  0.4379 -0.0778
  807TIP3    H126616   0.427   0.323  16.041  0.6018  0.0117 -0.1933
  807TIP3    H226617   0.468   0.448  15.966  2.2062 -0.4704 -0.1527
  808TIP3   OH226618   2.604   4.343  20.240 -0.0441 -0.3261  0.0273
  808TIP3    H126619   2.650   4.299  20.169  1.0698  0.1510  0.4315
  808TIP3    H226620   2.593   4.276  20.307  0.1277 -0.4231 -0.0422
  809TIP3   OH226621   2.632   0.315  17.742  0.4449 -0.1611 -0.2500
  809TIP3    H126622   2.670   0.229  17.728 -1.6154 -1.4520  1.4466
  809TIP3    H226623   2.551   0.298  17.789 -0.9103  2.6111 -1.3571
  810TIP3   OH226624   6.534   5.233  16.733  1.0258 -0.0533 -0.0869
  810TIP3    H126625   6.547   5.139  16.734  1.7350  0.0329 -0.7548
  810TIP3    H226626   6.484   5.249  16.653 -1.5776 -0.1466  1.3877
  811TIP3   OH226627   6.623   1.881  18.828 -0.5452 -0.3695 -0.4370
  811TIP3    H126628   6.649   1.828  18.903 -0.5035  0.6233  0.2680
  811TIP3    H226629   6.589   1.962  18.866 -0.9997 -0.0542 -1.4717
  812TIP3   OH226630   2.785   0.531  18.977 -0.2084  0.3058  0.4973
  812TIP3    H126631   2.795   0.490  18.891 -0.3779 -0.1097  0.6740
  812TIP3    H226632   2.871   0.570  18.995 -0.4306  1.2097 -0.2722
  813TIP3   OH226633   4.226   3.012  18.409 -0.2603  0.4118  0.1927
  813TIP3    H126634   4.188   3.095  18.381  1.3811  1.4261  0.8123
  813TIP3    H226635   4.159   2.972  18.464 -0.4120  2.2277  1.4249
  814TIP3   OH226636   0.102   0.718  19.449  0.0449  0.0222  0.2390
  814TIP3    H126637   0.037   0.663  19.404  1.2142 -0.5923 -0.7664
  814TIP3    H226638   0.117   0.675  19.533 -0.1822 -0.3325  0.0990
  815TIP3   OH226639   4.507   2.347  19.128  0.0232  0.3405  0.2462
  815TIP3    H126640   4.489   2.428  19.175 -0.0165  0.2305  0.4218
  815TIP3    H226641   4.453   2.281  19.171 -1.8321  0.6755 -1.4277
  816TIP3   OH226642   4.342   6.545  19.466  0.3272 -0.3220  0.1650
  816TIP3    H126643   4.374   6.602  19.536  1.3338  0.3777 -0.8318
  816TIP3    H226644   4.417   6.533  19.408 -0.0297 -2.1858  0.0067
  817TIP3   OH226645   6.530   0.005  18.715 -0.0412  0.5257  0.2357
  817TIP3    H126646   6.450  -0.002  18.662  0.2860  0.6010 -0.2792
  817TIP3    H226647   6.581   0.073  18.671  0.1814  0.6795  0.7275
  818TIP3   OH226648   4.922   6.441  18.198 -0.0826  0.0365 -0.0952
  818TIP3    H126649   4.901   6.500  18.271 -2.1285 -0.4628 -0.2145
  818TIP3    H226650   4.896   6.355  18.229  1.5100 -0.6260 -0.4811
  819TIP3   OH226651   5.176   0.153  17.114 -0.1017 -0.1610  0.0330
  819TIP3    H126652   5.183   0.119  17.203  1.7408 -0.7013 -0.2778
  819TIP3    H226653   5.245   0.108  17.066 -0.0671  1.2456 -1.3058
  820TIP3   OH226654   0.857   3.287  16.835  0.0517  0.1023  0.6813
  820TIP3    H126655   0.915   3.257  16.765 -0.2783  0.4687  0.2474
  820TIP3    H226656   0.890   3.244  16.914  0.0376 -0.8170  0.1965
  821TIP3   OH226657   3.891   2.374  19.084 -0.4234  0.2831  0.3329
  821TIP3    H126658   3.935   2.412  19.160 -1.2536  0.5348  0.7018
  821TIP3    H226659   3.901   2.440  19.015  1.0772 -0.3144 -0.0549
  822TIP3   OH226660   2.515   1.286  16.661  0.1274 -0.0416  0.0706
  822TIP3    H126661   2.609   1.274  16.679 -0.3371 -1.0240  2.0895
  822TIP3    H226662   2.500   1.380  16.676  0.8711  0.2601 -0.9021
  823TIP3   OH226663   6.576   0.843  19.521  0.4928  0.7864  0.0181
  823TIP3    H126664   6.587   0.803  19.435  0.5645  0.4120  0.2014
  823TIP3    H226665   6.491   0.887  19.516  0.8869  1.4988 -0.5296
  824TIP3   OH226666   5.386   6.751  18.791  0.4561  0.1495  0.5176
  824TIP3    H126667   5.439   6.699  18.852  0.9160  0.0676  0.0538
  824TIP3    H226668   5.432   6.834  18.785  0.8557 -0.1261 -0.3312
  825TIP3   OH226669   5.652   1.578  18.001 -0.2401 -0.4816  0.7501
  825TIP3    H126670   5.728   1.614  17.955  0.0158 -0.7307  0.9738
  825TIP3    H226671   5.579   1.590  17.940  0.0390 -0.5356  0.4040
  826TIP3   OH226672   6.107   5.096  19.260 -0.6649  0.8202  0.2075
  826TIP3    H126673   6.201   5.091  19.245 -0.9578 -0.0286 -1.6056
  826TIP3    H226674   6.082   5.009  19.291 -1.2829 -0.0334 -2.4381
  827TIP3   OH226675   4.454   0.567  19.745  0.1226  0.0264  0.7747
  827TIP3    H126676   4.411   0.490  19.783  0.8963 -1.7148 -1.5706
  827TIP3    H226677   4.534   0.532  19.705  0.2272  1.9480 -0.8766
  828TIP3   OH226678   4.420   4.720  17.448 -0.0516  0.0004  0.4391
  828TIP3    H126679   4.509   4.721  17.413 -0.2540 -1.7486 -0.2041
  828TIP3    H226680   4.421   4.788  17.516  1.5044  0.6276 -0.1489
  829TIP3   OH226681   2.651   3.931  19.664  0.3523  0.6772  0.7705
  829TIP3    H126682   2.566   3.888  19.658  1.6822 -2.0483 -0.3779
  829TIP3    H226683   2.689   3.897  19.745  0.4792  1.6908  1.1537
  830TIP3   OH226684   6.343   0.073  16.400  0.6698 -0.5176  0.2728
  830TIP3    H126685   6.259   0.028  16.386 -0.2283  1.8246 -3.5086
  830TIP3    H226686   6.322   0.147  16.455  0.2748 -0.1072 -0.4149
  831TIP3   OH226687   0.818   0.182  19.679 -0.6273 -0.3297 -0.1174
  831TIP3    H126688   0.746   0.232  19.718  0.4552  2.0355 -0.9057
  831TIP3    H226689   0.887   0.185  19.745 -0.4236 -0.4168 -0.3227
  832TIP3   OH226690   5.465   0.208  19.755  0.1483  0.6352 -0.0986
  832TIP3    H126691   5.425   0.134  19.799  0.7987 -0.6496 -1.5668
  832TIP3    H226692   5.400   0.237  19.691  1.0736 -0.8294 -1.8030
  833TIP3   OH226693   2.439   2.003  19.763 -0.1261 -0.1963  0.2616
  833TIP3    H126694   2.498   1.928  19.759  0.9608  0.5872  0.9287
  833TIP3    H226695   2.422   2.016  19.857 -0.3552  0.3489  0.1497
  834TIP3   OH226696   4.772   0.448  16.842 -0.0844  0.4482 -0.3131
  834TIP3    H126697   4.793   0.357  16.823 -2.0853  0.0072 -0.6218
  834TIP3    H226698   4.801   0.496  16.765  0.3361 -0.0196 -0.4551
  835TIP3   OH226699   3.607   3.413  19.371 -0.2203  0.0156  0.5663
  835TIP3    H126700   3.631   3.467  19.446  0.3432 -0.4941  0.7566
  835TIP3    H226701   3.593   3.325  19.407  1.9156 -0.6885 -0.1584
  836TIP3   OH226702   1.458   0.376  19.869  0.3938 -0.3904  0.3333
  836TIP3    H126703   1.472   0.372  19.774  0.8136 -2.0217  0.4249
  836TIP3    H226704   1.378   0.325  19.883 -0.4981  1.0782  0.7281
  837TIP3   OH226705   5.585   1.634  18.619 -0.1234  0.6977  0.5203
  837TIP3    H126706   5.576   1.576  18.695  0.8622  0.1783  0.2645
  837TIP3    H226707   5.667   1.606  18.578 -0.7846  0.7752 -0.9157
  838TIP3   OH226708   0.498   2.062  19.111 -0.0045  0.0016 -0.0855
  838TIP3    H126709   0.458   2.127  19.168 -0.9390  0.1044 -0.8211
  838TIP3    H226710   0.540   2.113  19.042 -0.3394 -0.1514 -0.4084
  839TIP3   OH226711   2.492   6.449  19.646 -0.3999 -0.0557  0.2932
  839TIP3    H126712   2.413   6.471  19.695  0.4958  1.6896  1.0459
  839TIP3    H226713   2.564   6.482  19.700  0.6912  0.9277 -1.6642
  840TIP3   OH226714   3.882   4.785  19.195  0.2194 -0.2985 -0.8087
  840TIP3    H126715   3.890   4.864  19.142 -3.6218 -0.9278 -2.6341
  840TIP3    H226716   3.874   4.817  19.285  2.7076  1.0164 -0.9585
  841TIP3   OH226717   4.391   1.046  19.980  0.9890  0.2580 -0.1127
  841TIP3    H126718   4.363   0.994  19.905  0.2207 -0.4632  0.6549
  841TIP3    H226719   4.329   1.119  19.984  1.0562  0.3207 -0.1919
  842TIP3   OH226720   2.514   2.383  17.991 -0.7251  0.2898  0.1622
  842TIP3    H126721   2.575   2.325  18.036  0.1854  1.3390  0.3263
  842TIP3    H226722   2.427   2.347  18.012 -0.1942 -1.0163  0.2059
  843TIP3   OH226723   0.112   4.611  18.629  0.2350 -0.1407  0.1825
  843TIP3    H126724   0.028   4.622  18.585  1.0413 -1.5254 -1.8302
  843TIP3    H226725   0.110   4.523  18.665  0.9538 -0.3220 -0.2028
  844TIP3   OH226726   4.496   0.490  17.399 -0.5206  0.8728 -0.3443
  844TIP3    H126727   4.512   0.513  17.308 -2.6980 -0.6298 -1.1924
  844TIP3    H226728   4.548   0.411  17.413  0.2182  1.3950 -0.1093
  845TIP3   OH226729   6.592   4.343  18.689 -0.0593 -0.2456  0.2139
  845TIP3    H126730   6.686   4.338  18.670 -0.3239  0.1817 -1.3277
  845TIP3    H226731   6.583   4.297  18.773  1.4457 -0.7568  0.1422
  846TIP3   OH226732   6.794   6.153  17.434 -0.5338  0.7950 -0.3588
  846TIP3    H126733   6.753   6.196  17.359  0.1853  1.2720 -0.4861
  846TIP3    H226734   6.745   6.071  17.444 -0.7164  0.7807 -1.2708
  847TIP3   OH226735   4.576   4.149  16.680 -0.0646  0.9195 -0.2158
  847TIP3    H126736   4.671   4.146  16.669 -0.0771 -0.2349 -0.0684
  847TIP3    H226737   4.554   4.242  16.669  1.1649  1.3156  0.4975
  848TIP3   OH226738   2.824   6.546  17.297  0.1467 -0.1834 -0.0817
  848TIP3    H126739   2.732   6.566  17.311  0.3489 -0.4426  1.9189
  848TIP3    H226740   2.824   6.475  17.233 -0.7997  2.4372 -3.2697
  849TIP3   OH226741   0.317   2.239  18.733 -0.4274 -0.3198  0.2347
  849TIP3    H126742   0.254   2.247  18.806 -0.2152 -0.1797  0.4043
  849TIP3    H226743   0.267   2.266  18.656 -1.0184 -1.6453  0.1349
  850TIP3   OH226744   1.370   4.035  18.498  0.0958  0.1514 -0.0117
  850TIP3    H126745   1.381   4.035  18.593  0.5372  1.9624 -0.0194
  850TIP3    H226746   1.280   4.064  18.483  0.4729  1.3362 -0.1294
  851TIP3   OH226747   5.347   0.646  16.218  0.1595 -0.1539  0.0132
  851TIP3    H126748   5.412   0.578  16.233  0.3611 -0.1784 -0.8952
  851TIP3    H226749   5.379   0.722  16.267 -0.4732 -0.9179  1.6877
  852TIP3   OH226750   6.574   0.460  18.539 -0.6027 -0.2259  0.2074
  852TIP3    H126751   6.531   0.465  18.454 -0.0493 -0.3795 -0.0792
  852TIP3    H226752   6.524   0.521  18.594 -2.7240 -2.1292  0.5574
  853TIP3   OH226753   2.499   1.019  18.941 -0.0614 -0.0323  0.1222
  853TIP3    H126754   2.514   0.925  18.936  0.4544  0.0799 -0.5952
  853TIP3    H226755   2.446   1.039  18.864  1.0477  0.4766 -0.5335
  854TIP3   OH226756   2.171   3.854  19.955  1.2341 -0.3061 -0.5553
  854TIP3    H126757   2.170   3.759  19.964  0.7391 -0.2056  0.6470
  854TIP3    H226758   2.112   3.872  19.882  2.2662 -0.9711 -1.5900
  855TIP3   OH226759   4.282   1.844  16.450 -0.4656  0.0612 -0.2128
  855TIP3    H126760   4.252   1.865  16.361 -2.7509 -0.1117  0.4523
  855TIP3    H226761   4.329   1.923  16.479 -0.3765  0.4107 -1.2805
  856TIP3   OH226762   3.453   5.790  16.761  0.0280 -0.1633  0.5552
  856TIP3    H126763   3.448   5.863  16.822 -2.4521  1.7269 -1.6622
  856TIP3    H226764   3.375   5.738  16.780  0.0426 -0.3980 -0.0098
  857TIP3   OH226765   0.420   0.453  19.636 -0.2309 -0.0639 -0.2084
  857TIP3    H126766   0.468   0.532  19.613  0.3096 -0.0162  1.0074
  857TIP3    H226767   0.330   0.483  19.652 -0.0008  0.3179  0.3590
  858TIP3   OH226768   0.910   2.280  19.255 -0.3903 -0.4208 -0.2405
  858TIP3    H126769   0.829   2.241  19.286 -0.2021  0.2677  1.2158
  858TIP3    H226770   0.884   2.360  19.210 -0.6114 -1.0279 -1.2234
  859TIP3   OH226771   5.250   0.204  19.296  0.4880 -0.6578  0.2798
  859TIP3    H126772   5.299   0.243  19.223 -1.2894  0.6338 -0.3096
  859TIP3    H226773   5.242   0.112  19.273  1.4519 -0.6135 -0.2862
  860TIP3   OH226774   1.251   3.975  19.647 -0.1148 -0.9738 -0.2547
  860TIP3    H126775   1.293   3.993  19.563 -1.0009 -0.6588 -0.6381
  860TIP3    H226776   1.256   4.059  19.694 -1.1997 -0.6484 -0.7001
  861TIP3   OH226777   5.974   5.343  18.250  0.2431  0.1354 -0.0334
  861TIP3    H126778   5.953   5.378  18.163  1.1734 -0.5397 -0.5534
  861TIP3    H226779   5.962   5.417  18.309 -0.3374  0.6273 -0.7450
  862TIP3   OH226780   0.250   4.206  18.352  0.4310  0.3314 -0.4884
  862TIP3    H126781   0.187   4.250  18.295 -0.6033  1.4767  1.4117
  862TIP3    H226782   0.237   4.113  18.334 -0.6993  0.6136 -1.2504
  863TIP3   OH226783   6.552   2.225  18.136  0.2391 -0.2114 -0.0971
  863TIP3    H126784   6.603   2.153  18.172  0.1339 -0.6320 -0.7714
  863TIP3    H226785   6.610   2.301  18.143  0.3627 -0.3686  0.5849
  864TIP3   OH226786   4.249   2.791  19.499  0.2330  0.0330 -0.0055
  864TIP3    H126787   4.234   2.696  19.501  1.2413 -0.2404 -2.2772
  864TIP3    H226788   4.167   2.827  19.466  0.1994 -0.1663 -0.1462
  865TIP3   OH226789   3.730   5.369  18.347  0.0228  0.4829 -0.2922
  865TIP3    H126790   3.730   5.336  18.437  1.3925 -0.0024 -0.4463
  865TIP3    H226791   3.796   5.317  18.302 -2.2285 -0.9028 -2.2218
  866TIP3   OH226792   6.201   1.017  18.481 -0.8163  0.1345 -0.1975
  866TIP3    H126793   6.261   1.059  18.541  0.9140 -0.4197 -1.4689
  866TIP3    H226794   6.115   1.053  18.503 -0.1177  0.5750  1.9886
  867TIP3   OH226795   2.988   4.641  17.616 -0.0744 -0.0220 -0.3352
  867TIP3    H126796   3.016   4.558  17.577  0.9280  0.4687 -0.6812
  867TIP3    H226797   2.893   4.636  17.616 -0.0707 -0.5284 -1.7852
  868TIP3   OH226798   0.785   5.852  18.088  0.1467 -0.1591 -0.2817
  868TIP3    H126799   0.881   5.848  18.085  0.2382  0.6037  0.8605
  868TIP3    H226800   0.766   5.918  18.155 -1.1852 -0.1979 -0.5901
  869TIP3   OH226801   3.958   5.338  17.258 -0.1963  0.3435  0.3584
  869TIP3    H126802   3.951   5.433  17.268  0.8453  0.4955 -0.2891
  869TIP3    H226803   4.045   5.316  17.291 -0.4628 -0.4118  0.5879
  870TIP3   OH226804   5.176   5.578  17.358 -0.0834  0.2629  0.3670
  870TIP3    H126805   5.184   5.634  17.281 -0.2171  0.6865  0.6636
  870TIP3    H226806   5.082   5.565  17.368 -0.0379 -2.9818 -1.8528
  871TIP3   OH226807   1.335   1.256  16.963 -0.0877  0.1436 -0.5923
  871TIP3    H126808   1.368   1.187  17.020 -0.4922 -0.1386 -0.6973
  871TIP3    H226809   1.320   1.330  17.022  1.5917  0.5924 -0.6763
  872TIP3   OH226810   4.946   0.071  19.103  0.5577  0.0871 -0.6809
  872TIP3    H126811   4.957   0.166  19.093  1.8497  0.0911  0.5069
  872TIP3    H226812   4.957   0.037  19.014  4.0145  0.7574 -0.6528
  873TIP3   OH226813   3.076   1.246  16.911  0.5718 -0.4339 -0.2586
  873TIP3    H126814   3.089   1.159  16.950 -0.7725 -1.8976 -2.8065
  873TIP3    H226815   3.003   1.284  16.960  0.3570 -1.2686  0.0853
  874TIP3   OH226816   3.331   0.944  19.002  0.2717  0.1706 -0.4304
  874TIP3    H126817   3.311   1.032  19.034  0.9011  1.0375 -2.2860
  874TIP3    H226818   3.383   0.904  19.072 -0.2244  1.1764  0.5410
  875TIP3   OH226819   6.673   5.770  18.221  0.3499 -0.4616 -0.0160
  875TIP3    H126820   6.657   5.863  18.206 -0.2053 -0.1744  2.0200
  875TIP3    H226821   6.733   5.744  18.151 -0.5746  1.0606 -1.4555
  876TIP3   OH226822   6.302   3.960  19.567 -0.2148  0.0363  0.1641
  876TIP3    H126823   6.278   4.015  19.493  0.4234  1.0420  0.6692
  876TIP3    H226824   6.373   3.905  19.535  0.3055  0.7222  0.1066
  877TIP3   OH226825   4.843   4.956  17.997 -0.6712 -0.4971 -0.3665
  877TIP3    H126826   4.881   5.036  17.961 -0.8220 -0.3987 -0.3078
  877TIP3    H226827   4.912   4.891  17.989 -1.0778 -0.7778 -1.9208
  878TIP3   OH226828   4.126   5.683  19.528  0.1140  0.4416 -0.1730
  878TIP3    H126829   4.082   5.701  19.611 -2.4198  2.5019 -1.8076
  878TIP3    H226830   4.199   5.745  19.526  2.2416 -1.7894  1.7794
  879TIP3   OH226831   3.032   3.703  19.717 -0.0065  0.4247  0.1314
  879TIP3    H126832   3.061   3.795  19.722 -1.2728  0.8339  0.2550
  879TIP3    H226833   2.978   3.692  19.795  1.3208 -0.8861  0.9267
  880TIP3   OH226834   2.365   5.921  19.277 -0.4302  0.3991  0.2929
  880TIP3    H126835   2.336   5.961  19.195 -2.1583 -1.3501 -0.0120
  880TIP3    H226836   2.431   5.857  19.250  0.5342  1.2685  0.5236
  881TIP3   OH226837   3.501   4.808  19.519  0.1374 -0.0079  0.0140
  881TIP3    H126838   3.496   4.770  19.432  1.0553 -0.7971  0.2992
  881TIP3    H226839   3.496   4.733  19.579  2.0495  0.2842  0.5842
  882TIP3   OH226840   1.265   5.874  18.348 -0.0309  0.1284  0.3877
  882TIP3    H126841   1.283   5.967  18.361 -0.7099  0.1163  1.5164
  882TIP3    H226842   1.282   5.834  18.434 -0.8377 -0.6084  0.2186
  883TIP3   OH226843   3.383   0.022  18.782  0.1875 -0.4573 -0.1062
  883TIP3    H126844   3.395  -0.008  18.692 -0.2129  0.9975 -0.6831
  883TIP3    H226845   3.449  -0.025  18.833  0.4230 -1.2942 -1.1611
  884TIP3   OH226846   0.420   2.156  19.885  0.4237 -0.5689 -0.5571
  884TIP3    H126847   0.470   2.112  19.954  0.2048 -0.6905 -0.4746
  884TIP3    H226848   0.481   2.220  19.849 -0.1765  1.1261  1.2854
  885TIP3   OH226849   5.724   1.250  18.975 -0.3218 -0.2751  0.3472
  885TIP3    H126850   5.789   1.254  19.045  2.2287  1.0361 -1.8900
  885TIP3    H226851   5.740   1.166  18.932  0.7924  0.5218 -0.8940
  886TIP3   OH226852   2.860   2.071  19.600 -0.1169  0.0402  0.5273
  886TIP3    H126853   2.772   2.079  19.565 -0.0036 -1.0117 -0.0259
  886TIP3    H226854   2.875   1.976  19.609  0.9071  0.2020  0.7311
  887TIP3   OH226855   5.530   6.615  18.973 -0.0478  0.1619  0.5102
  887TIP3    H126856   5.530   6.612  19.069  0.7889 -0.8874  0.4959
  887TIP3    H226857   5.566   6.530  18.947  0.5689  0.7860 -0.7309
  888TIP3   OH226858   3.102   1.315  19.700 -0.1278  0.4591 -0.1314
  888TIP3    H126859   3.127   1.228  19.669 -2.2930  0.0783 -0.9542
  888TIP3    H226860   3.027   1.300  19.757  1.2238  1.5644  2.0782
  889TIP3   OH226861   6.683   3.256  19.022 -0.8360 -0.1699  0.1313
  889TIP3    H126862   6.625   3.274  19.096 -1.1315 -0.4971 -0.0193
  889TIP3    H226863   6.625   3.253  18.946 -0.3524  1.7143 -0.3602
  890TIP3   OH226864   5.143   5.491  16.182 -0.0207 -0.2116  0.1611
  890TIP3    H126865   5.069   5.477  16.122 -0.0090 -0.2852  0.1630
  890TIP3    H226866   5.116   5.450  16.264 -1.3473  2.5175  1.2286
  891TIP3   OH226867   0.913   3.636  19.889  0.8048  0.2742  0.1022
  891TIP3    H126868   0.929   3.555  19.840 -0.4520  1.1326 -1.8456
  891TIP3    H226869   0.946   3.706  19.832 -2.1687  1.4387 -0.3695
  892TIP3   OH226870   2.660   2.619  20.099  0.0009  0.3301 -0.3979
  892TIP3    H126871   2.639   2.527  20.115  0.5473 -0.0101 -1.5154
  892TIP3    H226872   2.575   2.662  20.092 -0.2879  0.3224  2.0992
  893TIP3   OH226873   6.441   2.257  17.315  0.4872  0.5183  0.2989
  893TIP3    H126874   6.514   2.244  17.375  1.6263  1.1179 -0.9150
  893TIP3    H226875   6.480   2.250  17.228 -0.9845  0.4244 -0.3795
  894TIP3   OH226876   2.610   3.165  19.286 -0.5649  0.3657 -0.0844
  894TIP3    H126877   2.639   3.202  19.202  1.2453 -1.4905 -0.3699
  894TIP3    H226878   2.691   3.151  19.335 -1.5837  1.3672  2.0259
  895TIP3   OH226879   4.109   4.098  17.013 -0.2953 -0.3722 -0.9291
  895TIP3    H126880   4.041   4.032  16.997 -0.1699 -0.5446 -0.7609
  895TIP3    H226881   4.162   4.096  16.934 -0.8243  0.1791 -1.3067
  896TIP3   OH226882   3.305   3.913  18.571  0.2595  0.1275 -0.7909
  896TIP3    H126883   3.320   3.819  18.563 -0.2951  0.0140 -0.5987
  896TIP3    H226884   3.318   3.931  18.664 -2.8911 -0.4006 -0.1461
  897TIP3   OH226885   3.228   3.039  17.061  0.0630  0.1391  0.1726
  897TIP3    H126886   3.152   3.074  17.015 -0.2279 -0.2086  0.3865
  897TIP3    H226887   3.252   3.109  17.122  1.5864  1.4007 -1.7234
  898TIP3   OH226888   2.346   0.419  18.411  0.3646 -0.4432  0.4183
  898TIP3    H126889   2.294   0.365  18.352 -0.9269  1.4130 -0.2483
  898TIP3    H226890   2.427   0.436  18.362 -0.5847  0.8660 -0.7843
  899TIP3   OH226891   4.928   3.539  19.436  0.2292 -0.7830 -0.2035
  899TIP3    H126892   4.968   3.570  19.355 -0.3203 -1.2613 -0.6720
  899TIP3    H226893   4.919   3.444  19.423 -0.2160 -0.8092  0.2598
  900TIP3   OH226894   5.885   1.028  19.068  0.0503  0.5820  0.7386
  900TIP3    H126895   5.948   1.081  19.018 -2.3178  2.2681 -0.7231
  900TIP3    H226896   5.879   0.946  19.019 -0.2127  1.1301 -0.1684
  901TIP3   OH226897   4.026   0.424  18.467  0.4425 -0.3059 -0.6002
  901TIP3    H126898   4.069   0.438  18.383  0.0010  0.0726 -0.7671
  901TIP3    H226899   4.083   0.469  18.530  1.0527 -1.0350 -0.6186
  902TIP3   OH226900   3.338   0.921  17.693  0.0837  0.5640 -0.2557
  902TIP3    H126901   3.363   0.905  17.784 -0.2739 -1.5667 -0.4835
  902TIP3    H226902   3.420   0.945  17.649  0.3586  1.0238  0.4840
  903TIP3   OH226903   6.355   1.973  18.617 -0.4181  0.1435 -0.2630
  903TIP3    H126904   6.378   1.889  18.576 -0.7644  0.0240 -0.2188
  903TIP3    H226905   6.299   1.948  18.690  2.0770  0.1489  1.8036
  904TIP3   OH226906   3.709   3.179  19.184  0.2767 -0.6094 -0.9271
  904TIP3    H126907   3.628   3.227  19.172  0.6209  0.7967  1.7175
  904TIP3    H226908   3.692   3.093  19.146 -1.9073  0.1334 -1.7604
  905TIP3   OH226909   1.413   5.407  16.745 -0.0523  0.2537 -0.5036
  905TIP3    H126910   1.470   5.401  16.669  1.1699  0.4418  0.3594
  905TIP3    H226911   1.415   5.320  16.784  2.0487  0.9341  1.1405
  906TIP3   OH226912   4.138   0.869  19.628  0.1491 -0.4553 -0.2290
  906TIP3    H126913   4.048   0.881  19.659  0.0911 -0.0357 -0.5527
  906TIP3    H226914   4.129   0.847  19.535  0.3006 -2.1770  0.1284
  907TIP3   OH226915   4.260   2.962  18.100 -0.2983 -0.1858  0.2169
  907TIP3    H126916   4.335   3.013  18.071 -0.3319  0.4164  1.1739
  907TIP3    H226917   4.246   2.899  18.029  2.3415 -1.6553  0.8782
  908TIP3   OH226918   2.348   4.107  19.196  0.4862 -0.0474  0.1204
  908TIP3    H126919   2.366   4.115  19.102  3.8718  1.9545  0.7462
  908TIP3    H226920   2.260   4.142  19.207  0.1227 -0.0417 -2.2627
  909TIP3   OH226921   0.164   2.386  19.487 -0.8282  0.4374 -0.0008
  909TIP3    H126922   0.152   2.481  19.483  1.0395  0.6902 -3.4304
  909TIP3    H226923   0.222   2.372  19.561  0.6314  2.2741 -0.7347
  910TIP3   OH226924   3.735   2.730  18.734 -0.3523  0.6762  0.1425
  910TIP3    H126925   3.728   2.803  18.795 -1.5152  0.5972  0.1343
  910TIP3    H226926   3.725   2.770  18.648  0.9451  0.7429  0.0106
  911TIP3   OH226927   0.110   1.817  18.960  0.1067  0.2500 -0.0701
  911TIP3    H126928   0.179   1.870  18.921  1.1477 -0.4955  0.6899
  911TIP3    H226929   0.077   1.870  19.032 -1.0251  1.1431 -1.2085
  912TIP3   OH226930   2.811   5.793  19.132 -0.4390  0.2643 -0.7384
  912TIP3    H126931   2.780   5.768  19.220  0.3201 -1.0437 -0.8080
  912TIP3    H226932   2.737   5.838  19.092 -0.8826  0.6662  0.4852
  913TIP3   OH226933   0.338   5.187  18.169 -0.3591  0.2739 -0.4192
  913TIP3    H126934   0.370   5.257  18.226 -1.1053  0.1558  0.1538
  913TIP3    H226935   0.397   5.113  18.186  0.7839  0.9165 -1.4465
  914TIP3   OH226936   4.357   4.492  19.381  0.2333  0.4625 -0.4167
  914TIP3    H126937   4.339   4.427  19.313 -2.4847 -0.0678  0.6959
  914TIP3    H226938   4.398   4.443  19.451  0.3536  0.4342 -0.5053
  915TIP3   OH226939   6.387   3.082  18.831 -0.0725 -0.3830  0.4557
  915TIP3    H126940   6.426   3.159  18.789 -1.1254 -0.6770 -1.1789
  915TIP3    H226941   6.453   3.013  18.822  0.2265 -0.0989  0.4557
  916TIP3   OH226942   6.784   0.667  19.029 -0.3527 -0.3568 -0.2546
  916TIP3    H126943   6.729   0.621  19.093 -0.7163  1.0968  0.5443
  916TIP3    H226944   6.726   0.733  18.991 -0.0787 -1.0633 -1.9851
  917TIP3   OH226945   0.620   1.653  19.165 -0.0403  0.0122  0.4238
  917TIP3    H126946   0.636   1.685  19.253  0.3771  0.3609  0.2246
  917TIP3    H226947   0.663   1.567  19.162  0.0644  0.0615  0.5192
  918TIP3   OH226948   3.778   2.450  16.963  0.7326 -0.4040  0.1165
  918TIP3    H126949   3.692   2.434  16.923  0.4117  0.5357  0.4030
  918TIP3    H226950   3.834   2.477  16.891  0.5539 -0.1794  0.0601
  919TIP3   OH226951   5.766   1.340  16.963 -0.1843 -0.9885 -0.4689
  919TIP3    H126952   5.717   1.407  16.915 -0.7310 -1.5725 -0.7544
  919TIP3    H226953   5.788   1.380  17.047  1.4504  0.3396 -1.4608
  920TIP3   OH226954   1.050   4.019  18.784  0.9896  0.8264 -0.2658
  920TIP3    H126955   0.971   4.073  18.776  0.0353 -0.5158 -0.3645
  920TIP3    H226956   1.091   4.023  18.698  0.0871  0.1882 -0.7481
  921TIP3   OH226957   6.794   1.595  16.193 -0.0044 -0.0817 -0.1599
  921TIP3    H126958   6.728   1.551  16.246 -1.4157  1.6806 -0.3551
  921TIP3    H226959   6.779   1.561  16.104 -3.3605  2.9484 -1.0124
  922TIP3   OH226960   3.276   2.115  17.395 -0.1555 -0.0824  0.4023
  922TIP3    H126961   3.269   2.028  17.433 -0.1707 -0.0245  0.5316
  922TIP3    H226962   3.211   2.116  17.325 -0.7508  0.1088  0.9484
  923TIP3   OH226963   0.835   3.721  17.130  0.3666 -0.0060  0.4971
  923TIP3    H126964   0.838   3.641  17.078  0.8575  0.0383  0.4463
  923TIP3    H226965   0.866   3.789  17.070 -0.7470  0.3515  0.3178
  924TIP3   OH226966   5.485   1.486  16.839  0.4586 -0.1684  0.1422
  924TIP3    H126967   5.399   1.493  16.880  0.9073  0.0433  1.0837
  924TIP3    H226968   5.467   1.487  16.745 -0.8329 -3.4304  0.2383
  925TIP3   OH226969   0.462   0.202  16.752 -0.4632 -0.5599 -0.4455
  925TIP3    H126970   0.386   0.149  16.727 -1.6163  1.0532 -0.5535
  925TIP3    H226971   0.534   0.168  16.699 -1.2999 -1.6160 -0.9299
  926TIP3   OH226972   3.763   5.190  18.551  0.8695  0.0115  0.4187
  926TIP3    H126973   3.677   5.185  18.593  0.2332  1.7319 -0.5974
  926TIP3    H226974   3.764   5.115  18.491  0.9596 -1.2494  1.9387
  927TIP3   OH226975   0.001   6.579  18.144 -0.1956  0.6083 -0.3172
  927TIP3    H126976  -0.002   6.674  18.138  0.5173  0.6280 -0.5153
  927TIP3    H226977   0.093   6.557  18.127 -0.3366 -0.1069 -0.1901
  928TIP3   OH226978   3.354   5.510  19.697  0.1464 -0.1931  0.4264
  928TIP3    H126979   3.326   5.441  19.637 -1.2401  0.7271 -0.0406
  928TIP3    H226980   3.375   5.584  19.640  1.1994 -0.0700  0.9451
  929TIP3   OH226981   6.474   1.102  17.074  0.4914 -0.5701  0.2378
  929TIP3    H126982   6.437   1.015  17.089 -0.0373 -0.4026 -0.0447
  929TIP3    H226983   6.401   1.153  17.038  1.0279 -0.2565 -0.4263
  930TIP3   OH226984   2.515   6.713  16.722  0.4353 -0.0493  1.0006
  930TIP3    H126985   2.496   6.723  16.629  1.1430 -2.2721  0.5540
  930TIP3    H226986   2.562   6.794  16.745  1.3465  0.0309 -0.8842
  931TIP3   OH226987   2.339   3.934  18.301  0.1819 -0.2755 -0.0394
  931TIP3    H126988   2.378   3.945  18.215 -4.2805  0.3689 -2.2732
  931TIP3    H226989   2.344   3.840  18.318  2.9639 -0.1669  0.0946
  932TIP3   OH226990   5.897   5.762  18.683 -0.3421 -0.3378  0.1226
  932TIP3    H126991   5.970   5.700  18.682 -1.1131 -1.2472 -0.5910
  932TIP3    H226992   5.824   5.713  18.719 -0.5320  0.6810  1.1918
  933TIP3   OH226993   6.666   1.039  19.914 -0.2697  0.3715 -0.2311
  933TIP3    H126994   6.700   1.109  19.970  0.1594 -0.7697  0.9914
  933TIP3    H226995   6.575   1.063  19.899  0.0542  1.5503 -0.4421
  934TIP3   OH226996   3.746   6.245  19.763  0.3197 -0.2153  0.2153
  934TIP3    H126997   3.825   6.220  19.715  0.9214  0.0735  1.0389
  934TIP3    H226998   3.768   6.329  19.803 -0.1379 -0.4984  1.0844
  935TIP3   OH226999   4.404   3.913  17.408  0.2230  0.2622 -0.0802
  935TIP3    H127000   4.482   3.968  17.419 -0.8252  2.1707 -1.5829
  935TIP3    H227001   4.363   3.946  17.328 -2.3126 -0.4601  0.8353
  936TIP3   OH227002   5.536   4.240  17.717 -0.3290  0.2210  0.4631
  936TIP3    H127003   5.444   4.264  17.716 -0.0812  1.4276 -1.9092
  936TIP3    H227004   5.576   4.298  17.652  2.3178  0.5079  2.1904
  937TIP3   OH227005   6.597   0.609  17.393 -0.2158  0.7047 -0.3784
  937TIP3    H127006   6.630   0.534  17.344 -0.3803  0.8102 -0.6548
  937TIP3    H227007   6.502   0.606  17.380 -0.0716  2.3693 -2.4697
  938TIP3   OH227008   2.282   4.571  17.886  0.1635 -0.2839  0.4703
  938TIP3    H127009   2.228   4.508  17.934  0.0397 -0.2317  0.4007
  938TIP3    H227010   2.362   4.523  17.865  1.1533  0.3350  2.6015
  939TIP3   OH227011   1.398   3.947  17.340 -0.1477 -0.5785  0.1137
  939TIP3    H127012   1.415   3.944  17.246  0.3136 -1.0131  0.2141
  939TIP3    H227013   1.406   3.857  17.369 -1.2167 -0.5901  0.4117
  940TIP3   OH227014   2.311   4.325  18.333  0.2030 -0.4367  0.3213
  940TIP3    H127015   2.287   4.394  18.394  1.7418  1.5758 -1.2009
  940TIP3    H227016   2.248   4.334  18.261  0.8378 -0.1285 -0.2034
  941TIP3   OH227017   5.778   2.913  18.014  0.4572 -0.3829  0.4336
  941TIP3    H127018   5.695   2.866  18.023  0.0635 -0.0191 -1.0258
  941TIP3    H227019   5.821   2.903  18.099 -1.0903 -0.5616  1.2186
  942TIP3   OH227020   6.698   6.748  16.288 -0.0884  0.0422  0.0486
  942TIP3    H127021   6.764   6.798  16.336  2.9043 -2.2392 -1.3149
  942TIP3    H227022   6.654   6.812  16.233  0.0091  1.8699  1.9538
  943TIP3   OH227023   6.482   6.116  17.227  0.2064 -0.0016 -0.0294
  943TIP3    H127024   6.444   6.056  17.291 -1.1250  1.6178  0.7753
  943TIP3    H227025   6.526   6.059  17.164 -1.9303 -1.8986  0.0723
  944TIP3   OH227026   0.134   2.455  17.982  0.2233 -0.5620 -0.2873
  944TIP3    H127027   0.109   2.538  17.941  0.1103 -0.7550 -0.6122
  944TIP3    H227028   0.151   2.477  18.073  0.4184 -0.1383 -0.4256
  945TIP3   OH227029   2.551   1.668  17.531  0.4564 -0.1784  0.2092
  945TIP3    H127030   2.479   1.632  17.583  1.0017 -1.2078  0.2781
  945TIP3    H227031   2.620   1.686  17.595  0.7001 -0.3353 -0.0091
  946TIP3   OH227032   4.631   0.836  18.708 -0.1686  0.6069 -0.2288
  946TIP3    H127033   4.561   0.814  18.770 -0.1891  1.5810  0.1144
  946TIP3    H227034   4.706   0.785  18.738 -0.0904  1.2799  0.7954
  947TIP3   OH227035   1.487   2.510  17.894  0.8809 -0.3790  0.3038
  947TIP3    H127036   1.523   2.442  17.837  2.0533  0.3971  0.0718
  947TIP3    H227037   1.530   2.591  17.865 -0.3365  0.4425  0.6914
  948TIP3   OH227038   1.974   3.349  19.912 -0.2652 -0.1725 -0.0821
  948TIP3    H127039   2.069   3.359  19.910 -0.0512 -2.0351 -0.4141
  948TIP3    H227040   1.959   3.256  19.897 -2.2356  0.5455 -3.9261
  949TIP3   OH227041   6.705   4.626  19.636  0.3501 -0.0889  0.1366
  949TIP3    H127042   6.700   4.716  19.668  2.7064  0.0071  0.3838
  949TIP3    H227043   6.734   4.575  19.711 -0.5488 -1.0165 -0.1153
  950TIP3   OH227044   1.277   5.417  19.797  0.0577 -0.7413 -0.0616
  950TIP3    H127045   1.266   5.325  19.775  1.2045 -0.8661 -0.1270
  950TIP3    H227046   1.371   5.431  19.800 -0.0743  0.7123 -1.2231
  951TIP3   OH227047   5.036   4.016  19.523  0.2030  0.0128 -0.1479
  951TIP3    H127048   5.008   3.949  19.461  0.0564 -0.3989  0.3537
  951TIP3    H227049   4.963   4.025  19.584  0.7119 -0.2637  0.5146
  952TIP3   OH227050   1.678   1.084  17.876 -0.6643  0.1050  0.0542
  952TIP3    H127051   1.738   1.159  17.875 -0.0580 -0.3653 -0.8738
  952TIP3    H227052   1.661   1.066  17.783 -1.2860 -0.5286  0.2839
  953TIP3   OH227053   0.437   0.524  17.172  0.2318 -0.1378 -0.0330
  953TIP3    H127054   0.393   0.530  17.257 -0.5970  0.3202 -0.4787
  953TIP3    H227055   0.365   0.523  17.109  0.8352 -0.6710 -0.7248
  954TIP3   OH227056   5.985   2.022  17.450 -0.1099 -0.3903  0.8122
  954TIP3    H127057   6.077   2.031  17.424 -0.1672  0.8846  0.9672
  954TIP3    H227058   5.937   2.044  17.370 -0.3788 -4.4274 -0.3719
  955TIP3   OH227059   2.122   2.098  18.084  0.1077 -0.0113  0.5978
  955TIP3    H127060   2.201   2.138  18.121  0.5633 -0.0578 -0.3025
  955TIP3    H227061   2.055   2.111  18.151  0.7806  0.3780  1.2088
  956TIP3   OH227062   4.018   5.630  17.664 -0.3560  0.5003 -0.4769
  956TIP3    H127063   4.001   5.698  17.729 -1.9407 -0.0420 -0.2873
  956TIP3    H227064   3.950   5.564  17.680  0.1337 -0.3422 -1.7303
  957TIP3   OH227065   0.460   3.458  19.793 -0.3599 -0.2194  0.0974
  957TIP3    H127066   0.499   3.511  19.863 -1.1935 -1.3009  1.4287
  957TIP3    H227067   0.528   3.455  19.725 -0.5009  2.9881 -0.3064
  958TIP3   OH227068   0.015   3.415  16.433  0.3586  0.1854 -0.1257
  958TIP3    H127069   0.051   3.476  16.497  1.7224 -0.0601 -0.6278
  958TIP3    H227070   0.009   3.466  16.352  1.2248 -0.2624 -0.4740
  959TIP3   OH227071   0.309   0.545  18.378 -0.1273 -0.1314  0.0808
  959TIP3    H127072   0.250   0.493  18.432 -0.0488 -1.5296 -1.1066
  959TIP3    H227073   0.392   0.497  18.381 -0.4793 -1.0187 -2.3041
  960TIP3   OH227074   2.783   1.506  19.437  0.7371 -0.1972  0.0199
  960TIP3    H127075   2.739   1.552  19.366 -0.3098 -0.8367  0.2291
  960TIP3    H227076   2.722   1.511  19.511  0.8620 -1.3781  0.2279
  961TIP3   OH227077   0.338   0.341  18.580 -0.0792 -0.1192 -0.2511
  961TIP3    H127078   0.405   0.389  18.628 -1.0794 -0.1732  1.2647
  961TIP3    H227079   0.360   0.249  18.594 -0.5628 -0.1423  0.4465
  962TIP3   OH227080   6.143   1.545  17.063  0.3376  0.4738 -0.2208
  962TIP3    H127081   6.205   1.617  17.050 -0.8984  1.4761 -0.7626
  962TIP3    H227082   6.077   1.557  16.995 -0.1939 -0.8698  0.0167
  963TIP3   OH227083   5.489   5.360  16.733  0.3669  0.2214  0.1740
  963TIP3    H127084   5.571   5.314  16.715 -0.2770 -0.5410 -1.0129
  963TIP3    H227085   5.449   5.371  16.647 -0.6137  0.8994  0.6956
  964TIP3   OH227086   3.780   1.151  18.671  0.1556 -0.5135  0.0488
  964TIP3    H127087   3.810   1.137  18.582 -1.2330  0.6487 -0.6579
  964TIP3    H227088   3.684   1.150  18.664  0.0148  0.9873  1.2506
  965TIP3   OH227089   0.734   4.291  18.313 -0.2814 -0.0375 -0.0216
  965TIP3    H127090   0.740   4.384  18.337  0.1662  0.4011 -1.7365
  965TIP3    H227091   0.647   4.282  18.275 -0.1635 -0.2325 -0.2414
  966TIP3   OH227092   5.931   1.232  17.248  0.7420 -0.0076  0.7701
  966TIP3    H127093   5.876   1.214  17.324  0.6662 -4.2658 -0.0626
  966TIP3    H227094   6.021   1.230  17.281  0.6430  0.9367  1.1345
  967TIP3   OH227095   0.464   2.046  16.241 -0.0108 -0.2711 -0.2010
  967TIP3    H127096   0.449   2.076  16.331  0.6773  0.9821 -0.4882
  967TIP3    H227097   0.386   1.995  16.220 -0.7697  0.5056  0.6553
  968TIP3   OH227098   0.396   1.733  16.032  0.0190  0.3249 -0.3582
  968TIP3    H127099   0.359   1.821  16.037  1.5773  1.0163 -0.6509
  968TIP3    H227100   0.357   1.686  16.106  0.6940  1.8564  1.0220
  969TIP3   OH227101   1.632   6.435  17.660  0.0105  0.0677  0.0362
  969TIP3    H127102   1.660   6.368  17.722 -0.4597  0.3576  0.5650
  969TIP3    H227103   1.709   6.489  17.647  0.3328 -0.4458 -0.2293
  970TIP3   OH227104   2.805   3.883  18.135  0.1551  0.5776  0.5436
  970TIP3    H127105   2.723   3.929  18.119 -0.6141 -1.1699 -1.1235
  970TIP3    H227106   2.782   3.813  18.196  0.4189  0.1787  0.1963
  971TIP3   OH227107   5.723   4.515  17.935 -0.0454 -0.0577  0.0825
  971TIP3    H127108   5.772   4.549  18.010  0.0633  0.2887 -0.1405
  971TIP3    H227109   5.707   4.423  17.955 -0.7743  0.2418  0.9267
  972TIP3   OH227110   4.576   4.935  18.041  0.2608  0.0618  0.1982
  972TIP3    H127111   4.538   4.997  18.103 -0.6700  0.9590 -1.2380
  972TIP3    H227112   4.668   4.961  18.034  0.1017  0.6643  0.3343
  973TIP3   OH227113   1.748   3.137  19.104  0.4948 -0.0303  0.0498
  973TIP3    H127114   1.718   3.138  19.013 -0.9055  0.8849  0.4966
  973TIP3    H227115   1.743   3.045  19.130 -1.5991  0.0246 -0.0262
  974TIP3   OH227116   5.987   5.028  18.527 -0.4036 -0.5679 -0.1908
  974TIP3    H127117   5.913   5.052  18.583 -0.1622  0.3221 -0.2415
  974TIP3    H227118   5.954   5.039  18.437  0.2516  1.3772 -0.2257
  975TIP3   OH227119   5.612   0.335  16.542 -0.0638  0.0641 -0.0364
  975TIP3    H127120   5.617   0.240  16.551 -0.4203  0.1555  1.3220
  975TIP3    H227121   5.560   0.364  16.617  1.7895  1.5090  0.7790
  976TIP3   OH227122   1.207   0.636  17.893  0.5460 -0.6187 -0.1313
  976TIP3    H127123   1.155   0.581  17.951  1.3158 -2.5460 -1.1368
  976TIP3    H227124   1.242   0.574  17.828  1.1847  1.1512 -1.5487
  977TIP3   OH227125   2.058   1.612  19.857 -0.1849 -0.5207 -0.2236
  977TIP3    H127126   2.041   1.608  19.951  1.1124  1.4902  0.1493
  977TIP3    H227127   2.124   1.680  19.847  1.4602 -2.2667 -2.3726
  978TIP3   OH227128   4.536   2.945  18.264  0.1318  0.0953 -0.0193
  978TIP3    H127129   4.539   3.037  18.238 -0.0727  0.6286  1.7071
  978TIP3    H227130   4.626   2.914  18.254  0.0985  0.3061 -1.1276
  979TIP3   OH227131   3.135   6.021  18.788 -0.0053 -0.3236  0.8396
  979TIP3    H127132   3.100   5.995  18.874 -1.0478 -1.0976  0.1966
  979TIP3    H227133   3.212   5.965  18.776  0.3442  0.0231  1.4082
  980TIP3   OH227134   1.205   6.755  16.736  0.0918 -0.1606  0.3207
  980TIP3    H127135   1.160   6.838  16.721  0.1339 -0.0782  0.6468
  980TIP3    H227136   1.290   6.765  16.694  0.1576  0.0210  0.4932
  981TIP3   OH227137   2.890   6.014  18.946 -0.7852  0.2630  0.0109
  981TIP3    H127138   2.830   5.950  18.984 -2.5462  0.5556 -2.1165
  981TIP3    H227139   2.926   6.061  19.022 -0.9126 -1.9156  1.5031
  982TIP3   OH227140   3.838   2.049  20.032  0.6438  0.3256  0.0508
  982TIP3    H127141   3.767   1.986  20.023  0.7034  0.4409 -1.4116
  982TIP3    H227142   3.796   2.129  20.064 -0.1788  0.8698 -2.2545
  983TIP3   OH227143   1.299   5.767  17.579  0.0956  0.4954 -0.5559
  983TIP3    H127144   1.221   5.814  17.609 -0.9321 -1.5582  0.2054
  983TIP3    H227145   1.271   5.721  17.500  1.3049  1.7417 -1.7451
  984TIP3   OH227146   2.870   6.476  19.338  0.0538 -0.1984 -0.2080
  984TIP3    H127147   2.933   6.408  19.360  1.6394  0.2685 -2.8849
  984TIP3    H227148   2.902   6.554  19.383 -0.9736 -0.8431  1.7221
  985TIP3   OH227149   5.612   4.900  17.009  0.0974 -0.9549  0.1734
  985TIP3    H127150   5.534   4.849  17.031 -0.8485  0.3575 -0.0241
  985TIP3    H227151   5.628   4.881  16.917 -0.0374 -1.1803  0.1950
  986TIP3   OH227152   4.459   0.535  18.186 -0.6203 -0.4008 -0.3569
  986TIP3    H127153   4.527   0.570  18.244 -0.4391  0.6765 -1.1782
  986TIP3    H227154   4.467   0.440  18.194  0.1246 -0.2816  0.5380
  987TIP3   OH227155   3.893   5.548  18.829  0.0462 -0.2783 -0.0631
  987TIP3    H127156   3.944   5.512  18.902 -0.2084  1.1199  0.8534
  987TIP3    H227157   3.810   5.576  18.869 -1.3383 -2.1635 -1.4520
  988TIP3   OH227158   5.280   0.981  17.061 -0.6052  0.0960  0.0770
  988TIP3    H127159   5.259   0.895  17.025  1.1003 -0.1496 -0.3906
  988TIP3    H227160   5.220   1.040  17.015 -0.1422 -0.5375 -1.4354
  989TIP3   OH227161   1.340   3.714  16.367  0.0451  0.0098 -0.8362
  989TIP3    H127162   1.288   3.694  16.290 -1.1005  1.2415 -0.4083
  989TIP3    H227163   1.318   3.804  16.389 -1.5225 -0.9852  2.3131
  990TIP3   OH227164   5.129   0.035  18.861  0.1541  0.1606 -0.0345
  990TIP3    H127165   5.096  -0.051  18.890 -1.1289  1.1934  1.7394
  990TIP3    H227166   5.221   0.018  18.840  0.0117 -1.6110  0.5241
  991TIP3   OH227167   3.347   6.494  19.596 -0.7963 -0.0569  0.3021
  991TIP3    H127168   3.305   6.525  19.516 -0.1703 -1.2795 -0.5535
  991TIP3    H227169   3.308   6.408  19.612  0.6537 -0.8109  0.0074
  992TIP3   OH227170   1.715   2.014  16.774  0.3051  0.2334 -0.1828
  992TIP3    H127171   1.784   2.050  16.717  2.4049 -0.2306  1.9009
  992TIP3    H227172   1.763   1.968  16.843 -2.1628 -1.2572  0.6720
  993TIP3   OH227173   0.806   0.357  16.745 -0.1304 -0.4468  0.1040
  993TIP3    H127174   0.839   0.429  16.691 -0.7974 -0.5757 -0.4930
  993TIP3    H227175   0.738   0.396  16.799 -1.6473 -0.9117 -1.3763
  994TIP3   OH227176   4.728   3.435  19.781 -0.8010 -0.1430  0.1180
  994TIP3    H127177   4.822   3.429  19.794 -0.5370 -1.1122 -1.9699
  994TIP3    H227178   4.701   3.505  19.841  1.0662 -0.4398  1.4176
  995TIP3   OH227179   5.332   6.769  19.726  0.3226  0.1993  0.1793
  995TIP3    H127180   5.243   6.801  19.743  0.2766 -0.8950  2.3997
  995TIP3    H227181   5.335   6.753  19.632 -0.6321  3.6445 -0.5580
  996TIP3   OH227182   3.337   4.721  18.469  0.4615  0.3272  0.1308
  996TIP3    H127183   3.372   4.800  18.511  0.5115 -0.0153  0.7525
  996TIP3    H227184   3.302   4.669  18.542 -0.8075  0.3856 -0.4075
  997TIP3   OH227185   1.069   0.585  18.890 -0.1421  0.0430  0.1905
  997TIP3    H127186   1.139   0.533  18.931 -0.0367  1.4384  1.9312
  997TIP3    H227187   1.115   0.643  18.829  0.2449  0.7774  1.1413
  998TIP3   OH227188   2.934   1.798  19.295 -0.0684 -0.2713  0.5821
  998TIP3    H127189   3.023   1.828  19.276 -0.0359 -0.5284  0.3141
  998TIP3    H227190   2.927   1.714  19.249 -1.2742  0.8825 -1.4703
  999TIP3   OH227191   4.804   6.107  18.019  0.3510 -0.0697 -1.1627
  999TIP3    H127192   4.806   6.198  17.990  0.9199  0.3631  0.1550
  999TIP3    H227193   4.719   6.098  18.063  1.6214  0.8729  1.7348
 1000TIP3   OH227194   3.137   5.793  18.049  0.4308 -1.0710 -0.0845
 1000TIP3    H127195   3.196   5.854  18.005 -0.9973 -0.0631 -0.6724
 1000TIP3    H227196   3.153   5.709  18.006  0.2043 -0.4324 -1.4651
 1001TIP3   OH227197   0.552   1.886  18.169  0.0283  0.3455 -0.0050
 1001TIP3    H127198   0.611   1.895  18.245  0.1720 -2.8441  0.4261
 1001TIP3    H227199   0.496   1.812  18.192 -0.6610 -0.0176 -2.5927
 1002TIP3   OH227200   0.002   3.855  19.721  0.1386 -0.0013  0.3310
 1002TIP3    H127201  -0.008   3.949  19.706 -0.9213  0.0439  1.1592
 1002TIP3    H227202   0.082   3.847  19.772  0.9848  0.3012 -0.8925
 1003TIP3   OH227203   1.490   2.497  18.275  0.2969  0.0869 -0.2570
 1003TIP3    H127204   1.529   2.428  18.327 -0.0748 -0.8483 -1.1815
 1003TIP3    H227205   1.450   2.556  18.339 -1.4687 -1.8135  0.5055
 1004TIP3   OH227206   5.077   2.446  18.892 -0.2655 -0.0116 -0.2623
 1004TIP3    H127207   5.025   2.519  18.925  0.1413 -0.3467  1.1756
 1004TIP3    H227208   5.017   2.372  18.893  0.5062 -0.7369  2.7715
 1005TIP3   OH227209   2.318   1.735  16.997 -0.3856 -0.3701 -0.3476
 1005TIP3    H127210   2.368   1.756  17.075 -1.2714 -2.1576  0.7632
 1005TIP3    H227211   2.384   1.726  16.928  0.3583  1.7676  0.0103
 1006TIP3   OH227212   5.133   3.002  19.723  0.5457 -0.4357 -0.2775
 1006TIP3    H127213   5.092   3.025  19.639 -0.4785  2.0503  0.7938
 1006TIP3    H227214   5.059   2.984  19.781  0.8973  2.4530  1.2466
 1007TIP3   OH227215   5.331   6.062  19.467  0.0873  0.4328 -0.7169
 1007TIP3    H127216   5.411   6.056  19.518  0.3627 -0.7885 -1.2360
 1007TIP3    H227217   5.283   5.981  19.489 -0.2814  0.4124 -1.5574
 1008TIP3   OH227218   6.086   5.652  17.403  0.1810  0.3373 -0.0062
 1008TIP3    H127219   6.002   5.688  17.431  0.2135  0.4374 -0.0373
 1008TIP3    H227220   6.116   5.712  17.335  0.9991  1.1697  1.0453
 1009TIP3   OH227221   0.204   6.202  18.757 -0.3336  0.2523  0.2479
 1009TIP3    H127222   0.203   6.170  18.847  0.5640  0.4532  0.3354
 1009TIP3    H227223   0.274   6.267  18.755 -0.9787  0.9408 -0.3641
 1010TIP3   OH227224   2.171   5.848  19.466  0.1325 -0.5826 -0.1076
 1010TIP3    H127225   2.231   5.864  19.393 -0.1294 -0.7549 -0.3631
 1010TIP3    H227226   2.217   5.784  19.521  0.2933 -0.5202 -0.1699
 1011TIP3   OH227227   0.909   3.039  19.653  0.2590  0.1780 -0.5285
 1011TIP3    H127228   0.964   3.107  19.612 -0.0439  1.2019  0.7007
 1011TIP3    H227229   0.966   2.963  19.660  1.2630  0.9445 -0.1035
 1012TIP3   OH227230   0.364   4.750  19.095 -0.0184  0.1099 -0.0322
 1012TIP3    H127231   0.406   4.832  19.124  0.4211 -0.3429  0.6463
 1012TIP3    H227232   0.281   4.778  19.056  0.4924  0.9510 -0.5670
 1013TIP3   OH227233   5.123   2.638  18.145  0.1184  0.0543  0.0958
 1013TIP3    H127234   5.075   2.614  18.225  1.9285  0.2440  1.2966
 1013TIP3    H227235   5.214   2.646  18.173  0.8569 -0.1130 -2.0656
 1014TIP3   OH227236   4.997   0.230  17.685 -0.2055 -0.6066  0.2593
 1014TIP3    H127237   4.984   0.204  17.776 -0.0570  0.1964  0.5114
 1014TIP3    H227238   4.963   0.156  17.634  0.7878 -1.5811  0.9628
 1015TIP3   OH227239   3.154   1.243  18.890 -0.5372 -0.0398 -0.6440
 1015TIP3    H127240   3.187   1.218  18.976  0.0341 -1.1513 -1.1685
 1015TIP3    H227241   3.075   1.295  18.908 -0.2675 -0.0292  0.5456
 1016TIP3   OH227242   2.542   6.156  19.796  0.2439 -0.1633  0.5757
 1016TIP3    H127243   2.527   6.072  19.752  0.6905  0.3726 -0.6439
 1016TIP3    H227244   2.456   6.198  19.799  0.1423 -0.3712  0.5902
 1017TIP3   OH227245   5.024   1.416  20.155  0.1586  0.3958 -0.0664
 1017TIP3    H127246   5.022   1.326  20.124  1.6116  0.3073  0.0344
 1017TIP3    H227247   5.018   1.409  20.250 -0.1469  0.4421 -0.0783
 1018TIP3   OH227248   5.128   0.729  19.773  0.2057  0.5857 -0.6117
 1018TIP3    H127249   5.200   0.776  19.816  0.8055  0.0534 -1.0247
 1018TIP3    H227250   5.051   0.751  19.826  0.9259 -0.0783  0.7804
 1019TIP3   OH227251   2.391   4.917  17.190  0.2986 -0.3008  0.0422
 1019TIP3    H127252   2.404   4.933  17.284 -0.8730 -1.0270  0.3453
 1019TIP3    H227253   2.377   5.004  17.153  0.5356 -0.0274  0.5826
 1020TIP3   OH227254   4.678   5.530  19.866 -0.0124 -0.3245 -0.2956
 1020TIP3    H127255   4.770   5.535  19.890 -0.0619  4.2134 -0.0796
 1020TIP3    H227256   4.633   5.505  19.947  0.8294  1.3050  0.7316
 1021TIP3   OH227257   2.634   4.807  17.953  0.4729  0.1835  0.5370
 1021TIP3    H127258   2.650   4.713  17.944 -0.4739 -0.0745  1.3978
 1021TIP3    H227259   2.691   4.834  18.025  0.7093  0.2683  0.3202
 1022TIP3   OH227260   3.831   2.356  17.432  0.1096  0.4769 -0.1942
 1022TIP3    H127261   3.788   2.334  17.350 -1.7361  0.0200  0.8401
 1022TIP3    H227262   3.802   2.446  17.451 -2.5813 -0.6776  1.7484
 1023TIP3   OH227263   1.028   3.709  18.623  0.1154  0.2337 -0.2903
 1023TIP3    H127264   0.979   3.777  18.671  2.8303  1.4552  0.9767
 1023TIP3    H227265   1.017   3.733  18.531  1.9880  3.3079  0.1368
 1024TIP3   OH227266   2.831   0.224  17.438  0.0478 -0.1659  0.0275
 1024TIP3    H127267   2.910   0.277  17.437 -0.1000  0.0622  0.2846
 1024TIP3    H227268   2.859   0.139  17.473  0.7341 -0.9961 -2.3915
 1025TIP3   OH227269   4.787   1.875  17.702 -0.1976 -0.2274 -0.1207
 1025TIP3    H127270   4.809   1.818  17.776  1.9167  0.3875 -0.2037
 1025TIP3    H227271   4.729   1.821  17.647 -0.6181 -1.2138  1.2254
 1026TIP3   OH227272   5.885   1.625  17.814  0.1392 -0.0056  0.1549
 1026TIP3    H127273   5.976   1.594  17.819 -0.4490 -2.1976 -1.2571
 1026TIP3    H227274   5.876   1.656  17.724 -0.8637 -1.1254 -0.1502
 1027TIP3   OH227275   5.477   4.312  18.252 -0.2483  0.1561 -0.1783
 1027TIP3    H127276   5.438   4.236  18.296  1.6483  0.0816  1.4781
 1027TIP3    H227277   5.555   4.332  18.303  0.9470  1.3722 -2.3713
 1028TIP3   OH227278   0.706   5.611  19.027  0.0326 -0.4269 -0.0248
 1028TIP3    H127279   0.788   5.653  19.055 -0.7640  1.0737  0.1470
 1028TIP3    H227280   0.651   5.683  18.996 -0.9083 -1.5097 -0.9805
 1029TIP3   OH227281   4.488   4.183  19.003  0.3580  0.0731 -0.2690
 1029TIP3    H127282   4.578   4.211  18.989  0.4866  0.6480  1.4569
 1029TIP3    H227283   4.469   4.125  18.929  1.6289  1.0922 -1.4577
 1030TIP3   OH227284   4.084   2.296  17.361  0.3448  1.4859 -0.1627
 1030TIP3    H127285   4.120   2.384  17.364 -1.5585  2.4193 -2.0804
 1030TIP3    H227286   3.991   2.308  17.381  0.0534 -0.1023 -0.4361
 1031TIP3   OH227287   1.350   6.314  17.848 -0.6872  0.1172  0.1050
 1031TIP3    H127288   1.350   6.234  17.796 -0.7982  0.1268  0.0893
 1031TIP3    H227289   1.262   6.350  17.836 -0.6692  0.1906  0.1888
 1032TIP3   OH227290   5.692   4.628  16.381 -0.2806  1.1774  0.3996
 1032TIP3    H127291   5.784   4.653  16.395  0.6986 -1.7034 -0.2904
 1032TIP3    H227292   5.683   4.544  16.425 -2.3578  0.9547 -0.3507
 1033TIP3   OH227293   0.573   1.045  18.040  0.4296  0.5022  0.2689
 1033TIP3    H127294   0.568   1.040  17.945 -1.6931  0.6256  0.3265
 1033TIP3    H227295   0.563   1.138  18.060 -3.2515  0.1476  0.6831
 1034TIP3   OH227296   0.070   5.184  18.203 -0.2040 -0.5331 -0.4855
 1034TIP3    H127297   0.160   5.175  18.172  0.0752 -0.2594  0.2318
 1034TIP3    H227298   0.059   5.277  18.218 -0.4704 -0.6139 -0.1738
 1035TIP3   OH227299   3.005   4.801  18.030 -0.1519  0.5598  0.1175
 1035TIP3    H127300   3.043   4.865  17.969 -1.2405  0.4869 -0.6847
 1035TIP3    H227301   2.913   4.828  18.037 -0.9870 -1.6458 -1.3102
 1036TIP3   OH227302   5.933   2.608  17.820  0.3679  0.1879 -0.3082
 1036TIP3    H127303   5.909   2.697  17.797  0.0120  1.0924  2.9971
 1036TIP3    H227304   6.028   2.610  17.833  0.2261  0.3950  0.7836
 1037TIP3   OH227305   0.523   1.554  19.821  0.6061  0.1804  0.1367
 1037TIP3    H127306   0.541   1.475  19.871  1.6839 -0.2405 -0.8891
 1037TIP3    H227307   0.472   1.524  19.746  1.3061  0.4055 -0.4364
 1038TIP3   OH227308   1.551   4.317  17.269  0.2877 -0.4167  0.4700
 1038TIP3    H127309   1.634   4.362  17.253  0.5040 -0.6337  0.9539
 1038TIP3    H227310   1.485   4.375  17.231  0.6439 -0.1468  0.2551
 1039TIP3   OH227311   1.356   1.870  17.572  0.1173 -0.1007  0.8259
 1039TIP3    H127312   1.283   1.932  17.570  0.4930  0.3581 -1.3990
 1039TIP3    H227313   1.434   1.925  17.586  0.6119  0.2705 -2.4666
 1040TIP3   OH227314   3.304   3.694  17.064  0.3817  0.3101 -0.2404
 1040TIP3    H127315   3.246   3.707  17.139 -1.5962 -0.3145 -1.5460
 1040TIP3    H227316   3.326   3.783  17.035  0.2950  0.5583  0.4401
 1041TIP3   OH227317   5.429   1.551  17.829  0.4977 -0.1207 -0.1245
 1041TIP3    H127318   5.444   1.470  17.781  0.2893 -1.2097  1.5442
 1041TIP3    H227319   5.339   1.576  17.807  0.1957 -0.9358  0.1510
 1042TIP3   OH227320   4.665   5.809  18.568 -0.3049  0.4024 -0.2069
 1042TIP3    H127321   4.572   5.834  18.568 -0.8416 -1.3876 -0.8990
 1042TIP3    H227322   4.675   5.757  18.648  0.4947  1.8303  0.6396
 1043TIP3   OH227323   6.609   0.959  18.638  0.3126  0.1597 -0.2114
 1043TIP3    H127324   6.577   0.893  18.576  1.8953 -1.3159  0.4822
 1043TIP3    H227325   6.694   0.985  18.603  1.3989 -0.9664  1.4896
 1044TIP3   OH227326   0.037   3.123  17.657 -0.5722 -0.0863  0.2452
 1044TIP3    H127327   0.044   3.212  17.622  0.5961  0.4310  1.7137
 1044TIP3    H227328  -0.026   3.130  17.729 -1.4272 -0.7266 -0.4206
 1045TIP3   OH227329   1.178   3.050  16.291  0.3050  0.3063  0.0151
 1045TIP3    H127330   1.221   3.128  16.255 -0.1162 -0.0151 -1.2658
 1045TIP3    H227331   1.217   3.038  16.377  0.7192  1.6608  0.0393
 1046TIP3   OH227332   5.190   1.898  17.858  0.7602 -0.5071  0.2583
 1046TIP3    H127333   5.269   1.950  17.874 -0.2229  1.0723  0.1786
 1046TIP3    H227334   5.172   1.911  17.765  0.2413 -0.5962  0.3455
 1047TIP3   OH227335   6.659   0.197  18.547 -0.3643  0.1321 -0.4396
 1047TIP3    H127336   6.747   0.200  18.509 -0.8070 -0.6252 -1.5973
 1047TIP3    H227337   6.628   0.287  18.543 -0.7126 -0.0365 -2.7560
 1048TIP3   OH227338   1.075   0.348  19.643 -0.1396 -0.2685 -0.1094
 1048TIP3    H127339   1.125   0.415  19.691 -0.5262 -0.0117 -0.0597
 1048TIP3    H227340   1.050   0.284  19.709  0.5809 -0.6809 -0.2280
 1049TIP3   OH227341   5.792   1.962  17.988  0.0720 -0.0532 -0.0718
 1049TIP3    H127342   5.815   1.905  17.915  0.2897 -0.9247  0.6661
 1049TIP3    H227343   5.862   1.950  18.051 -0.6396 -0.0842  0.7197
 1050TIP3   OH227344   3.548   2.944  19.552 -0.1266 -0.0373 -0.0610
 1050TIP3    H127345   3.490   2.877  19.588 -0.9231  1.7251  2.1934
 1050TIP3    H227346   3.636   2.908  19.562 -0.5925 -1.2116 -0.0167
 1051TIP3   OH227347   0.125   0.921  19.989  0.3003  0.1764  0.4122
 1051TIP3    H127348   0.031   0.917  19.976 -0.0366  1.0160  2.2721
 1051TIP3    H227349   0.155   0.831  19.975 -0.8962 -0.2750  0.6249
 1052TIP3   OH227350   0.933   1.446  18.202  0.3102  0.1295 -0.4351
 1052TIP3    H127351   0.945   1.441  18.297  0.2894  1.7314 -0.3264
 1052TIP3    H227352   1.008   1.399  18.167  2.2379  2.3890  0.3752
 1053TIP3   OH227353   5.091   0.619  18.927 -0.3846 -0.5462  0.3030
 1053TIP3    H127354   5.069   0.708  18.956 -1.3215 -1.1011  1.3470
 1053TIP3    H227355   5.178   0.603  18.965 -0.0699  0.0174 -0.1491
 1054TIP3   OH227356   2.376   3.742  17.812 -0.4281 -0.2498 -0.1808
 1054TIP3    H127357   2.292   3.746  17.767 -0.3537  1.5499 -0.2411
 1054TIP3    H227358   2.440   3.768  17.745  0.1054 -0.9259  0.0503
 1055TIP3   OH227359   2.372   2.265  18.456 -0.4732 -0.5717  0.0941
 1055TIP3    H127360   2.392   2.198  18.521 -0.9245 -0.0294  0.7974
 1055TIP3    H227361   2.451   2.318  18.450 -0.4251 -0.6348  0.1726
 1056TIP3   OH227362   2.729   5.165  18.680  0.0478 -0.2906  0.0531
 1056TIP3    H127363   2.719   5.186  18.773  0.1727 -0.1468  0.0323
 1056TIP3    H227364   2.822   5.144  18.670 -0.0037 -0.4983  0.0006
 1057TIP3   OH227365   6.407   2.199  17.922  0.5898 -0.3738 -0.2978
 1057TIP3    H127366   6.480   2.253  17.894 -0.3410  1.5509  0.7134
 1057TIP3    H227367   6.423   2.184  18.015 -1.0388  1.5423  0.3843
 1058TIP3   OH227368   3.909   1.630  17.181  0.0229  0.6990 -0.2157
 1058TIP3    H127369   3.878   1.571  17.112 -0.2610 -0.7487  1.1012
 1058TIP3    H227370   3.971   1.578  17.231  3.2974  2.9395 -1.6184
 1059TIP3   OH227371   0.453   4.380  17.187 -0.4651  0.5657 -0.2631
 1059TIP3    H127372   0.544   4.373  17.216 -0.0071 -0.7546 -1.9248
 1059TIP3    H227373   0.402   4.341  17.259  0.4044 -0.1500 -0.0186
 1060TIP3   OH227374   3.290   3.585  19.701  0.4124  0.2417 -0.2404
 1060TIP3    H127375   3.220   3.648  19.685  1.3651  1.3947  0.0361
 1060TIP3    H227376   3.370   3.637  19.703  1.1739 -0.9056  0.4995
 1061TIP3   OH227377   3.118   4.047  20.135 -0.6284  0.5604 -0.0525
 1061TIP3    H127378   3.207   4.036  20.166 -0.8010  1.9422  1.0543
 1061TIP3    H227379   3.103   4.142  20.139 -2.2430  0.3267  0.1062
 1062TIP3   OH227380   3.680   0.808  16.896 -0.1071 -0.4033 -0.1830
 1062TIP3    H127381   3.768   0.832  16.924 -0.0192 -0.2484 -0.5792
 1062TIP3    H227382   3.624   0.877  16.932  0.1565  0.4810 -1.3917
 1063TIP3   OH227383   4.748   3.440  18.559  0.0319 -0.3234 -0.3296
 1063TIP3    H127384   4.748   3.530  18.524  1.1665 -0.6143 -1.1672
 1063TIP3    H227385   4.827   3.436  18.614 -0.6056 -0.4984  0.5914
 1064TIP3   OH227386   3.137   4.390  19.627  0.2382 -0.3645  0.5506
 1064TIP3    H127387   3.157   4.476  19.590 -1.6841  0.6482  1.6633
 1064TIP3    H227388   3.071   4.353  19.568  2.6579 -2.1645 -1.2019
 1065TIP3   OH227389   5.772   4.575  16.854 -0.2972  0.2214  0.1214
 1065TIP3    H127390   5.703   4.545  16.795 -1.0852 -0.1145  1.1816
 1065TIP3    H227391   5.839   4.612  16.796 -1.0222 -0.1318 -0.9730
 1066TIP3   OH227392   5.522   2.527  17.879 -0.4256 -0.0974 -0.3346
 1066TIP3    H127393   5.569   2.516  17.796  2.7288 -0.4143  1.3397
 1066TIP3    H227394   5.544   2.450  17.930 -1.3366  0.6292  1.2424
 1067TIP3   OH227395   3.683   2.928  17.846 -0.1625 -0.1655  0.4243
 1067TIP3    H127396   3.617   2.874  17.889 -1.4787  1.8090  1.0358
 1067TIP3    H227397   3.698   3.000  17.907  0.4725  0.9097 -0.9625
 1068TIP3   OH227398   0.741   3.653  18.413 -0.2409 -0.5544 -0.1008
 1068TIP3    H127399   0.685   3.687  18.343 -1.3062 -0.6398  0.6912
 1068TIP3    H227400   0.798   3.726  18.435 -0.4892 -0.2468 -0.4544
 1069TIP3   OH227401   1.116   3.279  17.750  0.1621  0.2677 -0.1445
 1069TIP3    H127402   1.197   3.258  17.705 -0.0219  2.1990 -1.5188
 1069TIP3    H227403   1.049   3.230  17.702  0.3902 -0.5675  0.3808
 1070TIP3   OH227404   4.392   5.840  19.764  0.1361  0.1674 -0.2580
 1070TIP3    H127405   4.438   5.771  19.716  4.2014  1.9747  0.6041
 1070TIP3    H227406   4.351   5.893  19.696  0.3842 -0.8516 -1.2340
 1071TIP3   OH227407   1.111   3.029  19.045 -0.3416 -0.1066 -0.0123
 1071TIP3    H127408   1.058   3.000  19.120  0.6783  0.3086  0.8989
 1071TIP3    H227409   1.050   3.079  18.991 -1.1570 -0.6255  0.3986
 1072TIP3   OH227410   0.090   0.327  18.019 -0.0592  0.0559  0.3381
 1072TIP3    H127411   0.163   0.266  18.007 -1.2409 -1.9910  2.7033
 1072TIP3    H227412   0.130   0.404  18.059  0.9237 -0.6646  0.7831
 1073TIP3   OH227413   3.424   6.402  16.582 -0.2528 -0.2315 -0.1476
 1073TIP3    H127414   3.402   6.468  16.647 -0.0758 -1.0267  0.7478
 1073TIP3    H227415   3.519   6.406  16.573 -0.3751  0.7059 -1.2910
 1074TIP3   OH227416   3.965   4.125  17.577  0.2319 -0.1881 -0.4620
 1074TIP3    H127417   3.926   4.159  17.496  0.8327  1.8239  0.0431
 1074TIP3    H227418   4.045   4.176  17.589 -0.3100  0.2114  1.8830
 1075TIP3   OH227419   1.141   4.547  17.242 -0.3905 -0.1825 -0.9546
 1075TIP3    H127420   1.119   4.638  17.265 -0.5629 -0.3763 -0.3433
 1075TIP3    H227421   1.072   4.521  17.180 -0.6492 -0.0713 -0.7171
 1076TIP3   OH227422   5.404   4.588  19.423 -0.3728  0.7579 -0.3868
 1076TIP3    H127423   5.484   4.564  19.469 -0.7727  1.5409  0.7601
 1076TIP3    H227424   5.354   4.506  19.417  0.2498  0.3866 -0.6045
 1077TIP3   OH227425   1.302   2.740  17.744 -0.0499  0.8497  0.1929
 1077TIP3    H127426   1.301   2.819  17.691  0.6659  0.5438 -0.2974
 1077TIP3    H227427   1.358   2.762  17.819  1.2203  0.4320 -0.5892
 1078TIP3   OH227428   2.580   0.089  18.208 -0.1223  1.1431  0.1119
 1078TIP3    H127429   2.570   0.109  18.301  0.4060  1.6834  0.0570
 1078TIP3    H227430   2.661   0.039  18.204 -0.2629  0.9248 -0.0383
 1079TIP3   OH227431   1.508   4.599  19.637  0.2736  0.4230 -0.0841
 1079TIP3    H127432   1.572   4.552  19.689  0.4145 -0.4796 -1.0474
 1079TIP3    H227433   1.553   4.679  19.610  0.8537  0.0032 -0.3865
 1080TIP3   OH227434   5.995   4.072  17.136  0.0116 -0.4358 -0.1816
 1080TIP3    H127435   6.038   4.142  17.185  0.0095  0.3392 -1.2589
 1080TIP3    H227436   6.023   4.085  17.046  1.1559 -2.6843 -0.2290
 1081TIP3   OH227437   4.190   0.562  18.272  0.7285 -0.2634  0.0355
 1081TIP3    H127438   4.272   0.518  18.247  1.3723 -0.6481  2.5285
 1081TIP3    H227439   4.211   0.655  18.271  1.9238 -0.4048  2.5382
 1082TIP3   OH227440   2.896   4.565  19.331  0.2589 -0.1076 -0.0967
 1082TIP3    H127441   2.824   4.517  19.370 -1.2565  2.3139  0.2791
 1082TIP3    H227442   2.964   4.565  19.398 -0.6745  0.3590  0.8711
 1083TIP3   OH227443   1.096   1.191  18.240 -0.9771  0.1720  0.2786
 1083TIP3    H127444   1.134   1.106  18.217 -1.2248  0.1239  0.0441
 1083TIP3    H227445   1.008   1.171  18.271 -0.8754  0.3018  0.6480
 1084TIP3   OH227446   5.085   3.265  19.538 -0.1855 -0.4712 -0.4168
 1084TIP3    H127447   5.023   3.197  19.514 -0.0166 -0.8798  0.2645
 1084TIP3    H227448   5.160   3.251  19.481  0.4555 -1.7987  0.6968
 1085TIP3   OH227449   4.899   3.855  18.083  0.5502  0.2996  0.5246
 1085TIP3    H127450   4.826   3.900  18.124  1.0335  1.8846 -0.2924
 1085TIP3    H227451   4.967   3.852  18.150  0.7646  1.4401  0.3664
 1086TIP3   OH227452   0.004   5.361  18.685 -0.4851  0.1001  0.1576
 1086TIP3    H127453  -0.019   5.285  18.631 -3.6077  0.7087  0.4679
 1086TIP3    H227454  -0.042   5.346  18.768 -2.2512  2.8643 -0.2220
 1087TIP3   OH227455   6.662   4.409  19.906  0.3937 -0.0351 -0.2780
 1087TIP3    H127456   6.618   4.494  19.904  1.6587  0.7301  1.4367
 1087TIP3    H227457   6.755   4.430  19.899  0.7195 -1.3095 -0.0976
 1088TIP3   OH227458   2.388   3.815  19.059 -0.3809 -0.3770 -0.3548
 1088TIP3    H127459   2.310   3.827  19.114 -0.3620  1.9839 -0.7760
 1088TIP3    H227460   2.396   3.896  19.009  3.0821  0.0254  0.5956
 1089TIP3   OH227461   0.223   2.256  17.769  0.1746 -0.6258  0.4050
 1089TIP3    H127462   0.306   2.208  17.768  0.1639 -0.8293  2.6910
 1089TIP3    H227463   0.237   2.326  17.833 -1.9522 -1.8612  2.4130
 1090TIP3   OH227464   2.433   2.382  18.983  0.2681  0.1179 -0.1761
 1090TIP3    H127465   2.438   2.369  19.077  1.1527 -0.3101 -0.2669
 1090TIP3    H227466   2.494   2.318  18.947 -1.9515 -1.5433 -1.2104
 1091TIP3   OH227467   1.242   2.354  18.039 -0.0227  0.1005  0.6245
 1091TIP3    H127468   1.313   2.412  18.013  0.1086  0.0649  0.9044
 1091TIP3    H227469   1.162   2.402  18.016  0.0840  0.4230  0.9227
 1092TIP3   OH227470   2.180   2.892  18.504 -0.6888 -0.0507  0.0227
 1092TIP3    H127471   2.106   2.935  18.461  1.0925  1.5489 -1.6284
 1092TIP3    H227472   2.222   2.961  18.555  2.0617  0.3102 -2.4388
 1093TIP3   OH227473   6.755   4.809  17.620 -0.1699 -0.1917 -0.3959
 1093TIP3    H127474   6.710   4.889  17.648 -0.0880 -0.5300  0.7441
 1093TIP3    H227475   6.840   4.813  17.664 -0.4385 -1.2458  0.2356
 1094TIP3   OH227476   5.077   3.649  18.788  1.2954  1.0910  0.2258
 1094TIP3    H127477   5.144   3.671  18.853  0.4446  0.9438  1.1862
 1094TIP3    H227478   5.000   3.700  18.814 -0.1266 -1.4621  1.3891
 1095TIP3   OH227479   1.682   5.513  17.247  0.1727  0.0743 -0.9568
 1095TIP3    H127480   1.770   5.479  17.264  0.0057  0.0441 -0.1095
 1095TIP3    H227481   1.631   5.436  17.221  0.3094  0.0294 -1.0921
 1096TIP3   OH227482   1.347   1.932  18.461  0.2277 -0.2900  0.2145
 1096TIP3    H127483   1.414   1.994  18.492 -0.4556  0.9187 -0.6514
 1096TIP3    H227484   1.389   1.847  18.469  0.9843  0.2006  2.0117
 1097TIP3   OH227485   3.590   5.631  16.605  0.2466  0.0303  0.8624
 1097TIP3    H127486   3.512   5.578  16.588  0.0713  0.7477 -0.7222
 1097TIP3    H227487   3.557   5.709  16.650  0.0606  0.2673  0.3218
 1098TIP3   OH227488   6.686   5.496  19.417 -0.1341 -0.3091  0.2923
 1098TIP3    H127489   6.775   5.531  19.426 -0.5422  0.9500 -0.3382
 1098TIP3    H227490   6.694   5.405  19.444  2.3166 -1.5783 -3.7705
 1099TIP3   OH227491   0.534   1.372  18.736 -0.2489  0.2552 -0.0137
 1099TIP3    H127492   0.572   1.284  18.741  0.0126  0.2526 -1.5232
 1099TIP3    H227493   0.548   1.399  18.645 -0.0549  1.9838  0.4974
 1100TIP3   OH227494   5.372   3.925  17.330 -0.0211 -0.6009  0.5391
 1100TIP3    H127495   5.298   3.887  17.377 -0.5891  2.1608  2.1160
 1100TIP3    H227496   5.442   3.929  17.395 -0.2301  1.6051  0.6979
 1101TIP3   OH227497   1.560   2.023  17.640  0.0672  0.4224  0.0216
 1101TIP3    H127498   1.601   2.108  17.625 -0.3692  0.4405 -1.1616
 1101TIP3    H227499   1.614   1.982  17.708  0.3450  1.5927  0.5384
 1102TIP3   OH227500   0.948   4.633  18.446  0.4685 -0.0321  0.7984
 1102TIP3    H127501   1.023   4.689  18.424  0.5014 -0.9697 -1.8643
 1102TIP3    H227502   0.872   4.690  18.436  0.4245 -0.4494 -2.7571
 1103TIP3   OH227503   4.969   5.495  19.924  0.3042  0.0040  0.2409
 1103TIP3    H127504   4.994   5.585  19.904 -1.2811  0.1372 -1.3981
 1103TIP3    H227505   5.038   5.441  19.885 -0.2051  0.4518 -1.3603
 1104TIP3   OH227506   5.014   5.132  19.670  0.0558 -0.6736  0.1589
 1104TIP3    H127507   4.935   5.172  19.633  0.6839 -0.1262 -0.6225
 1104TIP3    H227508   5.032   5.058  19.612  1.0519  0.1971 -0.7051
 1105TIP3   OH227509   2.753   0.090  19.173  0.0519 -0.0401 -0.2090
 1105TIP3    H127510   2.747   0.024  19.242 -2.6627  0.7735  0.4624
 1105TIP3    H227511   2.816   0.154  19.207 -3.1898  1.8195  3.0466
 1106TIP3   OH227512   5.029   6.788  18.195 -0.4243  0.0838  0.0113
 1106TIP3    H127513   5.117   6.802  18.231 -0.4356 -1.7479  0.8453
 1106TIP3    H227514   4.985   6.734  18.260 -2.2161  1.0365 -0.3646
 1107TIP3   OH227515   5.539   0.184  18.798  0.0975 -0.2221 -0.2751
 1107TIP3    H127516   5.598   0.155  18.868 -0.2885 -1.0171 -0.2649
 1107TIP3    H227517   5.550   0.279  18.796 -0.0807 -0.1441  1.0615
 1108TIP3   OH227518   4.330   1.936  17.641 -0.2795 -0.1986 -1.0755
 1108TIP3    H127519   4.272   1.971  17.573 -0.2697  1.0810 -0.4599
 1108TIP3    H227520   4.283   1.953  17.723 -0.3583 -1.8488 -0.7474
 1109TIP3   OH227521   3.458   0.565  17.892  0.6373 -0.0102 -0.3072
 1109TIP3    H127522   3.513   0.528  17.961  1.7966 -0.8545 -1.6359
 1109TIP3    H227523   3.513   0.631  17.850  0.1203  0.1550 -0.7410
 1110TIP3   OH227524   4.578   3.884  18.813  0.0109 -0.0676  0.3046
 1110TIP3    H127525   4.508   3.899  18.877  0.6245  0.7877  0.7928
 1110TIP3    H227526   4.571   3.791  18.791 -1.8868  0.1807 -0.3747
 1111TIP3   OH227527   6.206   6.045  17.986 -0.5830 -0.4490 -0.3974
 1111TIP3    H127528   6.234   6.049  17.895 -2.1892 -2.5463 -1.0694
 1111TIP3    H227529   6.129   5.988  17.985 -1.0748  0.0286  2.1880
 1112TIP3   OH227530   3.510   6.300  18.384 -0.3632 -0.0121 -0.0615
 1112TIP3    H127531   3.450   6.226  18.379 -0.1288 -0.2349  0.4316
 1112TIP3    H227532   3.580   6.271  18.442  0.3108  0.1866 -0.7460
 1113TIP3   OH227533   2.156   3.562  16.692 -0.2021  0.1292  1.4416
 1113TIP3    H127534   2.148   3.642  16.639  0.6328 -1.7049 -1.7246
 1113TIP3    H227535   2.095   3.500  16.652 -0.0497 -1.1705  3.1152
 1114TIP3   OH227536   4.857   4.867  16.950  0.3717  0.2495 -0.6809
 1114TIP3    H127537   4.912   4.874  17.028 -0.3043  0.1059 -0.1743
 1114TIP3    H227538   4.768   4.874  16.984  0.0329 -0.6323 -1.3384
 1115TIP3   OH227539   1.935   3.700  19.847 -0.3508 -0.3174 -0.3424
 1115TIP3    H127540   1.869   3.696  19.917  0.4328 -1.4293  0.3566
 1115TIP3    H227541   2.001   3.636  19.872  1.2775  1.1190 -0.7595
 1116TIP3   OH227542   4.185   3.456  17.273 -0.1594  0.2461  0.5176
 1116TIP3    H127543   4.171   3.411  17.190 -0.5962  0.0478  0.6949
 1116TIP3    H227544   4.271   3.497  17.264 -0.8541  1.5198 -0.6179
 1117TIP3   OH227545   2.084   2.465  19.713  0.1348 -0.3628  0.3168
 1117TIP3    H127546   2.063   2.382  19.669 -0.9281  0.3200 -0.5028
 1117TIP3    H227547   2.079   2.444  19.806 -0.3773 -1.1745  0.1216
 1118TIP3   OH227548   1.277   5.972  18.757 -0.1348  0.6557 -0.1132
 1118TIP3    H127549   1.235   5.903  18.807 -1.6788  1.5072 -0.1808
 1118TIP3    H227550   1.355   5.930  18.719 -0.4739 -0.7446  0.6687
 1119TIP3   OH227551   2.728   1.993  18.850 -0.4907  0.0562  0.0967
 1119TIP3    H127552   2.796   1.926  18.854 -0.0054  0.3737 -1.9850
 1119TIP3    H227553   2.661   1.956  18.793 -1.1248  0.5969  0.4683
 1120TIP3   OH227554   6.431   0.816  16.551 -0.0206 -0.0744  0.2980
 1120TIP3    H127555   6.461   0.783  16.467  0.1030 -1.8480  1.0032
 1120TIP3    H227556   6.393   0.740  16.595 -0.6016  0.9355  1.6193
 1121TIP3   OH227557   2.242   4.354  17.123 -0.3485 -0.2198 -0.0056
 1121TIP3    H127558   2.257   4.346  17.029  1.3607  0.0985  0.1995
 1121TIP3    H227559   2.174   4.420  17.132 -0.8657 -0.6053 -1.0291
 1122TIP3   OH227560   1.200   0.431  17.421  0.0630 -0.5575 -0.4112
 1122TIP3    H127561   1.276   0.378  17.395  0.4299  0.0637 -0.6299
 1122TIP3    H227562   1.144   0.431  17.344 -0.0109 -0.7541 -0.3581
 1123TIP3   OH227563   5.987   1.846  18.134 -0.0929 -0.2148  0.2765
 1123TIP3    H127564   6.037   1.888  18.204  0.3223  0.1302 -0.2208
 1123TIP3    H227565   6.052   1.800  18.081 -0.5961 -1.9542  1.1049
 1124TIP3   OH227566   2.331   4.044  18.907 -0.3957  0.4549  0.1164
 1124TIP3    H127567   2.328   4.116  18.845 -1.4259  2.6708  2.5500
 1124TIP3    H227568   2.245   4.003  18.902 -1.3530  2.1471  1.6389
 1125TIP3   OH227569   5.479   5.982  17.722 -0.5272 -0.4123  0.2895
 1125TIP3    H127570   5.446   5.893  17.706  1.0106 -0.6389 -2.1847
 1125TIP3    H227571   5.409   6.039  17.691 -0.4568 -0.8278 -0.6841
 1126TIP3   OH227572   2.659   3.502  19.394  0.1694  0.4912  0.4501
 1126TIP3    H127573   2.624   3.538  19.313  0.3732  0.5566  0.3906
 1126TIP3    H227574   2.748   3.536  19.399 -0.0292  0.9468  0.9898
 1127TIP3   OH227575   1.800   5.260  17.434  0.6209 -0.4721  0.2574
 1127TIP3    H127576   1.741   5.244  17.361 -0.5568 -1.3886  1.3450
 1127TIP3    H227577   1.875   5.203  17.418  2.0832  1.8722 -1.9666
 1128TIP3   OH227578   6.533   1.488  16.225 -0.4533 -0.1074 -0.2059
 1128TIP3    H127579   6.505   1.404  16.188 -1.0383  0.4050 -0.9811
 1128TIP3    H227580   6.453   1.541  16.227  0.3518  1.3790 -2.4000
 1129TIP3   OH227581   5.621   2.507  17.108 -0.4831  0.5240 -1.1513
 1129TIP3    H127582   5.633   2.559  17.188 -1.6223  2.4901 -2.1763
 1129TIP3    H227583   5.707   2.507  17.066  0.5767 -1.9028  0.7479
 1130TIP3   OH227584   2.466   0.163  19.346  0.1263 -0.4217  0.2872
 1130TIP3    H127585   2.381   0.120  19.334 -0.1055  0.0707  0.1061
 1130TIP3    H227586   2.528   0.105  19.303 -0.0280 -1.0880  0.9464
 1131TIP3   OH227587   6.201   3.477  19.455 -0.0273 -0.3683  0.8509
 1131TIP3    H127588   6.132   3.524  19.501 -1.3661  0.7359 -2.0348
 1131TIP3    H227589   6.273   3.541  19.449 -0.3687 -0.0364  0.2551
 1132TIP3   OH227590   5.509   6.585  17.323  0.0821 -0.0113  0.4939
 1132TIP3    H127591   5.500   6.573  17.418  1.0347 -0.8424  0.4930
 1132TIP3    H227592   5.510   6.680  17.311  0.4187  0.1033  1.3621
 1133TIP3   OH227593   1.193   6.549  18.233  0.2309  0.0189  0.1291
 1133TIP3    H127594   1.211   6.637  18.265 -1.2253  0.8730 -1.2870
 1133TIP3    H227595   1.257   6.535  18.163  1.2592 -0.5756  1.1380
 1134TIP3   OH227596   2.415   1.082  19.307 -0.0454  0.4136 -0.0438
 1134TIP3    H127597   2.488   1.108  19.251  0.3117 -0.8484 -0.2024
 1134TIP3    H227598   2.455   1.029  19.376 -0.5006  1.8230  1.3517
 1135TIP3   OH227599   5.000   4.702  18.402 -0.0393  0.3507 -0.5137
 1135TIP3    H127600   5.032   4.786  18.435 -1.3217  0.6242  0.0772
 1135TIP3    H227601   4.923   4.725  18.349 -0.3616 -0.4457 -0.4036
 1136TIP3   OH227602   4.011   2.289  18.701  0.9364 -0.6513 -0.2857
 1136TIP3    H127603   4.089   2.343  18.692  0.9632 -0.2829  1.7175
 1136TIP3    H227604   4.043   2.199  18.695  1.3777 -0.4935 -0.3446
 1137TIP3   OH227605   5.612   3.070  19.034  0.5467  0.6030  1.2070
 1137TIP3    H127606   5.652   3.094  18.951  1.7768 -1.5688  1.0978
 1137TIP3    H227607   5.536   3.017  19.008  0.0022  1.2445  1.4692
 1138TIP3   OH227608   6.117   3.667  20.051  0.7208  0.4757 -0.2052
 1138TIP3    H127609   6.152   3.587  20.091  0.8507  1.0690  0.8940
 1138TIP3    H227610   6.029   3.642  20.021  0.7222 -0.0623  0.2133
 1139TIP3   OH227611   1.145   6.565  16.935 -0.4537  0.3151 -0.2852
 1139TIP3    H127612   1.160   6.623  16.860  0.8761 -0.1382 -0.3923
 1139TIP3    H227613   1.217   6.502  16.932 -2.1126 -1.6406 -0.4226
 1140TIP3   OH227614   3.196   2.723  17.617 -0.0382  0.1183  0.0292
 1140TIP3    H127615   3.251   2.651  17.587  1.5331  1.2907 -0.0562
 1140TIP3    H227616   3.218   2.796  17.559 -0.6936  1.0097  0.8615
 1141TIP3   OH227617   2.352   3.862  20.170 -0.7118 -0.0644 -0.4423
 1141TIP3    H127618   2.300   3.832  20.096 -0.7694  2.0208 -1.2986
 1141TIP3    H227619   2.345   3.791  20.235 -1.8719 -1.2682 -1.8266
 1142TIP3   OH227620   5.120   1.924  17.605 -0.0369  0.7467  0.2498
 1142TIP3    H127621   5.032   1.912  17.570 -0.5117  1.2754  1.2202
 1142TIP3    H227622   5.155   2.001  17.559  0.8239 -0.7623 -1.7928
 1143TIP3   OH227623   1.181   5.064  19.124 -0.4294  0.5400 -0.1306
 1143TIP3    H127624   1.089   5.092  19.120 -0.6420 -0.1194  0.0655
 1143TIP3    H227625   1.195   5.041  19.215  0.4449  2.2925  0.2311
 1144TIP3   OH227626   2.861   2.917  19.804  0.3293 -0.3089  0.0027
 1144TIP3    H127627   2.921   2.985  19.773  1.1150 -0.4648  1.0961
 1144TIP3    H227628   2.906   2.835  19.786 -1.0238 -0.6530 -2.1712
 1145TIP3   OH227629   1.638   6.352  19.546 -0.4085  0.4274  0.4300
 1145TIP3    H127630   1.628   6.448  19.549 -2.7034  0.3302 -1.2862
 1145TIP3    H227631   1.556   6.318  19.581  0.2362 -0.9264  0.6891
 1146TIP3   OH227632   6.002   3.573  16.547  0.4699 -0.3105 -0.5106
 1146TIP3    H127633   6.025   3.556  16.455  0.6637  1.3450 -0.7952
 1146TIP3    H227634   5.975   3.488  16.580 -1.4233 -0.6529 -2.6302
 1147TIP3   OH227635   6.113   1.433  18.766 -0.1574  0.3403  0.0728
 1147TIP3    H127636   6.037   1.489  18.781 -0.4765  0.5004 -1.8839
 1147TIP3    H227637   6.176   1.460  18.833 -1.1882  1.3629  0.6685
 1148TIP3   OH227638   4.550   5.834  19.250 -0.3630 -0.4530 -0.4960
 1148TIP3    H127639   4.645   5.834  19.249 -0.3484 -0.5243  0.2081
 1148TIP3    H227640   4.525   5.742  19.243 -0.4043 -0.3712 -1.5442
 1149TIP3   OH227641   6.012   1.584  16.837  0.2248  0.1130 -0.9589
 1149TIP3    H127642   6.067   1.633  16.776  0.2799 -0.1560 -1.1228
 1149TIP3    H227643   5.924   1.594  16.803 -0.0008  1.5322 -0.0625
 1150TIP3   OH227644   1.613   5.596  17.584  0.6082  0.0474  0.3242
 1150TIP3    H127645   1.549   5.534  17.549 -0.6769  0.6705  1.5017
 1150TIP3    H227646   1.617   5.666  17.520  0.1748 -0.0291  0.2142
 1151TIP3   OH227647   4.163   3.203  18.625  0.2375 -0.1581 -0.3245
 1151TIP3    H127648   4.220   3.265  18.671 -0.2976  1.2757 -1.4985
 1151TIP3    H227649   4.081   3.204  18.673  0.1097  0.3410 -0.5471
 1152TIP3   OH227650   2.780   1.334  19.746 -0.0562 -0.3910 -0.5623
 1152TIP3    H127651   2.715   1.403  19.732 -0.8356 -1.2285 -1.2037
 1152TIP3    H227652   2.766   1.305  19.836  1.5213  1.5119  0.3698
 1153TIP3   OH227653   3.747   2.479  18.517 -0.2783  0.1508 -0.3388
 1153TIP3    H127654   3.740   2.401  18.572  2.3347  0.9163  1.2463
 1153TIP3    H227655   3.784   2.446  18.435  1.4526 -0.2825  0.5522
 1154TIP3   OH227656   2.552   3.358  18.644 -0.2013 -0.3620  0.1774
 1154TIP3    H127657   2.477   3.417  18.644 -1.4815 -1.9063  0.9503
 1154TIP3    H227658   2.522   3.281  18.693  1.6891 -1.2797 -0.0191
 1155TIP3   OH227659   6.076   1.075  17.935 -0.6700  0.3701 -0.0236
 1155TIP3    H127660   6.057   1.063  18.028  0.7464 -1.7057  0.0726
 1155TIP3    H227661   6.053   1.166  17.917 -0.1350  1.0905  2.5570
 1156TIP3   OH227662   5.131   5.234  18.404  0.0119 -0.1492  0.2216
 1156TIP3    H127663   5.209   5.289  18.408  0.9923 -1.3183 -1.4394
 1156TIP3    H227664   5.090   5.257  18.320 -0.8516 -0.3185  0.5816
 1157TIP3   OH227665   1.786   4.234  17.657 -0.2743  0.6924  0.1305
 1157TIP3    H127666   1.861   4.281  17.620 -1.0737  2.2253  0.3973
 1157TIP3    H227667   1.740   4.201  17.580 -0.8848  2.2365 -0.2052
 1158TIP3   OH227668   1.710   1.501  18.498  0.1797 -0.0143  0.2319
 1158TIP3    H127669   1.799   1.495  18.461  0.3757 -0.2848  0.7306
 1158TIP3    H227670   1.660   1.436  18.450  1.1852 -2.6508  2.4749
 1159TIP3   OH227671   2.381   3.338  19.092 -0.3673 -0.4916 -0.2513
 1159TIP3    H127672   2.408   3.246  19.087 -0.8803 -0.5607 -2.5590
 1159TIP3    H227673   2.380   3.357  19.186 -0.6548 -2.9524  0.3133
 1160TIP3   OH227674   0.300   3.201  19.771  0.5337 -0.1547 -0.2343
 1160TIP3    H127675   0.259   3.169  19.851  0.6301  0.9767  0.2816
 1160TIP3    H227676   0.347   3.280  19.798  1.0927 -0.1174 -1.2821
 1161TIP3   OH227677   5.947   0.098  17.015 -0.2683  0.1829  0.3054
 1161TIP3    H127678   5.926   0.190  17.034  0.4764  0.1243  1.5377
 1161TIP3    H227679   6.038   0.088  17.043 -0.6374 -1.1732  1.1292
 1162TIP3   OH227680   4.833   0.325  18.858  0.0978  0.1731  0.1528
 1162TIP3    H127681   4.738   0.328  18.848 -0.2384 -0.8732  2.3054
 1162TIP3    H227682   4.866   0.294  18.774 -1.5034  0.1908 -0.5086
 1163TIP3   OH227683   2.809   1.136  19.545  0.0791 -0.0998  0.9735
 1163TIP3    H127684   2.886   1.091  19.581  0.4215  1.1792  1.9115
 1163TIP3    H227685   2.797   1.212  19.601 -1.5660  0.0273  0.5134
 1164TIP3   OH227686   4.322   5.184  17.190 -0.5581  0.3739  0.1417
 1164TIP3    H127687   4.371   5.107  17.161  1.4033  2.2392 -1.9660
 1164TIP3    H227688   4.359   5.205  17.276  0.7288  0.3677 -0.3756
 1165TIP3   OH227689   0.621   4.573  18.849  0.7249 -0.2318  0.2596
 1165TIP3    H127690   0.700   4.603  18.805  0.0806  0.7004 -0.2939
 1165TIP3    H227691   0.608   4.635  18.921  1.1233 -1.0573  1.0602
 1166TIP3   OH227692   6.400   3.279  19.845 -0.2508 -0.5797 -0.0072
 1166TIP3    H127693   6.400   3.246  19.755 -1.3932 -1.3634  0.2511
 1166TIP3    H227694   6.492   3.295  19.865 -0.0049 -0.0521 -1.4300
 1167TIP3   OH227695   0.840   0.996  18.794 -0.7367  0.3870 -0.1823
 1167TIP3    H127696   0.797   1.066  18.745 -1.0665  0.6542  0.4780
 1167TIP3    H227697   0.769   0.935  18.815 -0.5300  0.0837 -0.3585
 1168TIP3   OH227698   4.480   5.564  20.067 -0.0888  0.3571  1.2326
 1168TIP3    H127699   4.490   5.508  20.144 -0.3952  0.1237  1.1036
 1168TIP3    H227700   4.456   5.650  20.103  1.9401  0.8564  1.5338
 1169TIP3   OH227701   2.265   4.838  19.135  1.0084 -0.5386 -0.2357
 1169TIP3    H127702   2.259   4.918  19.187  1.8716 -1.3326  1.1429
 1169TIP3    H227703   2.202   4.850  19.064  0.8567  1.1914  0.1665
 1170TIP3   OH227704   0.080   2.192  18.054  0.1570  0.5249  0.2854
 1170TIP3    H127705   0.123   2.272  18.025  1.3038 -0.4825 -0.9635
 1170TIP3    H227706   0.024   2.167  17.980  0.9169 -0.5714  0.0515
 1171TIP3   OH227707   3.565   4.845  17.762 -0.0658  1.1426  0.1334
 1171TIP3    H127708   3.599   4.800  17.684 -0.1371  1.7243 -0.2423
 1171TIP3    H227709   3.486   4.889  17.731 -0.6778  0.5263  0.7924
 1172TIP3   OH227710   5.225   5.989  17.988 -0.3653  0.2035  0.1866
 1172TIP3    H127711   5.318   5.969  17.992 -0.6314 -1.0641  0.3651
 1172TIP3    H227712   5.214   6.039  17.907  0.4710  0.4395  0.2103
 1173TIP3   OH227713   5.136   1.736  19.863  0.3619  0.6412 -0.4417
 1173TIP3    H127714   5.154   1.821  19.903  0.7738  0.0131  0.7456
 1173TIP3    H227715   5.060   1.702  19.911 -0.1222  0.5538 -1.2519
 1174TIP3   OH227716   1.979   0.026  18.265  0.2904 -0.4028  0.4944
 1174TIP3    H127717   1.999  -0.054  18.216  3.3765  0.6521 -0.1645
 1174TIP3    H227718   1.913  -0.002  18.329  1.6968 -3.6636  0.7405
 1175TIP3   OH227719   0.798   5.345  19.365  0.5494  0.0631  0.0625
 1175TIP3    H127720   0.780   5.435  19.337 -0.6060 -0.5011 -1.0682
 1175TIP3    H227721   0.810   5.352  19.460  0.2716  1.3777  0.0223
 1176TIP3   OH227722   0.620   0.613  19.513 -0.5820 -0.3099  0.0211
 1176TIP3    H127723   0.692   0.551  19.526 -1.6185 -1.3248  1.0933
 1176TIP3    H227724   0.629   0.641  19.421  1.1883 -0.3643  0.1355
 1177TIP3   OH227725   1.880   5.815  19.524 -0.4006 -0.2182 -0.2123
 1177TIP3    H127726   1.970   5.836  19.500  0.3403 -2.0657  0.7371
 1177TIP3    H227727   1.845   5.769  19.448 -0.7709  1.0123 -0.8118
 1178TIP3   OH227728   3.285   2.849  19.117 -0.3567  0.2443 -0.0554
 1178TIP3    H127729   3.343   2.884  19.184 -1.8993 -1.2368  2.2086
 1178TIP3    H227730   3.272   2.758  19.142 -3.4837  0.4665 -0.5153
 1179TIP3   OH227731   0.023   6.730  15.585 -0.2269 -0.5413 -0.3190
 1179TIP3    H127732  -0.009   6.820  15.580 -0.5816 -0.6843 -0.6272
 1179TIP3    H227733  -0.055   6.678  15.602  0.1380 -0.6752  1.0552
 1180TIP3   OH227734   6.415   4.613  18.351 -0.1071  0.6317 -0.0952
 1180TIP3    H127735   6.362   4.536  18.373  1.1902 -0.2526  0.0009
 1180TIP3    H227736   6.366   4.687  18.390  0.7637 -0.5686  3.7281
 1181TIP3   OH227737   1.820   0.570  18.190  0.5108  0.0039 -0.1486
 1181TIP3    H127738   1.887   0.549  18.125  0.7162 -0.0478  0.0776
 1181TIP3    H227739   1.841   0.660  18.217  1.2323 -0.4361  0.8106
 1182TIP3   OH227740   0.622   2.660  16.950  0.3991  0.4791  0.1771
 1182TIP3    H127741   0.638   2.597  16.880  1.4413  0.2251  0.6177
 1182TIP3    H227742   0.628   2.746  16.907  0.1181  0.3021 -0.2139
 1183TIP3   OH227743   3.658   2.277  18.935  0.3484 -0.5032 -0.1602
 1183TIP3    H127744   3.640   2.295  18.843 -0.8667 -0.1748  0.1107
 1183TIP3    H227745   3.745   2.314  18.951  1.3727 -2.1440 -1.5890
 1184TIP3   OH227746   3.385   5.994  16.938  0.3345  0.0179  0.1780
 1184TIP3    H127747   3.302   5.965  16.977  0.4788  0.3293  0.7159
 1184TIP3    H227748   3.360   6.066  16.880  0.0029 -1.0059 -0.9935
 1185TIP3   OH227749   2.172   4.781  18.198  0.3774 -0.2449 -0.2995
 1185TIP3    H127750   2.262   4.780  18.165  0.8634 -1.3068  0.9451
 1185TIP3    H227751   2.143   4.690  18.192  0.2848 -0.3779  1.5573
 1186TIP3   OH227752   0.634   5.282  17.537  0.2825 -0.2051 -0.2239
 1186TIP3    H127753   0.655   5.363  17.583  1.1312 -0.1019 -0.7807
 1186TIP3    H227754   0.668   5.295  17.449  0.6590 -1.2681 -0.2487
 1187TIP3   OH227755   0.357   4.863  17.582  0.7149 -0.2709 -0.5853
 1187TIP3    H127756   0.404   4.946  17.596  0.7218 -0.4389  0.4252
 1187TIP3    H227757   0.373   4.843  17.490  1.3757  0.4492 -0.6429
 1188TIP3   OH227758   2.724   6.644  18.791  0.2869 -0.2080  0.5125
 1188TIP3    H127759   2.703   6.566  18.740  2.0700  0.0101 -0.6174
 1188TIP3    H227760   2.766   6.612  18.870  0.3458 -0.4125  0.3970
 1189TIP3   OH227761   1.372   4.085  18.113  0.3000  0.3228  0.1308
 1189TIP3    H127762   1.344   3.995  18.132  0.3343  0.0821 -0.8862
 1189TIP3    H227763   1.454   4.095  18.161  0.9307 -0.6273 -0.7021
 1190TIP3   OH227764   1.678   6.169  17.833 -0.2940 -0.3136  0.5060
 1190TIP3    H127765   1.621   6.104  17.874 -0.2270 -0.3701  0.5118
 1190TIP3    H227766   1.729   6.118  17.769 -0.7138 -0.1472  0.0301
 1191TIP3   OH227767   1.375   1.636  19.356  0.3594  0.0654 -0.2126
 1191TIP3    H127768   1.413   1.635  19.268  0.3424 -1.9005 -0.2605
 1191TIP3    H227769   1.444   1.599  19.411  0.0959  0.5938  0.4816
 1192TIP3   OH227770   0.716   4.167  18.617 -0.2746  0.7894  0.0175
 1192TIP3    H127771   0.668   4.178  18.535  0.0828  4.2168  0.1309
 1192TIP3    H227772   0.676   4.230  18.677  0.3381 -0.7096  2.1231
 1193TIP3   OH227773   4.712   3.898  19.849  0.2848 -0.0710 -0.0947
 1193TIP3    H127774   4.718   3.853  19.765  0.6056 -0.0531 -0.0848
 1193TIP3    H227775   4.644   3.964  19.837 -0.1246 -0.4969 -0.1385
 1194TIP3   OH227776   2.419   0.573  17.407  0.5221 -0.3725  0.0327
 1194TIP3    H127777   2.451   0.662  17.424  1.2291 -0.5504 -0.3044
 1194TIP3    H227778   2.482   0.516  17.451 -1.4593 -0.7011  2.7148
 1195TIP3   OH227779   2.861   2.889  17.968  0.3036  0.3282 -0.3174
 1195TIP3    H127780   2.953   2.862  17.973 -0.0882 -1.1123 -0.5100
 1195TIP3    H227781   2.860   2.976  18.008  1.6605  0.1669  0.1327
 1196TIP3   OH227782   5.406   5.532  19.043  0.5059 -0.4285 -0.0392
 1196TIP3    H127783   5.345   5.519  18.970  0.3111 -1.0062  0.2184
 1196TIP3    H227784   5.356   5.578  19.109 -0.5850 -3.2939  1.3120
 1197TIP3   OH227785   1.700   4.514  17.805 -0.2960  0.3510  0.3830
 1197TIP3    H127786   1.621   4.462  17.821 -0.8854  0.6446 -1.3869
 1197TIP3    H227787   1.682   4.598  17.849 -1.1832  0.5765 -0.3643
 1198TIP3   OH227788   0.930   5.853  18.436 -0.1851 -0.2482  0.0616
 1198TIP3    H127789   0.977   5.919  18.487 -0.1386 -0.3933  0.2110
 1198TIP3    H227790   0.948   5.874  18.345  0.3083 -0.4041  0.1221
 1199TIP3   OH227791   6.490   2.256  19.537 -0.3440  0.1346  0.5444
 1199TIP3    H127792   6.500   2.326  19.602 -2.1391  0.0890  0.9249
 1199TIP3    H227793   6.563   2.197  19.554  0.4152  1.2202  1.1325
 1200TIP3   OH227794   0.143   3.667  17.214 -0.1145  0.6275  0.0383
 1200TIP3    H127795   0.097   3.725  17.153 -1.0185  0.4925  0.5576
 1200TIP3    H227796   0.174   3.726  17.284 -0.9558  0.5215  0.5220
 1201TIP3   OH227797   2.844   3.133  18.090 -0.3025 -0.3751  0.1785
 1201TIP3    H127798   2.898   3.171  18.160 -1.5237  0.9510  0.4438
 1201TIP3    H227799   2.754   3.155  18.115 -0.9042 -1.5908 -0.8186
 1202TIP3   OH227800   4.015   5.204  17.009 -0.2418  0.3680  0.3708
 1202TIP3    H127801   3.957   5.128  17.003 -0.0874  0.3629 -2.3085
 1202TIP3    H227802   3.991   5.246  17.092 -3.1974 -0.3642  0.0202
 1203TIP3   OH227803   2.872   1.087  19.273 -0.3844 -0.3723  0.0812
 1203TIP3    H127804   2.844   1.090  19.365 -0.3280  0.1074  0.0863
 1203TIP3    H227805   2.804   1.135  19.226  0.1566  0.3699  0.0257
 1204TIP3   OH227806   2.884   1.629  17.307  0.2287 -0.0146  0.1428
 1204TIP3    H127807   2.826   1.556  17.289 -0.9626  0.9836 -0.2365
 1204TIP3    H227808   2.960   1.614  17.251 -1.2078  0.4247 -2.0579
 1205TIP3   OH227809   3.487   5.183  18.694 -0.6750 -0.4511 -0.6928
 1205TIP3    H127810   3.486   5.270  18.653 -0.3828 -0.0553  0.1249
 1205TIP3    H227811   3.503   5.200  18.786  0.5725 -1.4445 -0.6939
 1206TIP3   OH227812   5.962   2.185  17.795 -0.8445 -0.2070 -0.1168
 1206TIP3    H127813   5.939   2.101  17.756  0.7801 -0.8491  0.2330
 1206TIP3    H227814   5.972   2.167  17.888  1.2607 -0.0598 -0.2741
 1207TIP3   OH227815   0.623   6.099  18.043  0.3940 -0.1470 -0.2714
 1207TIP3    H127816   0.621   6.016  17.996 -0.7281 -0.0914 -0.3441
 1207TIP3    H227817   0.665   6.077  18.127 -3.2734 -1.7260  1.3617
 1208TIP3   OH227818   1.360   5.278  18.539  0.7586 -0.3433 -0.3767
 1208TIP3    H127819   1.306   5.356  18.549  0.6512  0.0051 -2.9081
 1208TIP3    H227820   1.324   5.234  18.462  2.9487 -1.0604 -1.0661
 1209TIP3   OH227821   0.642   0.196  17.819  0.1998  0.1262 -0.2470
 1209TIP3    H127822   0.678   0.207  17.907 -0.8500  0.3181  0.1752
 1209TIP3    H227823   0.583   0.120  17.826  0.5906 -0.2536 -0.9453
 1210TIP3   OH227824   0.306   1.175  17.480 -0.3478  0.0236 -0.2475
 1210TIP3    H127825   0.354   1.093  17.490  1.3605  1.2566  2.8475
 1210TIP3    H227826   0.361   1.241  17.522 -2.1018  2.6404 -1.7471
 1211TIP3   OH227827   4.872   3.548  17.527 -0.1507 -0.4180  0.0314
 1211TIP3    H127828   4.843   3.469  17.571  0.5460 -1.2931 -1.0372
 1211TIP3    H227829   4.843   3.538  17.437 -4.0427  2.5945  0.6793
 1212TIP3   OH227830   0.879   0.892  16.927  0.1064  0.2075 -0.0176
 1212TIP3    H127831   0.834   0.932  16.852  0.1000  0.0393 -0.1061
 1212TIP3    H227832   0.969   0.924  16.921  0.5465 -1.1169 -1.0846
 1213TIP3   OH227833   0.480   3.550  17.669 -0.3925 -0.6222 -0.0142
 1213TIP3    H127834   0.426   3.628  17.655  0.2221 -0.0647  0.6488
 1213TIP3    H227835   0.489   3.512  17.582  0.8533  1.0967 -0.6843
 1214TIP3   OH227836   1.541   4.935  17.247  0.8225  0.4236 -0.0362
 1214TIP3    H127837   1.473   5.003  17.249 -0.4458 -0.7561  3.2762
 1214TIP3    H227838   1.608   4.967  17.307  1.2143 -0.3346 -0.0656
 1215TIP3   OH227839   3.345   1.025  18.258  0.5065 -0.1708 -0.0448
 1215TIP3    H127840   3.254   1.034  18.287  0.5292  0.3530 -0.1319
 1215TIP3    H227841   3.380   0.955  18.314 -0.7256 -2.4174 -1.8968
 1216TIP3   OH227842   4.189   3.196  17.835  0.2192  0.2263  0.1293
 1216TIP3    H127843   4.146   3.278  17.809  2.0544  0.7876 -1.3808
 1216TIP3    H227844   4.283   3.218  17.838  0.7223 -1.7201  0.0589
 1217TIP3   OH227845   5.982   3.408  18.284 -0.0327 -0.1100  0.2346
 1217TIP3    H127846   5.969   3.382  18.375  2.1606  0.5507  0.8015
 1217TIP3    H227847   5.908   3.466  18.265  0.0661  0.6675  1.9908
 1218TIP3   OH227848   5.542   0.030  17.211 -0.0362 -0.0476 -0.3828
 1218TIP3    H127849   5.634   0.018  17.189 -0.5172 -0.2724 -2.4379
 1218TIP3    H227850   5.497   0.039  17.127 -1.9518 -0.3077  0.5379
 1219TIP3   OH227851   1.810   3.689  17.360  0.1513  0.4215  0.0222
 1219TIP3    H127852   1.883   3.700  17.300 -0.4611 -1.5475 -1.1871
 1219TIP3    H227853   1.836   3.736  17.439  2.0733  0.9706 -0.8840
 1220TIP3   OH227854   4.027   5.488  16.684 -0.0931  0.0450  0.7842
 1220TIP3    H127855   3.949   5.471  16.632 -0.3382 -0.7154  1.3837
 1220TIP3    H227856   4.077   5.406  16.679  0.2590  0.2399  1.0908
 1221TIP3   OH227857   6.642   3.641  19.747  0.2506 -0.0861 -0.1215
 1221TIP3    H127858   6.677   3.585  19.677  2.3919  0.5443  0.3739
 1221TIP3    H227859   6.675   3.728  19.727 -2.7371  1.0508 -0.6771
 1222TIP3   OH227860   0.072   1.574  18.861 -0.4122  0.5280  0.1558
 1222TIP3    H127861   0.093   1.647  18.918 -0.7538  1.2460 -0.6130
 1222TIP3    H227862   0.078   1.497  18.917  2.4606  0.8344  0.3958
 1223TIP3   OH227863   2.886   5.342  18.911 -0.1110 -0.1901 -0.0896
 1223TIP3    H127864   2.938   5.365  18.834  0.3053  0.1643  0.2921
 1223TIP3    H227865   2.923   5.259  18.940  3.3588  2.0516  2.8047
 1224TIP3   OH227866   5.284   4.487  18.135  0.0896  0.4303  0.2262
 1224TIP3    H127867   5.330   4.559  18.093  0.3074  0.3134  0.2628
 1224TIP3    H227868   5.353   4.429  18.167 -0.0660 -1.0895 -1.9859
 1225TIP3   OH227869   6.166   0.584  18.847  0.2949  0.1265  0.3522
 1225TIP3    H127870   6.142   0.666  18.804  0.1306 -0.1259 -0.0422
 1225TIP3    H227871   6.262   0.584  18.848  0.3040  0.0107 -0.2551
 1226TIP3   OH227872   6.240   2.341  19.212  0.3290 -0.4948 -0.5065
 1226TIP3    H127873   6.240   2.427  19.254  0.7364 -0.1644 -1.1720
 1226TIP3    H227874   6.282   2.283  19.275 -0.6756 -0.3907  0.2920
 1227TIP3   OH227875   0.394   5.447  18.040  0.4594  0.2715  0.5349
 1227TIP3    H127876   0.460   5.516  18.045 -1.9004  2.7049  0.4267
 1227TIP3    H227877   0.358   5.441  18.129  0.7578 -1.0163  0.5932
 1228TIP3   OH227878   2.532   3.277  20.116  0.0052  0.5599  0.1016
 1228TIP3    H127879   2.598   3.232  20.063 -1.3218 -0.0867 -1.0527
 1228TIP3    H227880   2.521   3.221  20.193  1.0775  0.8859  0.5115
 1229TIP3   OH227881   4.818   6.272  16.962  0.0865  0.9935  0.2879
 1229TIP3    H127882   4.878   6.215  16.914  0.4835  0.9146  0.8627
 1229TIP3    H227883   4.771   6.320  16.894 -2.0450 -1.7440 -0.3498
 1230TIP3   OH227884   5.654   2.021  19.608 -0.3267  0.0825 -0.1108
 1230TIP3    H127885   5.623   1.965  19.537  0.1927 -0.0431 -0.2390
 1230TIP3    H227886   5.712   2.084  19.565  0.6699 -0.5210  0.3097
 1231TIP3   OH227887   0.020   2.899  16.004  0.3592 -0.2470 -0.1099
 1231TIP3    H127888   0.030   2.844  15.926 -0.3851  1.2859 -1.3548
 1231TIP3    H227889   0.087   2.967  15.993  0.5122 -0.2428  0.8085
 1232TIP3   OH227890   3.402   0.447  17.250  0.0594 -0.7885 -0.3357
 1232TIP3    H127891   3.453   0.510  17.200  0.1913  0.5733  1.4057
 1232TIP3    H227892   3.420   0.362  17.210  2.8606 -0.2181 -0.4343
 1233TIP3   OH227893   2.404   5.214  18.767 -0.0987  0.5370  0.4300
 1233TIP3    H127894   2.489   5.229  18.809 -0.1535 -0.9329  1.1218
 1233TIP3    H227895   2.358   5.155  18.826 -1.7603  1.5836  0.2391
 1234TIP3   OH227896   6.572   2.454  20.010 -0.0399 -0.4034 -0.1902
 1234TIP3    H127897   6.571   2.517  19.938  1.7546 -0.1835 -0.0582
 1234TIP3    H227898   6.618   2.378  19.975  0.3436 -0.5185  0.5402
 1235TIP3   OH227899   1.019   0.074  17.981 -0.6462  0.2755  0.0133
 1235TIP3    H127900   1.060   0.081  18.067 -1.5197 -0.1017  0.4633
 1235TIP3    H227901   1.090   0.048  17.923  0.1269  1.2873  0.4636
 1236TIP3   OH227902   1.057   6.313  18.806  0.1118  0.1976 -0.1404
 1236TIP3    H127903   0.992   6.293  18.873 -0.1502 -2.0928 -0.9749
 1236TIP3    H227904   1.019   6.384  18.755 -1.7552 -1.0586 -0.5853
 1237TIP3   OH227905   3.309   3.248  17.219  0.3840 -0.2739  0.1556
 1237TIP3    H127906   3.366   3.324  17.230 -0.1510  0.0431  0.7864
 1237TIP3    H227907   3.220   3.283  17.221  0.1431 -0.6271 -1.8283
 1238TIP3   OH227908   2.181   0.074  19.363 -0.5644 -0.3101  0.0176
 1238TIP3    H127909   2.164   0.103  19.452  2.1831 -0.6960  0.7667
 1238TIP3    H227910   2.116   0.119  19.309 -1.3950  1.0130  2.0490
 1239TIP3   OH227911   3.131   4.874  20.147 -0.4187  0.2021  0.4225
 1239TIP3    H127912   3.090   4.953  20.181 -0.9655 -0.2018  0.7297
 1239TIP3    H227913   3.084   4.855  20.066 -1.4189 -0.7177  1.1908
 1240TIP3   OH227914   4.967   6.240  19.045 -0.2262 -0.5293  0.2001
 1240TIP3    H127915   4.981   6.292  18.965 -2.2718 -1.8652 -1.1202
 1240TIP3    H227916   4.951   6.306  19.113  2.3529  0.6692 -0.2358
 1241TIP3   OH227917   2.612   3.744  17.683  0.8264  0.2818  0.7722
 1241TIP3    H127918   2.644   3.808  17.619  0.1663  0.3419  0.4991
 1241TIP3    H227919   2.672   3.670  17.675  0.0789 -0.1920 -0.7447
 1242TIP3   OH227920   2.054   0.254  19.176  0.1440  0.5031 -0.5450
 1242TIP3    H127921   2.118   0.277  19.109 -0.0510 -1.0212 -1.3034
 1242TIP3    H227922   2.027   0.338  19.214  2.3319  1.2129 -0.4132
 1243TIP3   OH227923   4.340   2.736  17.093 -0.5052 -0.1486  0.1949
 1243TIP3    H127924   4.245   2.729  17.095 -0.4183 -1.6511  0.5128
 1243TIP3    H227925   4.365   2.697  17.009 -0.2198  1.2040 -0.3646
 1244TIP3   OH227926   5.171   6.735  19.209 -0.0747  0.9010  0.0234
 1244TIP3    H127927   5.169   6.653  19.160  1.5767  1.4332 -1.0189
 1244TIP3    H227928   5.104   6.789  19.166  1.2967  1.3361 -1.6954
 1245TIP3   OH227929   0.447   0.020  17.855 -0.2226  0.3415  0.1456
 1245TIP3    H127930   0.477  -0.047  17.915  1.0530 -1.2320 -2.1202
 1245TIP3    H227931   0.358  -0.008  17.830 -0.2505  0.2883  0.3056
 1246TIP3   OH227932   4.018   1.474  17.433 -0.0229  0.2712  0.1099
 1246TIP3    H127933   4.107   1.438  17.442 -0.9290 -2.3649 -0.5951
 1246TIP3    H227934   3.970   1.437  17.507 -0.6840  1.2770  0.1980
 1247TIP3   OH227935   1.235   0.487  17.690  0.2441 -0.4900  0.5152
 1247TIP3    H127936   1.187   0.418  17.735  0.3036 -0.0916  1.2066
 1247TIP3    H227937   1.226   0.466  17.597  0.4620 -1.5617  0.7191
 1248TIP3   OH227938   3.668   5.878  18.064 -0.3814 -0.0595  1.0572
 1248TIP3    H127939   3.622   5.827  18.132 -0.0162  1.2726  2.3506
 1248TIP3    H227940   3.654   5.969  18.089  0.9285  0.4317  0.0985
 1249TIP3   OH227941   5.542   6.036  17.425 -0.2725  0.3229 -0.1660
 1249TIP3    H127942   5.495   6.113  17.392 -1.2542 -1.3166 -2.9656
 1249TIP3    H227943   5.473   5.979  17.460 -0.3530 -1.2969 -2.6289
 1250TIP3   OH227944   3.052   5.955  18.469  0.2338 -0.0693 -0.4822
 1250TIP3    H127945   3.136   5.936  18.427  0.5113 -0.5048  0.2407
 1250TIP3    H227946   3.070   5.945  18.563 -1.2156 -2.7522 -0.3932
 1251TIP3   OH227947   2.497   3.584  19.189 -0.3838  0.5105  0.3837
 1251TIP3    H127948   2.477   3.669  19.151 -0.7956  1.2857  2.2505
 1251TIP3    H227949   2.497   3.524  19.114 -2.1002  1.7820 -0.7040
 1252TIP3   OH227950   2.689   5.799  19.964 -0.2212 -0.0341  0.2010
 1252TIP3    H127951   2.615   5.820  19.907 -0.8058  1.5449  1.4755
 1252TIP3    H227952   2.751   5.871  19.951  0.1433 -0.2467  0.7037
 1253TIP3   OH227953   1.668   5.009  17.479  0.4636  0.3248  0.0619
 1253TIP3    H127954   1.669   5.088  17.533 -0.3241  0.1375  0.3731
 1253TIP3    H227955   1.746   4.960  17.506  0.0154  0.1705  1.1556
 1254TIP3   OH227956   5.908   0.065  18.829 -0.5515  0.2108  0.2129
 1254TIP3    H127957   5.944  -0.023  18.817  1.9814  0.9466  1.6562
 1254TIP3    H227958   5.856   0.080  18.750  1.0833 -1.5940 -1.3368
 1255TIP3   OH227959   0.436   2.061  17.774 -0.0997  0.2581  0.2891
 1255TIP3    H127960   0.490   1.986  17.801 -0.5398 -0.4404 -0.7304
 1255TIP3    H227961   0.425   2.050  17.680  1.5597  2.7583 -0.2773
 1256TIP3   OH227962   6.646   2.308  18.756 -0.3588 -0.2741  0.3631
 1256TIP3    H127963   6.565   2.355  18.736 -1.3971 -2.2537 -0.2661
 1256TIP3    H227964   6.640   2.227  18.707  1.4200 -1.0597  1.3525
 1257TIP3   OH227965   6.438   0.774  16.848  0.1348  0.2706 -0.3715
 1257TIP3    H127966   6.528   0.801  16.832  0.6920  0.7378  2.8497
 1257TIP3    H227967   6.411   0.824  16.925 -2.3240 -1.0724 -0.2457
 1258TIP3   OH227968   2.870   2.596  18.403  0.5038  0.9381  0.1106
 1258TIP3    H127969   2.839   2.571  18.490  0.0077  1.6226  0.1268
 1258TIP3    H227970   2.796   2.640  18.362  1.0587  1.4989 -0.2983
 1259TIP3   OH227971   2.266   0.862  18.342  0.6457  0.2221  0.3574
 1259TIP3    H127972   2.281   0.782  18.292 -2.1549 -0.5151  0.5548
 1259TIP3    H227973   2.353   0.901  18.351  1.6884 -1.2772 -2.2303
 1260TIP3   OH227974   2.363   5.434  18.622  0.6135 -0.4157  0.0770
 1260TIP3    H127975   2.296   5.495  18.653  0.2732 -1.0291  0.5493
 1260TIP3    H227976   2.373   5.371  18.693  0.4412 -1.3411 -0.7063
 1261TIP3   OH227977   6.322   5.955  19.497 -0.4519 -0.2214  0.1070
 1261TIP3    H127978   6.399   5.960  19.442 -1.1974  0.6404 -0.8861
 1261TIP3    H227979   6.300   6.046  19.517 -0.8388 -0.4785  0.9118
 1262TIP3   OH227980   1.690   0.715  17.098 -0.2369 -0.0392  0.1588
 1262TIP3    H127981   1.727   0.770  17.029  2.3058  0.2265  1.5931
 1262TIP3    H227982   1.661   0.777  17.165 -1.6075 -0.3243 -0.1529
 1263TIP3   OH227983   2.116   5.616  18.667 -0.5483  0.2194  0.0102
 1263TIP3    H127984   2.086   5.618  18.576 -0.6652 -0.5926  0.0189
 1263TIP3    H227985   2.152   5.703  18.683  2.7959 -0.6576 -1.9389
 1264TIP3   OH227986   2.974   5.078  18.693 -0.4265  0.4089  0.4491
 1264TIP3    H127987   3.035   5.024  18.643 -0.6758  0.8644 -0.3551
 1264TIP3    H227988   3.011   5.166  18.690 -0.8160  0.5772  0.4554
 1265TIP3   OH227989   0.684   0.770  18.914  0.0741  0.4473  0.4751
 1265TIP3    H127990   0.609   0.746  18.969 -0.1932  1.3105  0.4992
 1265TIP3    H227991   0.748   0.700  18.930 -1.4226 -1.3912 -1.0336
 1266TIP3   OH227992   4.633   5.920  19.585 -0.2801  0.3708 -0.0779
 1266TIP3    H127993   4.564   5.933  19.519 -0.7597  0.8248  0.5052
 1266TIP3    H227994   4.614   5.985  19.653  0.5567  0.3052  0.2310
 1267TIP3   OH227995   6.602   1.768  19.074  0.2905  0.1374  0.0796
 1267TIP3    H127996   6.609   1.788  19.168 -1.9027 -0.9845  0.5676
 1267TIP3    H227997   6.619   1.674  19.068  1.7372  0.4369 -0.8771
 1268TIP3   OH227998   2.893   2.189  18.277  0.6980  0.4464 -0.4187
 1268TIP3    H127999   2.969   2.130  18.270  1.2474  1.0577  0.2276
 1268TIP3    H228000   2.931   2.277  18.275 -0.0548  0.7683 -0.7077
 1269TIP3   OH228001   5.730   3.335  19.550 -0.0231 -0.1754 -0.1490
 1269TIP3    H128002   5.765   3.350  19.462  0.8233 -0.8012  0.0658
 1269TIP3    H228003   5.659   3.273  19.537  0.9792 -1.3404 -0.2646
 1270TIP3   OH228004   6.707   1.317  16.706  0.1816  0.8579 -0.3017
 1270TIP3    H128005   6.723   1.258  16.779  1.9498  2.3091  0.5605
 1270TIP3    H228006   6.792   1.357  16.688 -0.7705  2.5416 -1.3617
 1271TIP3   OH228007   6.364   5.752  18.281 -0.5760  0.3523 -0.0237
 1271TIP3    H128008   6.405   5.823  18.231 -0.0950  0.4785  0.5430
 1271TIP3    H228009   6.273   5.751  18.251 -0.0430 -0.3611 -1.8094
 1272TIP3   OH228010   1.985   2.861  18.004  0.3880 -0.5709 -0.5498
 1272TIP3    H128011   1.906   2.861  18.059  1.3133  1.7420  0.9371
 1272TIP3    H228012   1.953   2.879  17.916 -0.8046 -0.2835 -0.0827
 1273TIP3   OH228013   2.840   5.603  18.601  0.2315  0.1257 -0.1386
 1273TIP3    H128014   2.758   5.556  18.587  0.9133 -1.1039 -0.1845
 1273TIP3    H228015   2.836   5.677  18.540 -1.7910  1.4142  1.4463
 1274TIP3   OH228016   2.611   2.882  17.007  0.2414 -0.2516 -0.3679
 1274TIP3    H128017   2.614   2.786  17.006 -0.3075 -0.3478  1.8537
 1274TIP3    H228018   2.592   2.906  16.916 -1.0399 -2.3260 -0.7236
 1275TIP3   OH228019   4.772   2.894  17.655 -0.6180  0.6310  0.4519
 1275TIP3    H128020   4.682   2.888  17.625 -0.7593  0.6651  0.8609
 1275TIP3    H228021   4.805   2.804  17.651 -0.4611  0.7182 -0.3234
 1276TIP3   OH228022   0.570   3.828  19.788 -0.3082 -0.2558  0.5440
 1276TIP3    H128023   0.556   3.787  19.703  0.6666  1.3490 -0.4422
 1276TIP3    H228024   0.589   3.755  19.847  2.2370 -1.2516 -1.2929
 1277TIP3   OH228025   3.070   3.164  20.192 -0.3701 -0.6047 -0.3610
 1277TIP3    H128026   3.019   3.090  20.226  0.1070 -0.1143  1.5716
 1277TIP3    H228027   3.038   3.176  20.103 -2.2568 -1.5434  0.1260
 1278TIP3   OH228028   3.756   0.507  18.412  0.2771  0.1523 -0.2789
 1278TIP3    H128029   3.848   0.496  18.437 -0.2663 -0.7995  1.5259
 1278TIP3    H228030   3.734   0.427  18.364  0.0219 -0.3040  0.5806
 1279TIP3   OH228031   6.030   5.101  18.923 -0.6565  0.4345 -0.2340
 1279TIP3    H128032   5.973   5.040  18.969  1.4664 -1.0118  0.5932
 1279TIP3    H228033   6.013   5.186  18.965 -0.7447 -0.3443  1.3775
 1280TIP3   OH228034   3.377   5.923  17.924 -0.0233 -0.6820 -0.2143
 1280TIP3    H128035   3.398   5.836  17.959 -0.8785 -0.7283  0.2031
 1280TIP3    H228036   3.413   5.922  17.835 -0.3664 -1.6029 -0.3543
 1281TIP3   OH228037   0.201   4.497  17.377  0.1617  0.2687  0.7053
 1281TIP3    H128038   0.157   4.412  17.384 -1.7833  1.1181 -0.3350
 1281TIP3    H228039   0.243   4.510  17.462 -0.0901 -1.4097  1.1116
 1282TIP3   OH228040   6.195   6.209  19.472 -0.1798 -0.0831  0.1916
 1282TIP3    H128041   6.101   6.203  19.485 -0.2698  0.5034 -0.1535
 1282TIP3    H228042   6.215   6.302  19.485  0.4829 -0.3367  1.1046
 1283TIP3   OH228043   2.082   4.889  18.922 -0.0261 -0.0637 -0.2814
 1283TIP3    H128044   2.030   4.816  18.888  0.2440 -0.4184  0.0541
 1283TIP3    H228045   2.025   4.930  18.988  0.8133 -1.6738  1.5615
 1284TIP3   OH228046   0.066   4.517  19.083 -0.0109  0.1732  0.2432
 1284TIP3    H128047   0.027   4.446  19.134  0.8356 -0.6855 -0.2705
 1284TIP3    H228048   0.157   4.490  19.070  0.0295  0.8167 -0.9249
 1285TIP3   OH228049   1.909   0.167  17.927 -0.1232 -0.6350  0.1358
 1285TIP3    H128050   1.953   0.102  17.872  1.9346  1.9720 -1.5821
 1285TIP3    H228051   1.978   0.202  17.983 -1.3966 -0.5607  1.7399
 1286TIP3   OH228052   5.956   2.200  18.090 -0.3963  0.2577  0.2844
 1286TIP3    H128053   5.948   2.281  18.039  0.0785 -0.5625 -1.1562
 1286TIP3    H228054   5.909   2.218  18.171 -1.6111  1.4574 -0.6383
 1287TIP3   OH228055   5.301   1.572  18.339  0.2120 -0.4339 -0.0688
 1287TIP3    H128056   5.238   1.628  18.295  0.9549 -1.9669 -3.4050
 1287TIP3    H228057   5.385   1.593  18.298  1.5479 -0.0428  2.6532
 1288TIP3   OH228058   0.636   0.149  18.714 -0.0609  0.6280 -0.0023
 1288TIP3    H128059   0.584   0.182  18.641  1.2732 -0.9870 -1.7579
 1288TIP3    H228060   0.582   0.081  18.754  0.1110 -0.0895 -0.9613
 1289TIP3   OH228061   6.138   1.985  18.800 -0.2652 -0.0801 -0.2393
 1289TIP3    H128062   6.061   1.950  18.845  0.0299  0.5174  0.7670
 1289TIP3    H228063   6.159   2.066  18.847  0.8187 -0.0933 -0.6583
 1290TIP3   OH228064   3.616   2.908  19.148 -0.2145 -0.7033 -0.3860
 1290TIP3    H128065   3.565   2.930  19.225  0.6814 -0.4256  0.1392
 1290TIP3    H228066   3.616   2.812  19.145 -0.0432 -0.7181  0.0989
 1291TIP3   OH228067   0.543   1.982  20.064  0.2568  0.0350 -0.3124
 1291TIP3    H128068   0.488   1.910  20.033  0.6837 -0.5739  0.3183
 1291TIP3    H228069   0.618   1.939  20.104 -0.9488  0.7130  2.9556
 1292TIP3   OH228070   5.610   2.477  19.443  0.2131  0.2066 -0.1523
 1292TIP3    H128071   5.704   2.475  19.424  0.5447  2.6129  0.8293
 1292TIP3    H228072   5.568   2.472  19.357  1.1850 -1.5480 -0.5647
 1293TIP3   OH228073   2.680   5.129  17.701 -0.2931 -0.2622 -0.0429
 1293TIP3    H128074   2.744   5.200  17.690 -0.9549  0.3051 -0.2760
 1293TIP3    H228075   2.619   5.162  17.767  0.1026 -1.1342  0.7990
 1294TIP3   OH228076   2.540   1.417  19.048  0.4075  0.9444 -0.0684
 1294TIP3    H128077   2.577   1.404  18.961 -1.1272 -2.8667 -0.3327
 1294TIP3    H228078   2.446   1.417  19.035  0.0593 -1.5076  1.6247
 1295TIP3   OH228079   6.469   0.031  17.892  0.8319  0.1921 -0.2082
 1295TIP3    H128080   6.501   0.121  17.890 -2.4674  1.5173 -0.1460
 1295TIP3    H228081   6.400   0.032  17.958 -0.6003 -1.8684 -1.5730
 1296TIP3   OH228082   3.732   4.696  17.954 -0.0387  0.4887 -0.5140
 1296TIP3    H128083   3.642   4.664  17.945 -0.0114  0.4876 -0.7840
 1296TIP3    H228084   3.744   4.756  17.881  0.4223 -0.0737 -0.9069
 1297TIP3   OH228085   4.373   3.113  18.999  0.3474 -1.0189 -0.1281
 1297TIP3    H128086   4.417   3.031  19.016  0.6224 -0.6052  1.2626
 1297TIP3    H228087   4.443   3.179  18.997  0.1569 -0.8178 -1.4120
 1298TIP3   OH228088   0.513   3.480  17.400 -0.0504 -0.2439 -0.1967
 1298TIP3    H128089   0.461   3.491  17.320 -1.2604 -0.0624  0.5972
 1298TIP3    H228090   0.526   3.386  17.406 -0.1472 -0.2795 -0.4881
 1299TIP3   OH228091   2.881   4.015  18.920  0.1507  0.3977  0.3352
 1299TIP3    H128092   2.820   3.943  18.937  1.2439 -0.0734  2.6370
 1299TIP3    H228093   2.962   3.972  18.892  0.1851  0.8671 -0.3067
 1300TIP3   OH228094   5.802   0.312  17.254 -0.1810 -0.3133  0.0865
 1300TIP3    H128095   5.716   0.311  17.211 -1.0376 -1.6642  1.7265
 1300TIP3    H228096   5.789   0.366  17.332  0.6714  0.0677 -0.0325
 1301TIP3   OH228097   0.879   1.126  17.867 -0.1129  0.2610  0.1522
 1301TIP3    H128098   0.870   1.087  17.954 -0.2064 -0.6770 -0.2605
 1301TIP3    H228099   0.965   1.098  17.837  0.4846  1.7051  0.4723
 1302TIP3   OH228100   5.485   2.436  17.443 -0.1097  0.0946 -0.1722
 1302TIP3    H128101   5.422   2.385  17.392 -0.3709 -2.1910  2.2498
 1302TIP3    H228102   5.435   2.466  17.519  1.1804  0.0811  0.7050
 1303TIP3   OH228103   2.134   3.748  17.693  0.2856 -0.5722 -0.0545
 1303TIP3    H128104   2.040   3.758  17.706  0.5799 -0.6615  2.7478
 1303TIP3    H228105   2.157   3.816  17.629 -1.5978 -0.2934 -0.4822
 1304TIP3   OH228106   3.688   6.712  19.218  0.3503  0.4323 -0.5320
 1304TIP3    H128107   3.653   6.740  19.302 -1.2730 -0.2550 -0.9255
 1304TIP3    H228108   3.694   6.616  19.225  2.2933  0.5157 -0.4685
 1305TIP3   OH228109   3.591   1.637  17.007  0.2916  0.0576 -0.3983
 1305TIP3    H128110   3.554   1.558  16.968 -0.3273 -0.2724  0.8173
 1305TIP3    H228111   3.656   1.667  16.943  0.8860 -1.6897 -0.6667
 1306TIP3   OH228112   4.344   5.281  18.090  0.3172  0.2248  0.1553
 1306TIP3    H128113   4.440   5.276  18.085  0.3454  0.7662  0.1084
 1306TIP3    H228114   4.315   5.190  18.085  0.7918  0.1093 -0.7143
 1307TIP3   OH228115   6.254   2.835  18.244  0.5746 -0.4119 -0.0331
 1307TIP3    H128116   6.304   2.906  18.286  1.1713 -1.5148  1.1975
 1307TIP3    H228117   6.319   2.769  18.222 -0.1977 -1.4614  0.7187
 1308TIP3   OH228118   3.507   4.403  16.697  0.4394 -0.1901 -0.2023
 1308TIP3    H128119   3.600   4.425  16.696  0.1376  1.2336  0.2835
 1308TIP3    H228120   3.467   4.472  16.750 -0.8163 -1.1266  0.1156
 1309TIP3   OH228121   4.380   4.315  19.593 -0.5129  0.2434  0.0409
 1309TIP3    H128122   4.437   4.241  19.571 -1.7709 -1.0089  0.7484
 1309TIP3    H228123   4.292   4.282  19.575 -1.1506  1.3110  1.1141
 1310TIP3   OH228124   1.811   4.122  18.873  0.2442  0.1630 -0.0786
 1310TIP3    H128125   1.856   4.039  18.855 -0.5198 -0.7913  2.0207
 1310TIP3    H228126   1.870   4.168  18.932 -0.3568  0.0498  0.6237
 1311TIP3   OH228127   0.972   0.648  16.376 -0.1277  0.2719 -0.1213
 1311TIP3    H128128   0.922   0.678  16.300  1.2991  0.1765 -1.1421
 1311TIP3    H228129   1.025   0.724  16.402 -1.9700  0.9259  2.0247
 1312TIP3   OH228130   0.370   5.865  18.719 -0.0518  0.1866  0.1534
 1312TIP3    H128131   0.409   5.952  18.720 -0.5354  0.4196  1.8244
 1312TIP3    H228132   0.297   5.872  18.657 -1.3316  1.6097  1.7062
 1313TIP3   OH228133   6.485   5.504  18.274 -0.2180 -0.7170 -0.1665
 1313TIP3    H128134   6.460   5.594  18.253 -0.4469  0.0616  2.9168
 1313TIP3    H228135   6.425   5.450  18.223 -0.8498  0.8948 -1.2012
 1314TIP3   OH228136   1.712   4.204  19.410 -0.2817 -0.1561  0.0496
 1314TIP3    H128137   1.650   4.136  19.436 -0.1425  0.1731  1.3261
 1314TIP3    H228138   1.662   4.262  19.354 -1.3004  0.3726  1.4572
 1315TIP3   OH228139   2.649   2.589  19.352 -0.4550 -0.1423 -0.1362
 1315TIP3    H128140   2.672   2.515  19.409 -1.4624  0.1945  0.7444
 1315TIP3    H228141   2.562   2.567  19.319 -0.7765  0.6491  0.1631
 1316TIP3   OH228142   4.217   5.428  17.017 -0.5541 -0.4828  0.3861
 1316TIP3    H128143   4.182   5.375  16.945  0.6781 -1.0372  0.1689
 1316TIP3    H228144   4.248   5.364  17.081  1.6338 -0.1086 -0.2039
 1317TIP3   OH228145   0.015   5.839  17.890  0.2903  0.1849 -0.7000
 1317TIP3    H128146   0.056   5.819  17.805 -0.2815  0.5483 -1.0734
 1317TIP3    H228147   0.013   5.934  17.893 -0.5160  0.1745 -0.6927
 1318TIP3   OH228148   4.377   5.201  17.689 -0.4718 -0.2647 -0.0173
 1318TIP3    H128149   4.320   5.271  17.721 -1.3848 -0.5771 -0.9138
 1318TIP3    H228150   4.462   5.219  17.730 -0.7806  1.1580  0.0553
 1319TIP3   OH228151   6.632   1.312  17.798 -0.3178  0.0953 -0.4627
 1319TIP3    H128152   6.681   1.246  17.847 -2.3030 -0.7771  0.4609
 1319TIP3    H228153   6.611   1.380  17.862  0.1720  0.7384 -0.9779
 1320TIP3   OH228154   2.322   1.150  18.763  0.5706 -0.1555  0.2080
 1320TIP3    H128155   2.234   1.120  18.742  1.0626 -2.2488  0.8894
 1320TIP3    H228156   2.367   1.156  18.679  0.1069 -0.2131 -0.0432
 1321TIP3   OH228157   4.571   5.811  16.982  0.6473 -0.3271  0.2149
 1321TIP3    H128158   4.521   5.874  17.033  0.2829  0.1151 -0.6559
 1321TIP3    H228159   4.516   5.733  16.979  1.1777 -0.7796  1.4486
 1322TIP3   OH228160   4.501   3.608  18.770  0.3285  0.1072  0.1230
 1322TIP3    H128161   4.454   3.596  18.853 -1.4541  0.0268 -0.8579
 1322TIP3    H228162   4.514   3.519  18.737 -0.1918  0.1921 -0.3251
 1323TIP3   OH228163   4.729   1.383  17.916  0.0624  0.2093 -0.1402
 1323TIP3    H128164   4.819   1.380  17.949  0.6240  0.9569 -1.4776
 1323TIP3    H228165   4.731   1.328  17.838 -0.3945  0.9724 -0.6981
 1324TIP3   OH228166   0.496   5.250  18.481  0.9851 -0.2491 -0.3608
 1324TIP3    H128167   0.438   5.315  18.441 -0.7734 -0.4523  1.7030
 1324TIP3    H228168   0.451   5.167  18.469 -0.1406 -0.2100  2.7514
 1325TIP3   OH228169   5.071   2.758  19.439 -0.1659 -0.6891 -0.0419
 1325TIP3    H128170   5.085   2.689  19.504  0.6843  1.1691  1.8505
 1325TIP3    H228171   5.157   2.796  19.424 -0.7334  0.5368 -0.3632
 1326TIP3   OH228172   4.683   4.554  19.499 -0.1933  0.2106  0.3142
 1326TIP3    H128173   4.659   4.507  19.419  1.0042 -0.0834  0.1172
 1326TIP3    H228174   4.717   4.638  19.468 -0.5723  0.4645  0.5731
 1327TIP3   OH228175   2.246   5.060  19.278  0.2364  0.2701  0.7304
 1327TIP3    H128176   2.172   5.051  19.338  1.0876 -0.5674  1.7088
 1327TIP3    H228177   2.230   5.142  19.232 -0.3644  1.0587  2.2617
 1328TIP3   OH228178   3.476   5.520  17.488  0.6432 -0.1269  0.3099
 1328TIP3    H128179   3.410   5.498  17.422 -0.0633  1.4217  0.4441
 1328TIP3    H228180   3.505   5.608  17.464 -0.2323  0.8241  2.5166
 1329TIP3   OH228181   3.715   6.381  17.391 -0.0878 -0.1972  0.6033
 1329TIP3    H128182   3.695   6.464  17.434  0.8396  0.3453  0.0281
 1329TIP3    H228183   3.802   6.394  17.353  0.8066 -1.9891  1.8784
 1330TIP3   OH228184   6.002   4.292  17.573 -0.6874  0.1058  0.0956
 1330TIP3    H128185   6.027   4.307  17.664  1.2001  0.2308 -0.4087
 1330TIP3    H228186   6.049   4.358  17.523 -0.5401 -0.8696 -1.1117
 1331TIP3   OH228187   1.190   1.511  20.038  0.3615 -0.1998 -0.0705
 1331TIP3    H128188   1.119   1.498  19.975 -0.2321  1.3233  0.2251
 1331TIP3    H228189   1.238   1.587  20.003  0.9773 -0.3277  0.4901
 1332TIP3   OH228190   2.090   3.994  18.200  0.2564  0.1216  0.2832
 1332TIP3    H128191   2.167   3.995  18.257 -1.3000 -2.3591  2.6869
 1332TIP3    H228192   2.016   4.000  18.261 -1.5064 -1.9631 -1.5134
 1333TIP3   OH228193   4.872   5.617  17.322  0.0517  0.1906  0.7467
 1333TIP3    H128194   4.859   5.617  17.227  0.4758 -0.6545  0.6859
 1333TIP3    H228195   4.786   5.642  17.357 -0.5105 -0.8905  0.1878
 1334TIP3   OH228196   0.750   0.704  16.529  0.6698  0.1875 -0.2492
 1334TIP3    H128197   0.719   0.786  16.491  0.9444 -0.6958 -2.5510
 1334TIP3    H228198   0.826   0.680  16.476 -0.9839 -2.8780 -1.4853
 1335TIP3   OH228199   1.141   1.796  19.300 -0.5989 -0.2372  0.2186
 1335TIP3    H128200   1.087   1.874  19.287  0.7613  0.8136  0.5816
 1335TIP3    H228201   1.186   1.783  19.217 -2.2913 -1.8667 -0.5055
 1336TIP3   OH228202   6.449   4.619  19.484  0.2132 -0.0972 -0.3175
 1336TIP3    H128203   6.410   4.560  19.549 -0.2780  0.9155  0.3345
 1336TIP3    H228204   6.541   4.626  19.512  0.4634 -1.1101 -0.8346
 1337TIP3   OH228205   1.924   0.480  19.801 -0.1413 -0.2512  0.4239
 1337TIP3    H128206   2.013   0.467  19.767  0.0670  0.5232  0.6469
 1337TIP3    H228207   1.883   0.538  19.737 -1.0689 -1.9623 -0.5894
 1338TIP3   OH228208   2.191   5.908  17.657 -0.4406 -0.1707 -0.1960
 1338TIP3    H128209   2.177   5.879  17.567 -0.6848 -0.7982  0.0405
 1338TIP3    H228210   2.218   5.999  17.649  0.6240 -0.5264 -0.9840
 1339TIP3   OH228211   2.864   4.788  19.179 -0.7000  0.0354  0.6966
 1339TIP3    H128212   2.896   4.701  19.201 -0.7622  0.1652  1.3317
 1339TIP3    H228213   2.886   4.800  19.087  1.3081  0.2359  1.1720
 1340TIP3   OH228214   0.166   2.532  20.222 -0.1239  0.5363  0.2184
 1340TIP3    H128215   0.085   2.486  20.242  0.2796 -0.9840 -1.3986
 1340TIP3    H228216   0.181   2.588  20.298  0.1263 -3.0593  3.0819
 1341TIP3   OH228217   4.008   6.534  18.459 -0.4029  0.6592 -0.7076
 1341TIP3    H128218   4.068   6.474  18.504 -0.4859  0.4107 -0.9216
 1341TIP3    H228219   3.946   6.561  18.526 -0.1379  0.8066 -0.5196
 1342TIP3   OH228220   6.768   1.111  18.028  0.0260 -0.5424 -0.2025
 1342TIP3    H128221   6.686   1.074  17.993  0.9544 -1.3169 -1.6582
 1342TIP3    H228222   6.739   1.172  18.096 -1.8159 -0.0791 -1.3081
 1343TIP3   OH228223   6.469   0.491  18.275  0.7229 -0.1692  0.3103
 1343TIP3    H128224   6.389   0.497  18.223  1.0756 -0.1537 -0.2386
 1343TIP3    H228225   6.516   0.417  18.238  1.7365  0.8334 -0.4819
 1344TIP3   OH228226   4.010   1.156  19.416  0.4528  0.5345  0.0397
 1344TIP3    H128227   3.994   1.164  19.510  0.6709 -1.5622  0.2955
 1344TIP3    H228228   4.057   1.236  19.393 -0.9483  1.8168  1.3829
 1345TIP3   OH228229   6.253   6.504  18.584  0.2439 -0.6450  0.0200
 1345TIP3    H128230   6.325   6.521  18.644  0.6047 -2.3492  0.1263
 1345TIP3    H228231   6.295   6.482  18.501 -0.0650 -2.5785  0.3304
 1346TIP3   OH228232   1.331   0.136  19.910  0.9062 -0.0400  0.5175
 1346TIP3    H128233   1.366   0.096  19.989  0.1071 -0.4573  0.6760
 1346TIP3    H228234   1.363   0.080  19.839  2.8747  1.1879  0.3760
 1347TIP3   OH228235   5.938   6.059  19.361 -0.3966 -0.1473 -0.8637
 1347TIP3    H128236   5.958   6.007  19.439 -0.7086  0.7567 -0.1571
 1347TIP3    H228237   5.873   6.124  19.391 -0.4501  0.2844 -1.8498
 1348TIP3   OH228238   5.756   3.920  17.967 -0.0189 -0.5156  0.1073
 1348TIP3    H128239   5.756   3.882  18.055  1.1265 -0.8195 -0.0086
 1348TIP3    H228240   5.814   3.863  17.916  0.3650  0.4012 -0.5077
 1349TIP3   OH228241   1.894   2.886  17.111  0.3006  0.2779 -0.2347
 1349TIP3    H128242   1.952   2.922  17.177 -0.1046 -2.4141  1.7519
 1349TIP3    H228243   1.933   2.912  17.028  2.3229  1.5720  1.0332
 1350TIP3   OH228244   0.956   6.457  18.593  0.0985  0.3471 -0.4259
 1350TIP3    H128245   0.894   6.527  18.570 -0.0802 -0.1969 -1.7032
 1350TIP3    H228246   0.917   6.378  18.556  1.3440 -0.0742 -0.8713
 1351TIP3   OH228247   3.434   2.385  19.904 -0.2598 -0.2449 -0.4344
 1351TIP3    H128248   3.376   2.460  19.891 -0.3070 -0.2771 -0.4063
 1351TIP3    H228249   3.518   2.414  19.868 -0.4549 -0.4197 -1.0449
 1352TIP3   OH228250   5.869   6.512  17.056  0.2662  0.4830 -0.0127
 1352TIP3    H128251   5.822   6.577  17.005  0.4306  0.8520  0.3002
 1352TIP3    H228252   5.800   6.455  17.091  0.1395  0.3430 -0.4752
 1353TIP3   OH228253   0.719   3.521  16.327  0.4391  0.1833 -0.7010
 1353TIP3    H128254   0.704   3.584  16.256  0.9645 -0.2601 -1.2157
 1353TIP3    H228255   0.693   3.568  16.406 -0.6999  0.5076 -1.2318
 1354TIP3   OH228256   4.654   4.848  18.734  0.2112  0.1335 -0.5081
 1354TIP3    H128257   4.588   4.912  18.761  0.1543  0.9839 -2.4873
 1354TIP3    H228258   4.718   4.848  18.805 -0.3412  1.6170  0.0277
 1355TIP3   OH228259   5.458   0.621  18.866 -0.4043 -0.1321  0.0866
 1355TIP3    H128260   5.488   0.707  18.837  1.3810  0.3077  2.8218
 1355TIP3    H228261   5.403   0.640  18.943 -1.0539 -1.3956 -0.0410
 1356TIP3   OH228262   3.250   0.866  16.392 -0.2338  0.5255 -0.0606
 1356TIP3    H128263   3.184   0.870  16.462 -1.0128  1.8896 -0.8220
 1356TIP3    H228264   3.324   0.914  16.428 -0.7486  1.4990 -0.2568
 1357TIP3   OH228265   4.223   6.281  17.956 -0.0027 -0.3794  0.4580
 1357TIP3    H128266   4.137   6.272  17.916  0.1350  0.0750  0.0443
 1357TIP3    H228267   4.206   6.306  18.046 -0.3034  1.8377 -0.1546
 1358TIP3   OH228268   3.353   3.956  17.768  0.0648 -0.2359  0.0353
 1358TIP3    H128269   3.436   3.913  17.789  0.0301 -0.2229  0.2003
 1358TIP3    H228270   3.350   3.958  17.672  0.4850  0.2055  0.0252
 1359TIP3   OH228271   4.138   4.335  17.561  0.2307  0.2002  0.0161
 1359TIP3    H128272   4.188   4.273  17.508  1.2138 -0.6762  1.8814
 1359TIP3    H228273   4.201   4.402  17.586  0.1852 -0.2124  1.2988
 1360TIP3   OH228274   1.188   3.299  16.741  0.0205  0.7713 -0.4019
 1360TIP3    H128275   1.273   3.292  16.784 -0.0746 -1.0360 -0.4346
 1360TIP3    H228276   1.125   3.266  16.805 -0.6542  1.8538 -0.4744
 1361TIP3   OH228277   0.270   1.603  18.396 -0.4534  0.2099 -0.3773
 1361TIP3    H128278   0.245   1.664  18.465 -1.8707 -1.1814  0.4132
 1361TIP3    H228279   0.239   1.518  18.428  2.4453 -1.1555 -0.8762
 1362TIP3   OH228280   6.765   3.857  17.926  0.9095  0.0264 -0.1150
 1362TIP3    H128281   6.764   3.916  17.851  0.4875 -0.4259 -0.4790
 1362TIP3    H228282   6.843   3.802  17.912  0.0715 -1.0023 -1.0052
 1363TIP3   OH228283   6.658   1.457  17.125 -0.4045 -0.3358 -0.3959
 1363TIP3    H128284   6.567   1.456  17.155 -0.4742  2.5205 -0.2047
 1363TIP3    H228285   6.653   1.473  17.031 -0.1064 -0.7430 -0.4829
 1364TIP3   OH228286   6.661   3.217  18.473 -0.5731  0.1317  0.1091
 1364TIP3    H128287   6.667   3.123  18.458 -0.4240  0.1586 -0.0104
 1364TIP3    H228288   6.594   3.247  18.412  0.0613  0.2466 -0.5577
 1365TIP3   OH228289   2.598   3.058  18.435 -0.1581  0.1075  0.0275
 1365TIP3    H128290   2.683   3.092  18.462 -0.5003 -0.1356  1.5220
 1365TIP3    H228291   2.580   2.987  18.497 -1.4805  0.2136 -0.2059
 1366TIP3   OH228292   4.266   3.977  17.644 -0.2391 -0.0129 -0.2306
 1366TIP3    H128293   4.299   3.969  17.555  1.0073 -1.2241  0.2926
 1366TIP3    H228294   4.344   3.997  17.697 -0.8407  0.0380  0.6715
 1367TIP3   OH228295   2.414   2.478  19.286 -0.1971  0.0932  0.1745
 1367TIP3    H128296   2.384   2.545  19.347  1.6260  0.9052  0.2636
 1367TIP3    H228297   2.385   2.396  19.325 -0.9843  0.7267  0.9776
 1368TIP3   OH228298   5.982   6.341  17.292  0.2162  0.3558 -0.1562
 1368TIP3    H128299   5.946   6.390  17.218  1.3425 -0.2450 -1.1305
 1368TIP3    H228300   6.075   6.334  17.274  0.6253  0.6883  1.6246
 1369TIP3   OH228301   6.450   0.348  17.588  0.4689  0.2115 -0.5359
 1369TIP3    H128302   6.546   0.349  17.590  0.4737 -0.7238  0.1999
 1369TIP3    H228303   6.423   0.411  17.655  0.5896 -0.7530  0.4497
 1370TIP3   OH228304   5.709   1.152  16.648  0.3636  0.1155  0.4131
 1370TIP3    H128305   5.711   1.084  16.581 -0.6766 -0.6677  1.1417
 1370TIP3    H228306   5.690   1.232  16.600 -0.2604 -0.4156 -0.2545
 1371TIP3   OH228307   1.008   2.651  17.477  0.2761  0.4798 -0.0530
 1371TIP3    H128308   1.034   2.694  17.396  0.6540 -0.0672 -0.2193
 1371TIP3    H228309   1.087   2.607  17.508  0.0618  0.4551  0.4652
 1372TIP3   OH228310   5.270   1.286  17.316 -1.3028  0.2834 -0.3168
 1372TIP3    H128311   5.301   1.273  17.226 -3.9549  0.2391 -1.3037
 1372TIP3    H228312   5.294   1.206  17.361 -0.4601  0.0493 -1.1356
 1373TIP3   OH228313   5.011   0.352  19.078 -0.2060  0.5869  0.4463
 1373TIP3    H128314   4.967   0.334  18.995 -1.8416  1.3628  1.0810
 1373TIP3    H228315   5.040   0.443  19.071 -1.9070  1.2477  1.3093
 1374TIP3   OH228316   2.872   2.632  19.185 -0.0336  0.1430 -0.2583
 1374TIP3    H128317   2.801   2.627  19.249  0.2231 -0.2465  0.0005
 1374TIP3    H228318   2.837   2.685  19.114 -0.6763 -0.2751 -0.2545
 1375TIP3   OH228319   0.322   1.958  18.825 -0.3373  0.7832  0.2277
 1375TIP3    H128320   0.323   2.054  18.822 -0.0257  0.7792 -2.0144
 1375TIP3    H228321   0.398   1.934  18.877  0.4793  1.7673 -0.4778
 1376TIP3   OH228322   0.061   6.697  17.046  0.2705 -0.5615  0.6093
 1376TIP3    H128323   0.139   6.753  17.054  0.4681 -0.8665  0.8489
 1376TIP3    H228324   0.089   6.613  17.082  0.6430 -1.4790 -1.6620
 1377TIP3   OH228325   3.989   5.321  19.579  0.6268  0.4578 -0.1292
 1377TIP3    H128326   4.016   5.360  19.662  2.4527 -0.7391 -0.1172
 1377TIP3    H228327   3.973   5.229  19.600  1.3321  0.0964 -1.1498
 1378TIP3   OH228328   6.617   3.538  17.324  0.8632  0.6923  0.6013
 1378TIP3    H128329   6.661   3.619  17.299 -1.4128  1.5176 -1.0815
 1378TIP3    H228330   6.543   3.567  17.377  0.4374 -0.3651  0.5948
 1379TIP3   OH228331   4.370   3.703  16.924 -0.6129 -0.0286  0.3446
 1379TIP3    H128332   4.283   3.735  16.901  0.2330  3.5432  1.4537
 1379TIP3    H228333   4.428   3.743  16.858  0.5648  1.0858  1.9773
 1380TIP3   OH228334   0.744   5.200  17.255  0.1687 -0.4373 -0.4750
 1380TIP3    H128335   0.786   5.127  17.209  1.9544 -0.0844  0.4906
 1380TIP3    H228336   0.799   5.214  17.332  0.0563  2.1407 -0.7885
 1381TIP3   OH228337   6.148   3.773  18.976 -0.4484 -0.2694  0.5872
 1381TIP3    H128338   6.162   3.848  19.034 -0.5724 -0.7138  1.2072
 1381TIP3    H228339   6.231   3.726  18.977 -0.0873  0.3107 -0.4852
 1382TIP3   OH228340   6.251   0.585  16.926 -0.3904  0.3089  0.3630
 1382TIP3    H128341   6.312   0.638  16.875  0.7830 -1.3262 -0.0268
 1382TIP3    H228342   6.208   0.647  16.985 -0.2611  1.9119 -1.1541
 1383TIP3   OH228343   0.722   5.321  16.596 -0.1654 -0.2014  0.3362
 1383TIP3    H128344   0.629   5.301  16.583 -0.2508  0.6372 -0.4029
 1383TIP3    H228345   0.722   5.392  16.660  0.0497 -1.2123  1.4892
 1384TIP3   OH228346   6.469   4.160  16.846  0.0785  0.7492 -0.3361
 1384TIP3    H128347   6.538   4.098  16.867 -0.4352  0.1653 -0.3564
 1384TIP3    H228348   6.464   4.159  16.750 -1.7755 -1.2666 -0.2896
 1385TIP3   OH228349   0.163   5.294  19.774 -0.3619 -0.1621 -0.1906
 1385TIP3    H128350   0.110   5.364  19.813  1.8042  0.1228  2.5697
 1385TIP3    H228351   0.254   5.321  19.791  0.5942 -2.5769 -1.0623
 1386TIP3   OH228352   6.585   2.170  20.295  0.1987  0.3150 -0.5205
 1386TIP3    H128353   6.536   2.144  20.217 -0.8544 -1.3605  0.6318
 1386TIP3    H228354   6.559   2.107  20.362  0.9312  1.7963  1.2545
 1387TIP3   OH228355   0.709   4.946  19.050 -0.3711 -0.9591  0.1727
 1387TIP3    H128356   0.765   4.894  18.994  1.0852 -0.9398  1.5555
 1387TIP3    H228357   0.652   4.994  18.989  1.2587 -0.8019 -1.2825
 1388TIP3   OH228358   2.222   1.335  17.659  0.3265 -0.2445  0.9503
 1388TIP3    H128359   2.203   1.267  17.596 -0.0844  0.3963  0.3687
 1388TIP3    H228360   2.285   1.295  17.719  1.9487 -0.3846 -0.7476
 1389TIP3   OH228361   2.497   4.920  19.679  0.3270 -0.0326 -0.2679
 1389TIP3    H128362   2.563   4.949  19.742 -0.1269  1.8345 -0.6177
 1389TIP3    H228363   2.483   4.995  19.622 -4.0994  0.7280  1.4557
 1390TIP3   OH228364   4.589   0.943  18.462 -0.1137 -0.2590 -0.2689
 1390TIP3    H128365   4.625   0.911  18.545 -1.8624  1.5697  1.3028
 1390TIP3    H228366   4.660   0.994  18.423  0.2892  0.0619  0.8305
 1391TIP3   OH228367   0.979   1.835  17.214 -0.2603 -0.1571 -0.3525
 1391TIP3    H128368   0.885   1.819  17.222 -0.0528 -2.1793 -1.4429
 1391TIP3    H228369   1.015   1.809  17.299 -0.4059 -2.0052 -0.8145
 1392TIP3   OH228370   3.575   4.158  17.630 -0.0806  0.4338 -0.5355
 1392TIP3    H128371   3.562   4.080  17.684  1.8777  0.7030  0.4176
 1392TIP3    H228372   3.598   4.123  17.544  0.6736 -0.0766 -0.1481
 1393TIP3   OH228373   2.998   1.597  19.093  0.2047 -0.3088 -0.4256
 1393TIP3    H128374   3.016   1.543  19.016  0.9976  1.0178 -1.2081
 1393TIP3    H228375   3.084   1.631  19.119 -0.1237 -0.3540  0.7645
 1394TIP3   OH228376   6.475   4.905  16.238  0.4953 -0.0576  0.2150
 1394TIP3    H128377   6.416   4.879  16.167 -0.6616  0.1713  1.0547
 1394TIP3    H228378   6.528   4.828  16.254  0.8192 -0.0959 -0.9290
 1395TIP3   OH228379   4.866   5.919  17.412 -0.4233 -0.0082 -0.2797
 1395TIP3    H128380   4.792   5.979  17.414 -0.3791  0.0355  0.9052
 1395TIP3    H228381   4.841   5.851  17.350 -1.9211 -0.5569  0.8551
 1396TIP3   OH228382   2.354   1.467  19.830 -0.2756  0.0422 -0.1745
 1396TIP3    H128383   2.303   1.386  19.828  1.7477 -1.3767  1.4526
 1396TIP3    H228384   2.296   1.533  19.792 -2.7173 -1.7609  0.1839
 1397TIP3   OH228385   3.518   3.746  20.207 -0.2796 -0.3513 -0.5388
 1397TIP3    H128386   3.476   3.709  20.129 -0.1744 -1.7960  0.0539
 1397TIP3    H228387   3.584   3.681  20.231 -1.1147 -0.5308  1.4438
 1398TIP3   OH228388   5.343   2.457  17.680 -0.0786 -0.1147 -0.0345
 1398TIP3    H128389   5.385   2.468  17.765  1.0115 -0.5050 -0.4986
 1398TIP3    H228390   5.253   2.487  17.693 -0.1290 -0.8174  1.4336
 1399TIP3   OH228391   5.864   3.622  17.972 -0.4168 -0.2354 -0.0463
 1399TIP3    H128392   5.842   3.575  18.052  0.1866 -0.7546 -0.1809
 1399TIP3    H228393   5.903   3.556  17.915  1.4095  0.6175  0.1508
 1400TIP3   OH228394   1.523   5.564  18.425  0.2248  0.1012 -0.2077
 1400TIP3    H128395   1.528   5.471  18.448 -0.4386  0.4709  1.6786
 1400TIP3    H228396   1.603   5.582  18.376  0.4266 -1.4230 -0.4746
 1401TIP3   OH228397   0.919   0.630  19.119 -0.0565 -0.1650  0.3195
 1401TIP3    H128398   0.961   0.621  19.033 -4.2259 -3.0485 -1.7631
 1401TIP3    H228399   0.933   0.546  19.162 -1.7697 -0.4537  0.4016
 1402TIP3   OH228400   3.070   0.628  17.824 -0.1570 -0.5092  0.0244
 1402TIP3    H128401   3.137   0.582  17.772  0.4956 -0.8276  1.1194
 1402TIP3    H228402   3.119   0.668  17.896 -0.6524  2.1630 -1.0041
 1403TIP3   OH228403   6.023   1.881  18.567  0.3993  0.4793  0.4407
 1403TIP3    H128404   6.054   1.924  18.647 -2.3289  0.1664  1.7695
 1403TIP3    H228405   5.972   1.948  18.522  2.1884  0.7594 -1.3117
 1404TIP3   OH228406   4.781   2.884  19.664  0.4093  0.2724  0.2606
 1404TIP3    H128407   4.731   2.851  19.740 -2.6532  0.1768 -1.6107
 1404TIP3    H228408   4.783   2.979  19.677 -1.1493  0.3788 -0.0334
 1405TIP3   OH228409   1.903   3.512  20.100 -0.4205 -0.0454 -0.5996
 1405TIP3    H128410   1.890   3.440  20.038 -0.7142 -1.3451  0.8913
 1405TIP3    H228411   1.816   3.550  20.111 -0.8468 -1.3038  0.6944
 1406TIP3   OH228412   4.034   4.486  18.686  0.2996 -0.4204 -0.0876
 1406TIP3    H128413   4.128   4.466  18.685  0.2898 -0.4840  0.3767
 1406TIP3    H228414   4.002   4.452  18.602  0.5267 -1.1945  0.1296
 1407TIP3   OH228415   2.788   6.431  18.426 -0.1090 -0.2566 -0.0219
 1407TIP3    H128416   2.848   6.357  18.437  0.6057  0.3071 -0.0682
 1407TIP3    H228417   2.822   6.479  18.350 -0.8630 -0.1546 -0.3057
 1408TIP3   OH228418   1.796   4.609  18.276 -0.2909  0.2856 -0.4205
 1408TIP3    H128419   1.730   4.556  18.322  1.6852 -1.3563  0.6573
 1408TIP3    H228420   1.880   4.571  18.301  1.0750  1.6410 -2.5684
 1409TIP3   OH228421   1.988   0.617  18.705  0.0106 -0.2600  0.2683
 1409TIP3    H128422   2.004   0.685  18.641  1.5401  1.1708  2.0598
 1409TIP3    H228423   1.892   0.614  18.713 -0.2948 -1.0318 -2.5096
 1410TIP3   OH228424   3.863   5.399  17.697  0.0600 -0.1706  0.0464
 1410TIP3    H128425   3.876   5.305  17.707 -0.8578 -0.4112 -0.8061
 1410TIP3    H228426   3.775   5.415  17.730  1.2413  0.9165  2.9566
 1411TIP3   OH228427   5.234   6.609  18.609 -0.1799  0.0895  0.5122
 1411TIP3    H128428   5.291   6.664  18.664 -0.2724 -0.0926  0.7939
 1411TIP3    H228429   5.291   6.540  18.576 -0.0741  0.3276  0.2000
 1412TIP3   OH228430   5.025   4.852  17.653 -0.4661 -0.0360 -0.1273
 1412TIP3    H128431   4.996   4.761  17.662  0.3940 -0.0635  3.5061
 1412TIP3    H228432   5.096   4.862  17.716  2.6285  2.0382 -3.5343
 1413TIP3   OH228433   3.845   4.066  19.389 -0.0440 -0.2121 -0.4985
 1413TIP3    H128434   3.911   4.130  19.363 -0.9010  0.5527 -0.8420
 1413TIP3    H228435   3.823   4.020  19.308 -0.1515 -0.2598 -0.4421
 1414TIP3   OH228436   4.910   4.573  18.972 -0.2375  0.0592 -0.0377
 1414TIP3    H128437   4.997   4.582  19.010 -0.0367  0.6780 -0.6151
 1414TIP3    H228438   4.917   4.615  18.886 -1.0904  0.0841 -0.1042
 1415TIP3   OH228439   0.509   1.825  17.524  0.3055 -0.4686 -0.1143
 1415TIP3    H128440   0.465   1.787  17.447 -1.6634  0.0158  0.7012
 1415TIP3    H228441   0.476   1.915  17.528 -0.2998 -0.7373  1.7573
 1416TIP3   OH228442   0.581   4.544  18.366  0.4667 -0.0865 -0.6193
 1416TIP3    H128443   0.563   4.475  18.302 -0.4708 -0.9026  0.4732
 1416TIP3    H228444   0.495   4.573  18.395  0.8673  0.4714  0.0395
 1417TIP3   OH228445   4.239   2.707  19.171  0.0644  0.3733  0.4448
 1417TIP3    H128446   4.319   2.717  19.119  0.4655  0.3241  1.0485
 1417TIP3    H228447   4.197   2.793  19.168 -1.3581 -0.2675 -2.2460
 1418TIP3   OH228448   6.367   0.868  18.321 -0.5690 -0.8227 -0.6055
 1418TIP3    H128449   6.437   0.823  18.369 -1.3870 -1.2664  0.2301
 1418TIP3    H228450   6.316   0.912  18.390 -1.5273 -1.1157 -1.1069
 1419TIP3   OH228451   3.643   4.880  18.743 -0.3045 -0.0776 -0.1491
 1419TIP3    H128452   3.720   4.824  18.751 -0.3532 -0.6082 -2.6662
 1419TIP3    H228453   3.635   4.897  18.649 -2.5940  0.9112  0.1567
 1420TIP3   OH228454   2.450   4.186  19.582  0.1351 -0.2952 -0.0037
 1420TIP3    H128455   2.375   4.139  19.620 -0.7306  1.4696  0.5977
 1420TIP3    H228456   2.527   4.138  19.612 -0.5864  0.1437  2.7959
 1421TIP3   OH228457   0.554   6.314  17.882 -0.2741  0.4590  0.5295
 1421TIP3    H128458   0.474   6.285  17.838  0.8568  0.1320 -1.4208
 1421TIP3    H228459   0.580   6.240  17.936  1.2984 -1.4578 -2.5941
 1422TIP3   OH228460   2.436   2.085  16.337  0.4140  0.0570 -0.6185
 1422TIP3    H128461   2.492   2.084  16.414  0.9295 -1.0712 -0.9893
 1422TIP3    H228462   2.477   2.148  16.278  0.5803  0.1683 -0.3819
 1423TIP3   OH228463   1.110   1.730  17.014 -0.4208 -0.0145  0.2076
 1423TIP3    H128464   1.154   1.797  16.962 -1.3094  0.9136  0.6007
 1423TIP3    H228465   1.059   1.779  17.078 -0.6008 -1.0963  0.9265
 1424TIP3   OH228466   5.380   2.621  19.555  0.6503 -0.0019 -0.0581
 1424TIP3    H128467   5.437   2.546  19.538  0.4121 -0.2284  0.1414
 1424TIP3    H228468   5.431   2.697  19.526  0.8637 -0.2462 -0.3294
 1425TIP3   OH228469   5.000   1.082  19.411  0.3641  0.0875  0.3298
 1425TIP3    H128470   4.934   1.019  19.440  0.7512 -0.0187  0.9966
 1425TIP3    H228471   5.052   1.100  19.489 -0.1448  1.7421  0.3349
 1426TIP3   OH228472   1.239   0.014  17.824  0.4617  0.4390  0.0574
 1426TIP3    H128473   1.277   0.025  17.737 -0.8327  1.6062 -0.4066
 1426TIP3    H228474   1.260  -0.075  17.849  1.5824  0.3621 -1.0982
 1427TIP3   OH228475   3.476   6.158  19.397  0.1858 -0.3120 -0.1049
 1427TIP3    H128476   3.385   6.133  19.415 -0.3985  1.7111  0.0899
 1427TIP3    H228477   3.468   6.228  19.331  1.7173 -1.1735 -1.2489
 1428TIP3   OH228478   3.870   0.852  19.726  0.5347  0.1293 -0.0046
 1428TIP3    H128479   3.802   0.848  19.658 -0.7610  1.6330  1.1334
 1428TIP3    H228480   3.867   0.767  19.768 -0.9806  0.3056  0.3018
 1429TIP3   OH228481   0.911   2.025  17.521 -0.3369  0.3157  0.1975
 1429TIP3    H128482   0.840   1.961  17.531  0.2924 -0.0400  4.2824
 1429TIP3    H228483   0.988   1.981  17.557  0.2060  3.0489  2.8051
 1430TIP3   OH228484   1.809   6.629  19.045  0.2470  0.4465  0.5675
 1430TIP3    H128485   1.765   6.699  18.996  0.5016  0.9601  1.0567
 1430TIP3    H228486   1.893   6.618  19.001 -0.4615 -0.7382 -0.5504
 1431TIP3   OH228487   4.828   2.486  19.014 -0.0895 -0.0155  0.1224
 1431TIP3    H128488   4.845   2.537  19.093  1.9642  0.1980 -0.4156
 1431TIP3    H228489   4.815   2.396  19.046 -1.7662  0.4415  0.8828
 1432TIP3   OH228490   1.663   3.155  19.437  0.3326 -0.0547  0.4007
 1432TIP3    H128491   1.717   3.076  19.438 -0.1914 -0.4196  1.7676
 1432TIP3    H228492   1.606   3.145  19.361  1.1139 -0.3921 -0.1521
 1433TIP3   OH228493   5.256   2.728  20.006  0.1640  0.1071 -0.2553
 1433TIP3    H128494   5.298   2.809  20.034 -3.0545  0.9313  2.7553
 1433TIP3    H228495   5.187   2.756  19.946  0.5812 -0.6977 -1.1373
 1434TIP3   OH228496   1.917   4.792  17.253  0.1916  0.1753 -0.2261
 1434TIP3    H128497   1.845   4.783  17.191  1.5603 -1.9094 -1.6454
 1434TIP3    H228498   1.964   4.870  17.223 -0.0528  0.0792 -0.8834
 1435TIP3   OH228499   0.221   1.129  17.796  0.4094  0.6440 -0.1069
 1435TIP3    H128500   0.162   1.177  17.856 -0.3305 -0.8298  0.3889
 1435TIP3    H228501   0.217   1.179  17.715 -0.5066  1.3088  0.3200
 1436TIP3   OH228502   5.892   2.705  19.936  0.2031 -0.1150 -0.7475
 1436TIP3    H128503   5.815   2.731  19.885 -0.7246  0.7339  1.0048
 1436TIP3    H228504   5.945   2.653  19.875 -2.0862 -1.3298 -1.8098
 1437TIP3   OH228505   3.498   2.655  18.870  0.3803  0.6071 -0.1544
 1437TIP3    H128506   3.583   2.665  18.827 -0.3650  0.1051 -1.8247
 1437TIP3    H228507   3.464   2.745  18.875  1.0913  0.8455  0.7712
 1438TIP3   OH228508   1.213   0.258  16.920  0.0703  0.1925 -0.6872
 1438TIP3    H128509   1.270   0.297  16.854 -0.5980 -0.7402 -1.8726
 1438TIP3    H228510   1.131   0.240  16.873 -0.0244 -1.5967  0.0620
 1439TIP3   OH228511   2.564   4.590  20.136  0.0828 -0.2115 -0.0629
 1439TIP3    H128512   2.581   4.502  20.168  1.3988 -0.2214 -0.7403
 1439TIP3    H228513   2.549   4.641  20.216  4.8367  0.1025  0.9401
 1440TIP3   OH228514   4.157   1.775  17.985 -0.5044  0.2204 -0.3591
 1440TIP3    H128515   4.113   1.724  18.053  0.5739  0.1386  0.2944
 1440TIP3    H228516   4.101   1.764  17.908 -1.6819  0.2105  0.4664
 1441TIP3   OH228517   3.988   3.322  18.848 -0.1822  0.6900 -0.3503
 1441TIP3    H128518   4.078   3.350  18.864 -0.3638  1.0484  0.0769
 1441TIP3    H228519   3.952   3.304  18.935 -0.3095 -0.1476 -0.5661
 1442TIP3   OH228520   5.077   1.900  17.313 -0.3434 -0.1999 -0.1279
 1442TIP3    H128521   5.023   1.975  17.337 -0.5849 -0.2324 -0.5622
 1442TIP3    H228522   5.019   1.824  17.322  0.2393 -0.4937  1.5176
 1443TIP3   OH228523   2.554   1.495  20.042  0.5491 -0.1864 -0.1817
 1443TIP3    H128524   2.544   1.572  20.098 -0.4961 -1.8073  2.0326
 1443TIP3    H228525   2.491   1.508  19.972 -1.4529 -0.1096  1.5458
 1444TIP3   OH228526   3.871   5.613  20.010 -0.5513 -0.0776  0.7723
 1444TIP3    H128527   3.909   5.666  20.079  1.6455  0.3713 -0.6603
 1444TIP3    H228528   3.817   5.548  20.055 -0.7635  1.3975  2.7349
 1445TIP3   OH228529   3.957   6.049  19.922  0.1204  0.1358  0.8398
 1445TIP3    H128530   3.935   5.995  19.846 -0.7077 -0.3785  1.4217
 1445TIP3    H228531   4.014   5.994  19.976 -0.3948 -0.0218  1.2360
 1446TIP3   OH228532   4.036   3.897  18.449 -0.9163 -0.5640 -0.0618
 1446TIP3    H128533   4.044   3.839  18.373  0.0502 -1.8016  0.9493
 1446TIP3    H228534   3.986   3.972  18.416  0.4928 -0.5031 -2.2318
 1447TIP3   OH228535   3.377   3.952  17.440  0.4829  0.0391 -0.1643
 1447TIP3    H128536   3.467   3.981  17.425  0.1191  1.2821 -0.0736
 1447TIP3    H228537   3.331   3.975  17.359 -0.0658  0.7775  0.3434
 1448TIP3   OH228538   0.239   4.213  16.653  0.5644  0.0964  0.4754
 1448TIP3    H128539   0.207   4.241  16.567  0.8546 -0.5887  0.1358
 1448TIP3    H228540   0.319   4.264  16.667 -0.2658  1.2887  1.0109
 1449TIP3   OH228541   0.054   0.930  17.083 -0.0118  0.2971  0.2370
 1449TIP3    H128542   0.035   0.981  17.162 -0.3449 -1.7050  1.5254
 1449TIP3    H228543   0.073   0.842  17.116 -2.3978 -1.1962 -2.0402
 1450TIP3   OH228544   6.113   3.026  18.708 -0.3007 -0.0494  0.1879
 1450TIP3    H128545   6.040   2.999  18.764 -1.5999 -0.4478 -1.5990
 1450TIP3    H228546   6.160   3.092  18.760 -3.1622  1.7917  0.6696
 1451TIP3   OH228547   0.277   4.829  18.316 -0.9088  0.7161 -0.1562
 1451TIP3    H128548   0.235   4.831  18.230  1.2543  0.9946 -1.2760
 1451TIP3    H228549   0.368   4.852  18.299 -0.5018  1.2115  2.2956
 1452TIP3   OH228550   4.415   4.893  17.662  0.4836 -0.0048  0.0033
 1452TIP3    H128551   4.335   4.855  17.698  0.7605 -1.4132 -0.8113
 1452TIP3    H228552   4.402   4.988  17.670 -1.3362 -0.1931 -0.3091
 1453TIP3   OH228553   1.984   2.699  19.614  0.2770 -0.0776 -0.3852
 1453TIP3    H128554   1.910   2.650  19.578  0.3113  0.6490 -1.4822
 1453TIP3    H228555   2.046   2.631  19.644 -0.3002 -0.6869 -0.5507
 1454TIP3   OH228556   6.491   1.721  16.540  0.0264  0.1547  0.4609
 1454TIP3    H128557   6.585   1.713  16.549  0.2215 -0.1140 -1.4584
 1454TIP3    H228558   6.475   1.816  16.545  0.6183  0.3449 -0.8076
 1455TIP3   OH228559   5.418   3.695  19.819 -0.8700  0.1811  0.1378
 1455TIP3    H128560   5.374   3.610  19.821 -0.8967  0.2105  0.8763
 1455TIP3    H228561   5.499   3.681  19.869 -1.1802  0.7585  0.8149
 1456TIP3   OH228562   1.911   0.292  19.543  0.4442 -0.4523 -0.3801
 1456TIP3    H128563   1.817   0.277  19.533  0.1970  0.1869  0.8014
 1456TIP3    H228564   1.935   0.342  19.465 -0.2850 -0.2522 -0.4869
 1457TIP3   OH228565   3.356   0.273  19.347 -0.3216 -0.1124  0.3061
 1457TIP3    H128566   3.304   0.251  19.270  0.6380 -1.5717  0.0346
 1457TIP3    H228567   3.447   0.260  19.320  0.1565  1.2459  1.1204
 1458TIP3   OH228568   4.099   5.555  18.440  0.0437  0.3453 -0.5249
 1458TIP3    H128569   4.103   5.541  18.346  0.6101  3.8110 -1.1760
 1458TIP3    H228570   4.188   5.583  18.464 -0.7537  2.3422  0.3927
 1459TIP3   OH228571   1.768   5.179  18.238  0.0790 -0.3961 -0.0042
 1459TIP3    H128572   1.816   5.096  18.240 -0.9111 -0.9852  0.0508
 1459TIP3    H228573   1.807   5.227  18.165  2.0225 -0.0433  1.2100
 1460TIP3   OH228574   3.473   5.806  19.990 -0.0652 -0.5428  0.3946
 1460TIP3    H128575   3.395   5.838  20.037 -0.4156 -1.1189  0.2183
 1460TIP3    H228576   3.546   5.833  20.045 -0.4736 -1.3312  1.3686
 1461TIP3   OH228577   1.124   5.827  18.944 -0.1755  0.1479 -0.1954
 1461TIP3    H128578   1.173   5.745  18.941 -0.9015 -0.2748 -0.7957
 1461TIP3    H228579   1.047   5.812  18.888 -0.2033  1.3111 -0.5081
 1462TIP3   OH228580   4.133   0.616  18.648  0.0903 -0.1031 -0.8635
 1462TIP3    H128581   4.148   0.705  18.616 -0.1396 -0.8631 -3.3622
 1462TIP3    H228582   4.221   0.582  18.665  0.1143  1.0698  1.7546
 1463TIP3   OH228583   0.403   3.589  17.182  0.0740  0.4351  0.3839
 1463TIP3    H128584   0.308   3.588  17.197 -0.6073  1.5603 -2.9947
 1463TIP3    H228585   0.421   3.505  17.139  0.3519  0.7192 -0.0666
 1464TIP3   OH228586   6.311   0.903  17.477  0.2803 -0.1883 -0.3679
 1464TIP3    H128587   6.330   0.922  17.569 -0.4047  2.5111 -0.6889
 1464TIP3    H228588   6.365   0.966  17.428 -2.7893  1.7493 -1.5581
 1465TIP3   OH228589   5.002   1.006  18.161  0.5484  0.0783  0.7378
 1465TIP3    H128590   5.082   1.029  18.208  1.4179 -0.8496 -0.2350
 1465TIP3    H228591   5.032   0.956  18.085 -0.8976  0.4993 -0.1505
 1466TIP3   OH228592   3.332   1.977  18.240 -0.1191 -0.0106 -0.0956
 1466TIP3    H128593   3.330   2.071  18.258  0.5134  0.3277 -1.6388
 1466TIP3    H228594   3.405   1.966  18.178 -1.1084 -1.3037 -1.0755
 1467TIP3   OH228595   4.849   0.836  19.489 -0.2849  0.2893  0.5523
 1467TIP3    H128596   4.926   0.780  19.489 -0.7708 -0.3938  0.9637
 1467TIP3    H228597   4.826   0.846  19.396  0.7170  1.1068  0.3747
 1468TIP3   OH228598   1.922   4.370  18.371  0.3994 -0.5002 -0.3071
 1468TIP3    H128599   1.899   4.339  18.459  2.1920  0.4444  0.5527
 1468TIP3    H228600   1.912   4.293  18.315  1.1111 -1.6552  1.0828
 1469TIP3   OH228601   5.309   2.661  16.227  0.3935  0.4398 -0.4039
 1469TIP3    H128602   5.292   2.601  16.300  0.2963  0.8437 -0.0908
 1469TIP3    H228603   5.400   2.642  16.202 -0.1017 -0.8914 -1.3083
 1470TIP3   OH228604   5.527   3.785  19.252  0.3643  0.2407  0.1836
 1470TIP3    H128605   5.617   3.810  19.272 -0.3057  3.1699  0.0255
 1470TIP3    H228606   5.482   3.788  19.336  0.6411 -2.8217  0.5489
 1471TIP3   OH228607   5.812   0.044  17.301  0.8596 -0.5564 -0.4852
 1471TIP3    H128608   5.818   0.140  17.295  0.6610 -0.5753 -1.0665
 1471TIP3    H228609   5.846   0.013  17.217 -0.0501 -0.9453 -0.7255
 1472TIP3   OH228610   5.645   6.024  18.337  0.2838  0.3553  0.0134
 1472TIP3    H128611   5.727   6.065  18.364 -0.4564  0.5385  2.2092
 1472TIP3    H228612   5.640   5.943  18.388 -1.1082  0.5708  0.2672
 1473TIP3   OH228613   0.552   0.380  19.274 -0.6805  0.7268 -0.3710
 1473TIP3    H128614   0.631   0.334  19.302 -1.0846 -1.2835 -2.2332
 1473TIP3    H228615   0.554   0.463  19.321  1.1375 -0.3730  1.6442
 1474TIP3   OH228616   2.722   5.545  19.952  0.0759  0.1019 -0.1271
 1474TIP3    H128617   2.682   5.632  19.948  0.8753  0.5356  0.7492
 1474TIP3    H228618   2.734   5.520  19.861  1.3768  1.6610 -0.4338
 1475TIP3   OH228619   1.429   4.880  17.576  0.1092  0.3906  0.6009
 1475TIP3    H128620   1.462   4.849  17.661 -0.0082  1.4736  1.0556
 1475TIP3    H228621   1.508   4.901  17.526  0.1833 -0.3894  0.3708
 1476TIP3   OH228622   2.500   4.656  17.140  0.1695 -0.0462  0.3695
 1476TIP3    H128623   2.450   4.737  17.129 -0.0805 -0.2513 -0.0503
 1476TIP3    H228624   2.586   4.676  17.103  0.5808  0.4677  1.5537
 1477TIP3   OH228625   5.825   4.082  19.688 -0.1185  0.2963  0.3344
 1477TIP3    H128626   5.858   4.133  19.762 -0.8401  1.0666  0.1347
 1477TIP3    H228627   5.735   4.113  19.675 -0.4760 -0.8204  0.0229
 1478TIP3   OH228628   0.277   5.672  17.245 -0.0575 -0.6582 -0.1439
 1478TIP3    H128629   0.358   5.718  17.224 -0.4281  0.8188  1.4536
 1478TIP3    H228630   0.304   5.581  17.262  0.9220 -0.6834 -1.7415
 1479TIP3   OH228631   1.795   6.748  19.705  0.5326 -0.6774 -0.0565
 1479TIP3    H128632   1.785   6.839  19.734 -0.0580 -0.5756 -0.5548
 1479TIP3    H228633   1.847   6.754  19.625  1.0803 -0.8413  0.2864
 1480TIP3   OH228634   5.737   2.286  18.959 -0.5589 -0.1916 -0.1942
 1480TIP3    H128635   5.770   2.351  18.897  1.2689 -0.1622  0.7252
 1480TIP3    H228636   5.651   2.261  18.925 -1.0135  2.1817 -0.9414
 1481TIP3   OH228637   5.489   2.219  20.088 -0.2362 -0.5105  0.1700
 1481TIP3    H128638   5.507   2.196  19.997 -0.3578 -0.0078  0.0211
 1481TIP3    H228639   5.509   2.312  20.095 -0.3740 -0.5097  0.6222
 1482TIP3   OH228640   1.166   5.346  17.030 -0.0367  0.7597  0.1690
 1482TIP3    H128641   1.173   5.272  16.971  2.3526  1.1135 -0.0683
 1482TIP3    H228642   1.104   5.405  16.988 -0.8289 -0.4055 -0.3536
 1483TIP3   OH228643   0.880   0.158  17.659  0.2367 -0.4783 -0.2333
 1483TIP3    H128644   0.822   0.150  17.734  0.8053 -0.4757  0.2078
 1483TIP3    H228645   0.840   0.227  17.606 -0.5308 -0.9488 -0.2797
 1484TIP3   OH228646   1.077   2.687  16.274 -0.4342  0.6686  0.3733
 1484TIP3    H128647   1.033   2.765  16.240 -0.2456  0.2720 -0.8442
 1484TIP3    H228648   1.152   2.675  16.215  0.3657  0.3957  1.4350
 1485TIP3   OH228649   4.674   1.645  17.885 -0.2080 -0.0356 -0.2471
 1485TIP3    H128650   4.598   1.677  17.932 -1.1406 -0.9971 -1.0594
 1485TIP3    H228651   4.665   1.550  17.885  1.8215 -0.2875  0.9877
 1486TIP3   OH228652   4.104   2.463  19.260  0.0750 -0.0132 -0.2669
 1486TIP3    H128653   4.135   2.550  19.236  1.2439 -0.5184 -0.7002
 1486TIP3    H228654   4.155   2.440  19.338  0.1025 -0.4730 -0.4150
 1487TIP3   OH228655   4.840   3.231  18.018 -0.1689  0.0353 -0.2457
 1487TIP3    H128656   4.782   3.268  18.085  2.0336  0.4310  1.5719
 1487TIP3    H228657   4.803   3.260  17.935 -1.9546  1.1504  0.8745
 1488TIP3   OH228658   6.683   5.406  18.423  0.3221 -0.4399 -0.3539
 1488TIP3    H128659   6.653   5.319  18.450 -0.7930  0.4101  1.3229
 1488TIP3    H228660   6.607   5.446  18.381  1.0648 -0.5237 -1.8386
 1489TIP3   OH228661   5.495   5.698  18.313 -0.3934 -0.2990 -0.0515
 1489TIP3    H128662   5.427   5.737  18.368 -1.5847 -0.5765 -1.2718
 1489TIP3    H228663   5.573   5.694  18.369 -1.1547  0.7758  1.1208
 1490TIP3   OH228664   5.737   5.046  19.461  0.0281 -0.4164 -0.0047
 1490TIP3    H128665   5.691   5.062  19.544  0.9916  2.1170  0.1389
 1490TIP3    H228666   5.817   5.097  19.468  0.5339 -0.8133 -2.1845
 1491TIP3   OH228667   1.030   0.824  19.802  0.9174 -0.2455  0.5239
 1491TIP3    H128668   1.119   0.858  19.800  1.3993 -1.2981  2.3734
 1491TIP3    H228669   1.033   0.750  19.863 -0.8116 -1.5407 -0.8620
 1492TIP3   OH228670   2.595   1.662  17.095  0.2862 -0.2573 -0.4602
 1492TIP3    H128671   2.530   1.660  17.164  0.4588  0.9163 -0.2465
 1492TIP3    H228672   2.651   1.586  17.112 -0.4211 -0.6869 -0.0577
 1493TIP3   OH228673   2.214   5.195  18.103 -0.3220  0.5422  0.2629
 1493TIP3    H128674   2.236   5.284  18.076  0.3618  0.4442  0.5051
 1493TIP3    H228675   2.285   5.167  18.160  0.9130 -1.1570 -1.9552
 1494TIP3   OH228676   5.114   3.652  19.606 -0.1285 -0.3430 -0.0470
 1494TIP3    H128677   5.191   3.608  19.570  0.1805 -0.0742  0.2686
 1494TIP3    H228678   5.042   3.624  19.550  0.3521  0.1615 -0.9386
 1495TIP3   OH228679   3.611   5.117  17.236  0.0119  0.1381  0.2169
 1495TIP3    H128680   3.529   5.072  17.220 -0.2056  1.0301 -1.3027
 1495TIP3    H228681   3.599   5.159  17.321 -0.3573 -1.2998  0.9147
 1496TIP3   OH228682   6.598   4.327  19.498 -0.2734 -0.1205  1.0243
 1496TIP3    H128683   6.521   4.384  19.498 -0.5495 -0.4777  1.6239
 1496TIP3    H228684   6.603   4.294  19.588 -0.0138 -0.8933  0.7364
 1497TIP3   OH228685   5.135   2.487  18.589 -0.2109 -0.0143  0.2872
 1497TIP3    H128686   5.195   2.425  18.548  1.0168  2.6057 -2.2109
 1497TIP3    H228687   5.172   2.502  18.676  3.3227  1.9788 -1.3740
 1498TIP3   OH228688   0.160   2.274  20.057 -0.2519 -0.0578 -0.0515
 1498TIP3    H128689   0.254   2.295  20.052 -0.6407  1.7307 -0.8502
 1498TIP3    H228690   0.121   2.351  20.099 -1.3816 -0.7235  0.1522
 1499TIP3   OH228691   5.571   0.431  17.088 -0.2882  0.2529 -0.4770
 1499TIP3    H128692   5.650   0.455  17.040 -0.1991  0.5408 -0.1934
 1499TIP3    H228693   5.529   0.515  17.107  0.2514  0.2363  0.9156
 1500TIP3   OH228694   3.288   3.626  18.939  0.4098 -0.1621  0.2378
 1500TIP3    H128695   3.340   3.577  18.875 -0.3280 -0.8185  0.1165
 1500TIP3    H228696   3.331   3.609  19.023 -1.0014 -2.8748  0.5514
 1501TIP3   OH228697   0.855   0.694  17.942 -0.2764  0.1849 -0.4690
 1501TIP3    H128698   0.790   0.765  17.932 -1.4378 -0.8129 -0.2945
 1501TIP3    H228699   0.847   0.644  17.861 -0.4877 -0.5483 -0.0002
 1502TIP3   OH228700   3.406   3.654  18.587  0.3130 -0.4064 -0.3019
 1502TIP3    H128701   3.429   3.632  18.678 -0.1480 -0.4807 -0.2018
 1502TIP3    H228702   3.367   3.574  18.553 -1.2171  0.1817  0.0070
 1503TIP3   OH228703   6.460   1.327  18.875  0.5403  0.1446  0.0392
 1503TIP3    H128704   6.438   1.244  18.832 -0.8243  0.1483  0.6604
 1503TIP3    H228705   6.439   1.313  18.967  0.0551  1.2312  0.1165
 1504TIP3   OH228706   1.468   2.862  18.826  0.6518 -0.0819 -0.0685
 1504TIP3    H128707   1.484   2.955  18.842 -0.1174  0.0297  0.0704
 1504TIP3    H228708   1.373   2.854  18.823  0.7232 -0.7015 -1.0949
 1505TIP3   OH228709   2.726   0.782  19.694  0.1699 -0.1248 -0.0679
 1505TIP3    H128710   2.699   0.865  19.736  0.7053  0.1613 -0.2810
 1505TIP3    H228711   2.822   0.783  19.700  0.2499 -0.1316 -1.2070
 1506TIP3   OH228712   5.125   4.490  17.179 -0.0484  0.4874 -0.0185
 1506TIP3    H128713   5.210   4.518  17.212  0.4929 -0.2899 -0.7463
 1506TIP3    H228714   5.095   4.424  17.242  1.4796 -1.8150 -1.5337
 1507TIP3   OH228715   6.416   1.466  16.559 -0.1933 -0.1878  0.2914
 1507TIP3    H128716   6.332   1.449  16.516 -1.8100  1.2209  2.6378
 1507TIP3    H228717   6.422   1.562  16.561  1.2580 -0.2733  0.5925
 1508TIP3   OH228718   6.620   0.244  19.817  0.1562  0.0178 -0.2522
 1508TIP3    H128719   6.569   0.293  19.881  0.1145  0.1824 -0.4121
 1508TIP3    H228720   6.575   0.257  19.734  0.2161 -0.1868 -0.3188
 1509TIP3   OH228721   2.595   5.917  19.014  0.1465  0.1410  0.0397
 1509TIP3    H128722   2.570   5.939  18.924 -1.0756  0.2422  0.3952
 1509TIP3    H228723   2.543   5.840  19.035  0.0442  0.4165  0.8338
 1510TIP3   OH228724   3.984   3.582  18.351  0.1823 -0.6729 -0.0885
 1510TIP3    H128725   3.929   3.531  18.410 -0.5276  0.4398  0.2496
 1510TIP3    H228726   3.922   3.633  18.298  0.8670  0.0664 -0.2022
 1511TIP3   OH228727   0.714   3.956  19.465 -0.0625  0.4146  0.5754
 1511TIP3    H128728   0.750   4.040  19.491 -0.4588  0.3765  1.2684
 1511TIP3    H228729   0.619   3.969  19.466 -0.1008  0.3187 -0.5550
 1512TIP3   OH228730   5.265   6.561  20.049 -0.2849 -0.2867 -0.2264
 1512TIP3    H128731   5.218   6.622  19.992 -1.5221  0.3588  1.3970
 1512TIP3    H228732   5.198   6.501  20.080  0.0373  0.2962  1.6921
 1513TIP3   OH228733   4.182   5.826  19.155 -0.7876 -0.8750  0.7418
 1513TIP3    H128734   4.152   5.844  19.066 -0.8806 -0.9538  0.7567
 1513TIP3    H228735   4.108   5.779  19.196 -1.0556 -0.1528  1.1030
 1514TIP3   OH228736   2.317   2.972  20.070 -0.1781 -0.1128  0.1080
 1514TIP3    H128737   2.241   2.963  20.128 -0.9096 -2.7777 -1.0992
 1514TIP3    H228738   2.278   2.986  19.983  0.5742 -2.2978 -0.6560
 1515TIP3   OH228739   4.331   1.154  19.239 -0.2494 -0.3922 -0.7267
 1515TIP3    H128740   4.275   1.223  19.275  0.1598 -0.6548  0.4596
 1515TIP3    H228741   4.420   1.190  19.247  0.0532 -1.3623  0.7299
 1516TIP3   OH228742   1.697   4.830  19.861 -0.1421  0.0176  0.3551
 1516TIP3    H128743   1.790   4.848  19.873  0.2822  0.6998 -2.8471
 1516TIP3    H228744   1.687   4.738  19.884  1.4769 -0.2245  0.2120
 1517TIP3   OH228745   2.103   5.449  19.391 -0.5672  0.0968 -0.0769
 1517TIP3    H128746   2.053   5.519  19.351 -0.8924 -0.0347  0.0992
 1517TIP3    H228747   2.045   5.412  19.458 -0.1326  0.1422  0.3333
 1518TIP3   OH228748   5.868   2.820  17.068  0.2655 -0.5843 -0.1642
 1518TIP3    H128749   5.791   2.828  17.012 -0.2214 -0.0385  0.5641
 1518TIP3    H228750   5.941   2.846  17.011 -0.0549 -1.2610 -0.9065
 1519TIP3   OH228751   0.774   2.855  18.706 -0.1604 -0.0357 -0.2560
 1519TIP3    H128752   0.687   2.846  18.668 -0.2968  0.2947 -0.0264
 1519TIP3    H228753   0.831   2.875  18.632 -0.1395 -1.0507 -0.5278
 1520TIP3   OH228754   4.611   5.418  18.410  0.2186 -0.2859 -0.3091
 1520TIP3    H128755   4.672   5.432  18.482  0.4010 -1.3739 -0.2384
 1520TIP3    H228756   4.656   5.455  18.334  0.4930 -0.1054 -0.0626
 1521TIP3   OH228757   2.538   4.202  18.221  0.1148  0.0374 -0.2829
 1521TIP3    H128758   2.465   4.240  18.271  1.8014  3.6809 -0.2622
 1521TIP3    H228759   2.496   4.161  18.146 -2.1130 -0.8088  1.2985
 1522TIP3   OH228760   0.044   6.004  18.230 -0.9701  0.2901  0.2496
 1522TIP3    H128761   0.118   6.023  18.172 -2.2242  2.9868 -0.6550
 1522TIP3    H228762   0.081   5.949  18.299  1.0459 -1.3839 -1.9860
 1523TIP3   OH228763   0.299   5.643  19.173 -0.0253 -0.4313  0.1594
 1523TIP3    H128764   0.355   5.720  19.186  0.3869 -0.5560 -0.7943
 1523TIP3    H228765   0.271   5.649  19.081 -1.2578 -0.5949  0.5035
 1524TIP3   OH228766   0.440   1.353  16.696  0.8221  0.7781 -0.2847
 1524TIP3    H128767   0.478   1.311  16.619 -0.0422 -0.2195 -0.1969
 1524TIP3    H228768   0.498   1.330  16.768  0.6639  0.1899 -0.3385
 1525TIP3   OH228769   6.188   3.059  19.887 -0.8505  0.4154 -0.1732
 1525TIP3    H128770   6.111   3.028  19.935  0.4906 -0.2632  1.6341
 1525TIP3    H228771   6.180   3.155  19.889 -0.6474  0.4348  1.8108
 1526TIP3   OH228772   2.254   1.785  19.920 -0.1918  0.0293 -0.9585
 1526TIP3    H128773   2.346   1.806  19.932 -0.4628  0.3213  1.0411
 1526TIP3    H228774   2.208   1.867  19.936 -0.8954 -0.5956  0.4477
 1527TIP3   OH228775   1.752   3.159  17.216 -0.3517 -0.0759 -0.4979
 1527TIP3    H128776   1.715   3.139  17.130  0.3247 -0.2730 -0.7495
 1527TIP3    H228777   1.836   3.113  17.218  0.0180  0.5905 -0.0519
 1528TIP3   OH228778   1.081   5.402  18.830  0.0449 -0.3122 -0.3013
 1528TIP3    H128779   1.121   5.461  18.893  2.3184 -1.5563 -0.4686
 1528TIP3    H228780   1.046   5.330  18.883 -1.5278  0.4845 -0.2065
 1529TIP3   OH228781   3.027   4.293  17.731  0.3286  0.2468 -0.4941
 1529TIP3    H128782   3.059   4.372  17.774 -0.4249 -0.4902  1.5457
 1529TIP3    H228783   3.105   4.253  17.693  1.4405 -0.1086  2.0052
 1530TIP3   OH228784   0.399   5.733  18.343 -0.5029 -0.7082 -0.1028
 1530TIP3    H128785   0.426   5.709  18.431 -0.4302 -1.1689 -0.2479
 1530TIP3    H228786   0.313   5.774  18.355 -1.0320 -1.8287  0.0699
 1531TIP3   OH228787   5.517   4.001  17.827  0.2002  0.1551  0.2900
 1531TIP3    H128788   5.586   3.982  17.891  0.4767 -1.5983 -0.4657
 1531TIP3    H228789   5.539   4.088  17.794  1.1111  0.3046  1.2321
 1532TIP3   OH228790   0.782   1.426  17.463  0.3864 -0.7087  0.1185
 1532TIP3    H128791   0.819   1.481  17.531  0.2303 -1.3838  0.7653
 1532TIP3    H228792   0.748   1.350  17.510  0.3670 -1.2336 -0.7264
 1533TIP3   OH228793   1.209   3.159  18.017 -0.2700 -0.6789  0.3200
 1533TIP3    H128794   1.286   3.215  18.028 -0.9368  0.6028 -1.1015
 1533TIP3    H228795   1.187   3.167  17.924 -2.3381 -0.7365  0.7609
 1534TIP3   OH228796   2.594   3.179  17.901  0.2834  0.4006 -0.3122
 1534TIP3    H128797   2.612   3.273  17.895 -1.7115  0.8413 -0.0626
 1534TIP3    H228798   2.577   3.163  17.994 -0.5005  0.0329 -0.5092
 1535TIP3   OH228799   6.122   0.318  18.191 -0.4244 -0.5894  0.4655
 1535TIP3    H128800   6.164   0.343  18.273 -0.2975 -1.3150  0.6232
 1535TIP3    H228801   6.054   0.256  18.216  0.3511 -1.7051 -0.0629
 1536TIP3   OH228802   2.902   2.964  19.390  0.3573  0.6780 -0.3057
 1536TIP3    H128803   2.834   2.930  19.332  2.2702 -0.8937 -1.7672
 1536TIP3    H228804   2.864   3.043  19.428 -2.8846 -1.0359  0.3107
 1537TIP3   OH228805   1.848   2.092  17.999  0.1520  0.1343  0.2666
 1537TIP3    H128806   1.851   2.132  18.086  0.8307  1.9141 -0.5165
 1537TIP3    H228807   1.840   2.167  17.939  0.3669 -1.0077 -1.2339
 1538TIP3   OH228808   0.363   6.704  17.156  0.2984  0.1146 -0.0817
 1538TIP3    H128809   0.418   6.715  17.078  2.4896  1.3230  1.5508
 1538TIP3    H228810   0.407   6.637  17.208  0.4115  1.2743  1.3837
 1539TIP3   OH228811   0.200   1.778  17.489  0.3957  0.3818 -0.0790
 1539TIP3    H128812   0.159   1.698  17.457 -1.2385  0.3839  1.7828
 1539TIP3    H228813   0.274   1.748  17.542  0.2484  0.1344 -0.0112
 1540TIP3   OH228814   0.510   6.242  18.917 -1.0690  0.1500 -0.1077
 1540TIP3    H128815   0.469   6.171  18.967 -2.7656  1.0618 -0.1604
 1540TIP3    H228816   0.525   6.204  18.830 -0.0710 -0.7660  0.4326
 1541TIP3   OH228817   0.725   6.069  19.074  0.2845  0.1615 -0.2256
 1541TIP3    H128818   0.649   6.074  19.132  1.1045  0.9069  0.8273
 1541TIP3    H228819   0.747   5.976  19.073 -0.6207 -0.0641 -0.5420
 1542TIP3   OH228820   4.008   2.052  19.809 -0.1785  0.3891 -0.1295
 1542TIP3    H128821   3.958   2.070  19.888 -0.3090 -0.4762 -0.0078
 1542TIP3    H228822   3.960   1.982  19.765  0.2218  0.4429 -0.6722
 1543TIP3   OH228823   3.878   0.583  18.714  0.8803 -0.4321  0.7322
 1543TIP3    H128824   3.969   0.587  18.684  0.6661 -0.8250 -0.0079
 1543TIP3    H228825   3.846   0.673  18.704  0.7806 -0.5790 -0.3541
 1544TIP3   OH228826   0.080   1.447  18.122  0.0730  0.9085 -0.0371
 1544TIP3    H128827  -0.005   1.473  18.087  0.2476  1.7206  0.1172
 1544TIP3    H228828   0.104   1.517  18.183 -0.4054 -0.6710  2.0742
 1545TIP3   OH228829   6.638   4.306  18.167 -0.2791  0.5247 -0.3248
 1545TIP3    H128830   6.729   4.279  18.167 -0.4929 -0.3526  1.8664
 1545TIP3    H228831   6.641   4.401  18.151  0.9382  0.4010 -0.9160
 1546TIP3   OH228832   6.097   3.859  17.263 -0.2409  0.0494 -1.1019
 1546TIP3    H128833   6.113   3.899  17.348  2.5472 -0.6965 -1.1830
 1546TIP3    H228834   6.074   3.932  17.206 -0.7373  0.7432 -0.0482
 1547TIP3   OH228835   1.200   3.527  18.154  0.5300  0.7859 -0.5917
 1547TIP3    H128836   1.146   3.477  18.215  0.1565  0.6176 -1.0538
 1547TIP3    H228837   1.155   3.520  18.070  1.2116  0.7327 -0.9638
 1548TIP3   OH228838   6.500   2.732  19.507  0.2340  0.1120 -0.4936
 1548TIP3    H128839   6.575   2.675  19.490  1.6313  1.9251 -0.7412
 1548TIP3    H228840   6.503   2.750  19.601 -0.9531 -1.1733 -0.1821
 1549TIP3   OH228841   0.494   2.873  19.332  0.4848 -0.6945  0.4729
 1549TIP3    H128842   0.515   2.963  19.357 -0.3450 -0.1925 -0.5828
 1549TIP3    H228843   0.528   2.820  19.404 -0.2800  0.5633  1.8168
 1550TIP3   OH228844   1.471   1.069  18.062  0.3026 -0.1402 -0.7426
 1550TIP3    H128845   1.494   1.021  18.141 -0.5834 -0.5763 -0.7363
 1550TIP3    H228846   1.554   1.104  18.030  0.4320  1.9416  1.5750
 1551TIP3   OH228847   0.673   5.532  18.506 -0.4865 -0.2347  0.4492
 1551TIP3    H128848   0.730   5.518  18.581  0.1767  0.6656  0.1314
 1551TIP3    H228849   0.588   5.555  18.544 -0.4262 -0.7647  0.9170
 1552TIP3   OH228850   3.137   1.824  17.743  0.1839 -0.3177 -0.4631
 1552TIP3    H128851   3.062   1.849  17.688 -0.6348  0.6367  1.0076
 1552TIP3    H228852   3.198   1.896  17.735 -0.6843  0.6655  1.1232
 1553TIP3   OH228853   1.687   0.320  17.387 -0.1501  0.1236 -0.6546
 1553TIP3    H128854   1.650   0.316  17.475  2.3680 -0.6680  0.4588
 1553TIP3    H228855   1.766   0.374  17.396  1.3943 -1.7765 -1.8620
 1554TIP3   OH228856   5.597   4.689  17.767 -0.4056 -0.5768  0.1046
 1554TIP3    H128857   5.645   4.656  17.843  2.2272 -2.3461 -2.1648
 1554TIP3    H228858   5.568   4.611  17.721 -2.7821  0.4651 -0.3098
 1555TIP3   OH228859   0.928   3.887  20.042  0.3137  0.3639 -0.1142
 1555TIP3    H128860   0.870   3.818  20.012 -1.3809  1.0524  1.4259
 1555TIP3    H228861   0.992   3.842  20.098 -1.4967  0.1347  1.8633
 1556TIP3   OH228862   3.756   6.440  19.305  0.1197  0.0504  0.3037
 1556TIP3    H128863   3.766   6.365  19.362  1.3941  0.7894  1.1024
 1556TIP3    H228864   3.792   6.412  19.221  1.3730  0.0288  0.8368
 1557TIP3   OH228865   2.148   5.792  18.269  0.7334  0.2332 -0.4306
 1557TIP3    H128866   2.179   5.705  18.296  1.0382  0.4261 -0.1581
 1557TIP3    H228867   2.176   5.800  18.178  0.9993  0.1807 -0.3541
 1558TIP3   OH228868   4.772   0.474  17.650 -0.2270  0.2097 -0.2543
 1558TIP3    H128869   4.819   0.440  17.726  1.4436  2.1149 -0.3690
 1558TIP3    H228870   4.717   0.401  17.622 -0.2506 -0.8336  2.2289
 1559TIP3   OH228871   2.850   1.003  18.905  0.5478  0.3487  0.2203
 1559TIP3    H128872   2.919   0.937  18.895  0.8914  0.3043  2.4117
 1559TIP3    H228873   2.814   0.987  18.992 -1.6620  0.9543 -0.5100
 1560TIP3   OH228874   3.669   0.340  16.323 -0.0137  0.0448  0.1751
 1560TIP3    H128875   3.739   0.280  16.298 -1.0272 -0.5699 -1.3738
 1560TIP3    H228876   3.606   0.334  16.251 -0.2370  2.8718  0.0323
 1561TIP3   OH228877   5.186   0.427  17.401 -0.1042 -0.4594  0.3248
 1561TIP3    H128878   5.117   0.475  17.446 -0.0480 -0.7105  0.6802
 1561TIP3    H228879   5.172   0.447  17.308  2.7785  4.2054  0.5540
 1562TIP3   OH228880   1.425   0.355  17.278  0.0542  0.8399 -0.1749
 1562TIP3    H128881   1.445   0.427  17.218  1.7127  0.2610 -0.3726
 1562TIP3    H228882   1.510   0.329  17.313 -0.7334  0.2973  1.4411
 1563TIP3   OH228883   6.227   3.629  19.697 -0.4368 -0.2360  0.0310
 1563TIP3    H128884   6.208   3.571  19.771 -1.7405 -0.2093 -0.2608
 1563TIP3    H228885   6.316   3.605  19.670 -0.1826 -0.6846  1.1901
 1564TIP3   OH228886   6.701   5.383  18.067  0.1125 -0.2807 -0.1475
 1564TIP3    H128887   6.681   5.307  18.121  2.1822 -1.1080 -0.4608
 1564TIP3    H228888   6.651   5.454  18.108 -0.1576 -1.3422  1.4812
 1565TIP3   OH228889   5.069   6.626  19.651 -0.1120 -0.1611  0.0334
 1565TIP3    H128890   5.072   6.716  19.682 -0.2674 -0.2449  0.2960
 1565TIP3    H228891   5.101   6.630  19.561  0.1525  0.1150  0.1396
 1566TIP3   OH228892   1.693   0.158  19.443  0.3975 -0.3491  0.0624
 1566TIP3    H128893   1.641   0.201  19.510  1.7041  0.8015  0.3842
 1566TIP3    H228894   1.637   0.158  19.365  0.5040  2.5264 -0.1407
 1567TIP3   OH228895   0.586   3.441  19.031 -0.1028  0.4790 -0.1388
 1567TIP3    H128896   0.681   3.430  19.039 -0.1454  1.1855  1.9526
 1567TIP3    H228897   0.556   3.361  18.988  0.9875 -1.7964  2.9885
 1568TIP3   OH228898   2.491   5.647  18.268  0.0029  0.3448 -0.2296
 1568TIP3    H128899   2.533   5.617  18.349 -0.3278  0.7279  0.0891
 1568TIP3    H228900   2.402   5.611  18.274 -0.2443  0.9713 -0.0776
 1569TIP3   OH228901   5.034   4.249  16.190 -0.4261  0.3536 -0.1529
 1569TIP3    H128902   5.092   4.259  16.114  0.1433 -1.6798 -0.0675
 1569TIP3    H228903   5.093   4.225  16.261 -1.1879  0.1088  0.4067
 1570TIP3   OH228904   6.347   6.262  18.902 -0.3584 -0.2389 -0.1035
 1570TIP3    H128905   6.341   6.179  18.854  1.7726 -1.4120  1.5067
 1570TIP3    H228906   6.355   6.328  18.833 -1.7700 -1.3587 -1.4205
 1571TIP3   OH228907   1.612   3.492  18.319 -0.2902  0.0603  0.2665
 1571TIP3    H128908   1.597   3.511  18.412  0.4614  2.1880  0.0161
 1571TIP3    H228909   1.541   3.432  18.295 -1.0481  0.2105  1.9821
 1572TIP3   OH228910   1.069   2.401  19.508  0.3883 -1.2564  0.2067
 1572TIP3    H128911   1.090   2.492  19.485 -0.2397 -0.5691  2.1654
 1572TIP3    H228912   1.022   2.367  19.431  1.5636 -0.2932 -0.9780
 1573TIP3   OH228913   4.644   3.171  20.029  0.1088 -0.2335 -0.0091
 1573TIP3    H128914   4.560   3.157  19.985 -0.5828  1.0875  0.8328
 1573TIP3    H228915   4.621   3.212  20.112  1.4915 -1.3454  0.9743
 1574TIP3   OH228916   2.774   1.088  18.061  0.4108 -0.6415 -0.4551
 1574TIP3    H128917   2.824   1.038  18.125  1.0052  1.4159  0.8087
 1574TIP3    H228918   2.836   1.105  17.990  0.4176 -1.1076 -0.5592
 1575TIP3   OH228919   5.658   4.462  19.506 -0.4638  0.3061  0.0126
 1575TIP3    H128920   5.713   4.438  19.580 -1.3059 -1.0799  0.2377
 1575TIP3    H228921   5.661   4.385  19.448 -1.6919  0.4060 -0.2227
 1576TIP3   OH228922   5.554   2.744  18.068  0.1611  0.5109  0.2165
 1576TIP3    H128923   5.522   2.694  17.993  2.6047 -0.9474  0.0405
 1576TIP3    H228924   5.476   2.789  18.102 -2.4337 -3.8942  0.8419
 1577TIP3   OH228925   5.302   1.436  19.597  0.1678 -0.8496  0.1467
 1577TIP3    H128926   5.370   1.500  19.578 -0.3025 -0.2780  0.3500
 1577TIP3    H228927   5.249   1.433  19.518  0.0633 -0.8335  0.2158
 1578TIP3   OH228928   2.531   2.330  18.693  0.2010 -0.2127  0.1839
 1578TIP3    H128929   2.593   2.354  18.762 -0.0102  1.3869 -0.1537
 1578TIP3    H228930   2.485   2.253  18.729  1.9599 -1.0984  0.6584
 1579TIP3   OH228931   5.756   5.975  17.634 -0.4224 -0.0611  0.0769
 1579TIP3    H128932   5.813   6.046  17.606  0.0567 -0.3702  0.2530
 1579TIP3    H228933   5.673   6.017  17.656 -1.0100  0.1472 -2.2984
 1580TIP3   OH228934   2.752   5.614  17.891  0.3125 -0.1151 -0.3747
 1580TIP3    H128935   2.799   5.531  17.895 -1.4226 -1.1190  0.3357
 1580TIP3    H228936   2.768   5.655  17.976  0.0341 -0.3773 -0.1961
 1581TIP3   OH228937   4.909   6.117  19.816  0.1017 -0.5136  0.4741
 1581TIP3    H128938   4.937   6.203  19.783  1.4386 -1.3496 -0.6913
 1581TIP3    H228939   4.982   6.088  19.871 -0.2087 -1.0261  0.6225
 1582TIP3   OH228940   5.097   0.104  19.734 -0.4424  0.0806  0.2904
 1582TIP3    H128941   5.072   0.149  19.814 -1.0132  2.7748 -1.2965
 1582TIP3    H228942   5.156   0.164  19.689  0.1341 -1.5004 -1.2017
 1583TIP3   OH228943   1.238   5.153  17.529  0.7621  0.2826 -0.4273
 1583TIP3    H128944   1.217   5.170  17.438 -0.5684 -1.6313 -0.5309
 1583TIP3    H228945   1.283   5.069  17.529  1.9568  0.8824  0.5695
 1584TIP3   OH228946   6.641   3.089  17.855  0.0841  0.0144  0.4713
 1584TIP3    H128947   6.670   3.091  17.946 -1.3331 -2.0365  1.0188
 1584TIP3    H228948   6.592   3.007  17.846 -1.4489  1.0473 -1.6249
 1585TIP3   OH228949   0.505   1.964  19.648 -0.2769 -0.0672  0.7216
 1585TIP3    H128950   0.596   1.935  19.649 -0.5838 -1.5418 -2.1741
 1585TIP3    H228951   0.461   1.910  19.713  0.4844 -1.0805  0.4143
 1586TIP3   OH228952   4.517   2.364  19.734  0.0110  0.4747  0.4346
 1586TIP3    H128953   4.485   2.283  19.774 -0.7362 -0.0922 -1.2186
 1586TIP3    H228954   4.611   2.351  19.725 -0.3764 -1.2083 -1.8695
 1587TIP3   OH228955   2.212   1.974  16.806  0.3445  0.5121 -0.5604
 1587TIP3    H128956   2.194   1.891  16.763 -0.1173  0.2348  0.1336
 1587TIP3    H228957   2.290   2.008  16.762  0.1613  0.0201 -1.2787
 1588TIP3   OH228958   5.537   2.408  19.902 -0.0650  0.3624 -0.1904
 1588TIP3    H128959   5.608   2.430  19.842 -0.7732 -1.5493 -1.8151
 1588TIP3    H228960   5.503   2.325  19.870 -2.3935  0.7184  1.1476
 1589TIP3   OH228961   3.857   6.587  18.244  0.5909  0.0675 -0.2166
 1589TIP3    H128962   3.893   6.668  18.209 -1.1231  0.9162 -0.1175
 1589TIP3    H228963   3.926   6.552  18.301  0.9870  2.0118  0.5733
 1590TIP3   OH228964   2.469   5.887  19.775  0.3059  0.1121 -0.5014
 1590TIP3    H128965   2.383   5.859  19.807  0.2544 -0.6304 -1.2384
 1590TIP3    H228966   2.457   5.895  19.680  0.2071  3.1035 -0.3256
 1591TIP3   OH228967   5.078   1.337  18.515 -0.9194  0.0706  0.2329
 1591TIP3    H128968   5.060   1.364  18.605 -1.1979 -0.4280  0.3329
 1591TIP3    H228969   5.029   1.399  18.461 -1.2805 -0.0220  0.4463
 1592TIP3   OH228970   5.946   1.549  17.293 -0.0837 -0.3589  0.7357
 1592TIP3    H128971   5.991   1.586  17.216  0.8120 -0.5410  1.1580
 1592TIP3    H228972   5.931   1.457  17.271  0.1936 -0.4164  0.7812
 1593TIP3   OH228973   6.744   6.285  16.779 -0.0176  0.0558  0.0501
 1593TIP3    H128974   6.737   6.380  16.765  1.3146  0.0353 -0.9141
 1593TIP3    H228975   6.728   6.247  16.693 -0.0060 -0.5625  0.3193
 1594TIP3   OH228976   3.875   6.066  17.375 -0.0636  0.1592 -0.1249
 1594TIP3    H128977   3.824   6.104  17.447 -0.4835 -0.4338 -0.0992
 1594TIP3    H228978   3.919   5.991  17.414  0.1711  0.1772 -0.3534
 1595TIP3   OH228979   5.616   2.682  17.340 -0.2807 -0.0864 -0.0373
 1595TIP3    H128980   5.545   2.743  17.316 -0.3312 -0.0428  0.2269
 1595TIP3    H228981   5.579   2.628  17.409 -0.1354 -0.2270 -0.0695
 1596TIP3   OH228982   4.805   5.714  18.134 -0.5577 -0.6556 -0.5180
 1596TIP3    H128983   4.878   5.754  18.182 -0.8109 -1.2734  0.3895
 1596TIP3    H228984   4.819   5.741  18.043  0.3623 -0.1190 -0.2266
 1597TIP3   OH228985   3.218   0.081  20.179  0.3355  0.3188 -0.2679
 1597TIP3    H128986   3.189   0.135  20.252 -0.8251  1.4214 -1.4846
 1597TIP3    H228987   3.197   0.133  20.101  2.6290 -0.2743 -1.3783
 1598TIP3   OH228988   2.933   3.747  18.671 -0.4512 -0.4508  0.1923
 1598TIP3    H128989   2.995   3.737  18.744 -0.2138 -0.1846  0.0307
 1598TIP3    H228990   2.847   3.729  18.710 -0.2527 -1.0559  0.3623
 1599TIP3   OH228991   1.784   1.096  16.632 -0.3617  0.2150  0.2527
 1599TIP3    H128992   1.824   1.121  16.715 -0.0285  0.4777  0.0132
 1599TIP3    H228993   1.832   1.019  16.604  1.2202  1.5753 -0.9377
 1600TIP3   OH228994   1.449   2.375  18.831  0.6288 -0.4441 -0.4136
 1600TIP3    H128995   1.454   2.460  18.875  1.6487  0.2340 -1.7668
 1600TIP3    H228996   1.510   2.319  18.879 -1.0428 -0.8650  1.3365
 1601TIP3   OH228997   3.518   0.099  19.947  0.3211 -0.0617  0.4732
 1601TIP3    H128998   3.537   0.068  20.036 -0.6913 -1.0321  0.3745
 1601TIP3    H228999   3.505   0.019  19.896 -2.0670  0.4579  0.1332
 1602TIP3   OH229000   6.271   6.314  17.221 -0.5158 -0.5598 -0.1008
 1602TIP3    H129001   6.296   6.377  17.153  0.7366  1.4878  2.0556
 1602TIP3    H229002   6.348   6.258  17.231 -0.8968 -1.2061 -0.6778
 1603TIP3   OH229003   4.959   1.165  18.801  0.4084  0.0414 -0.1069
 1603TIP3    H129004   4.908   1.203  18.729  1.0470 -0.1843 -0.6866
 1603TIP3    H229005   5.004   1.090  18.762  1.5839  0.5374  0.2576
 1604TIP3   OH229006   6.373   3.826  17.735  0.1299 -0.1097  0.0025
 1604TIP3    H129007   6.422   3.799  17.812  1.5031  1.5169 -0.2628
 1604TIP3    H229008   6.285   3.846  17.769 -0.7058 -3.6521  0.3800
 1605TIP3   OH229009   6.003   5.958  17.229 -0.3633  0.2757  0.0865
 1605TIP3    H129010   5.927   5.991  17.277  0.0131  1.6419 -0.2149
 1605TIP3    H229011   6.063   6.033  17.224  0.3495 -0.3371 -1.0191
 1606TIP3   OH229012   5.336   4.030  18.652 -0.1937  0.3618 -0.1804
 1606TIP3    H129013   5.431   4.032  18.650 -0.1277 -0.3727  1.0867
 1606TIP3    H229014   5.309   4.099  18.592  1.1234  0.3104 -0.8724
 1607TIP3   OH229015   4.563   6.281  18.893 -0.5905 -0.1493 -0.1805
 1607TIP3    H129016   4.597   6.274  18.804  0.0386  0.5947 -0.0030
 1607TIP3    H229017   4.629   6.239  18.948 -1.4064 -1.4495 -0.1378
 1608TIP3   OH229018   2.258   1.377  16.301 -0.1305 -0.4944  0.3016
 1608TIP3    H129019   2.309   1.415  16.229 -1.0090  0.2088  0.0386
 1608TIP3    H229020   2.320   1.318  16.344  0.6638 -0.2934 -0.5140
 1609TIP3   OH229021   6.205   4.645  18.011  0.4861 -0.3477 -0.1520
 1609TIP3    H129022   6.199   4.730  18.056 -2.9063  0.3000 -1.5294
 1609TIP3    H229023   6.166   4.583  18.071  1.0061 -0.5615 -0.0256
 1610TIP3   OH229024   3.666   5.492  18.684 -0.1710 -0.2215  0.7710
 1610TIP3    H129025   3.758   5.476  18.703 -0.4659 -0.5437  1.9755
 1610TIP3    H229026   3.637   5.553  18.752 -0.4848  1.0954 -0.4819
 1611TIP3   OH229027   4.630   1.815  18.189  0.3785 -0.0718 -0.5051
 1611TIP3    H129028   4.581   1.868  18.252 -0.7368  0.1583 -1.5206
 1611TIP3    H229029   4.690   1.877  18.148  1.4545 -0.3201  0.6256
 1612TIP3   OH229030   0.515   1.007  17.776  0.5485  0.1248  0.8511
 1612TIP3    H129031   0.487   1.093  17.746  2.1046  0.0997 -0.8471
 1612TIP3    H229032   0.435   0.954  17.778  0.1186  0.5525 -1.8907
 1613TIP3   OH229033   2.148   4.253  17.670  0.0841  0.3034  0.6221
 1613TIP3    H129034   2.236   4.216  17.663  1.1386  2.1843  2.6744
 1613TIP3    H229035   2.111   4.214  17.749 -0.9015 -0.3008 -0.1026
 1614TIP3   OH229036   2.667   6.236  20.028  0.6590 -0.0508  0.1480
 1614TIP3    H129037   2.614   6.208  19.953 -0.6794  1.5314  0.4353
 1614TIP3    H229038   2.656   6.331  20.030  2.9351  0.2681  0.7098
 1615TIP3   OH229039   1.520   5.684  17.852  0.3648 -0.4557  0.4862
 1615TIP3    H129040   1.446   5.731  17.811  0.1180 -0.9348  0.3761
 1615TIP3    H229041   1.585   5.678  17.783  1.0755  1.1546  0.9628
 1616TIP3   OH229042   1.762   5.810  18.455  0.3666 -0.0306 -0.3086
 1616TIP3    H129043   1.718   5.860  18.388 -0.0074 -1.1671 -0.9401
 1616TIP3    H229044   1.848   5.852  18.465 -0.5164  1.7073  0.3666
 1617TIP3   OH229045   1.215   5.204  19.388  0.0712  0.4119 -0.8608
 1617TIP3    H129046   1.208   5.182  19.481  0.8376 -0.2807 -0.9489
 1617TIP3    H229047   1.137   5.165  19.348 -0.1077  0.4533 -0.5513
 1618TIP3   OH229048   0.120   2.820  18.605  0.4196 -0.1856 -0.1602
 1618TIP3    H129049   0.050   2.766  18.644  2.0725 -2.9703 -0.7504
 1618TIP3    H229050   0.151   2.875  18.677  0.0560 -1.5789  1.1235
 1619TIP3   OH229051   6.744   2.418  17.694 -0.1117 -0.2149 -0.0085
 1619TIP3    H129052   6.679   2.432  17.763  1.0428 -0.7598  1.2284
 1619TIP3    H229053   6.816   2.372  17.737  0.4772 -0.9485 -1.6811
 1620TIP3   OH229054   2.338   3.803  19.694 -0.1000  0.0992 -0.0996
 1620TIP3    H129055   2.360   3.865  19.764  1.0855 -2.2169  1.6875
 1620TIP3    H229056   2.243   3.811  19.683 -0.6124 -0.6202  2.9877
 1621TIP3   OH229057   2.406   6.686  19.252 -0.0763 -0.2048 -0.1680
 1621TIP3    H129058   2.461   6.609  19.269  1.1022  0.6199 -0.1212
 1621TIP3    H229059   2.432   6.715  19.164  2.2069  2.2472  1.1716
 1622TIP3   OH229060   6.041   3.149  19.395 -0.0213 -0.0680 -0.3963
 1622TIP3    H129061   6.015   3.184  19.481 -3.1862  1.0764 -1.6752
 1622TIP3    H229062   6.131   3.120  19.408  0.2318  1.6356  2.8470
 1623TIP3   OH229063   6.762   0.280  16.496  0.5124  0.1178  0.2717
 1623TIP3    H129064   6.805   0.198  16.471  1.6899  0.1796  1.9200
 1623TIP3    H229065   6.742   0.324  16.413  1.9101 -0.8098 -0.5830
 1624TIP3   OH229066   5.908   0.043  17.703 -0.1643  0.3254 -0.2403
 1624TIP3    H129067   5.937  -0.047  17.687  0.1834  0.1581  1.1954
 1624TIP3    H229068   5.956   0.095  17.639  1.7359 -0.2064  0.6780
 1625TIP3   OH229069   6.644   5.372  16.169 -0.3782  0.0271 -0.5441
 1625TIP3    H129070   6.562   5.329  16.145 -0.1089 -0.0371 -1.4056
 1625TIP3    H229071   6.640   5.457  16.124 -0.7160  0.7481  0.7924
 1626TIP3   OH229072   1.882   6.414  18.801 -0.0778  0.4007 -0.1269
 1626TIP3    H129073   1.821   6.488  18.804  1.1998  1.4983  2.4444
 1626TIP3    H229074   1.957   6.446  18.751 -0.3476  0.1198 -0.7171
 1627TIP3   OH229075   4.891   2.261  19.169  0.1040 -0.6364  0.3145
 1627TIP3    H129076   4.839   2.236  19.245 -1.6599 -0.2832 -0.7130
 1627TIP3    H229077   4.883   2.187  19.109  0.9855 -0.6598  0.2026
 1628TIP3   OH229078   3.219   3.119  18.243  0.5704  0.2466 -0.0158
 1628TIP3    H129079   3.214   3.023  18.246  0.6062  0.2786  1.3722
 1628TIP3    H229080   3.131   3.148  18.268  0.8001  0.5815  0.4097
 1629TIP3   OH229081   5.542   0.906  17.102 -0.6035 -0.0779 -0.1818
 1629TIP3    H129082   5.608   0.952  17.051 -0.6989 -1.9584 -2.1379
 1629TIP3    H229083   5.463   0.960  17.095 -0.1414  0.5419 -0.6001
 1630TIP3   OH229084   4.884   4.003  19.079 -0.3179  0.5431  0.3920
 1630TIP3    H129085   4.891   3.907  19.087  2.7960  0.7002  0.8611
 1630TIP3    H229086   4.825   4.028  19.150 -0.6347 -0.9689  0.7085
 1631TIP3   OH229087   0.496   2.076  16.687 -0.7565  0.1324  0.0222
 1631TIP3    H129088   0.540   2.161  16.684 -0.2756 -0.1430 -1.2602
 1631TIP3    H229089   0.423   2.084  16.625 -0.0291 -0.7292 -0.9875
 1632TIP3   OH229090   3.393   0.339  19.883 -0.5751  0.1778  0.4986
 1632TIP3    H129091   3.403   0.349  19.789  1.5159  0.9831  0.7516
 1632TIP3    H229092   3.453   0.269  19.907  0.8256  1.6402  1.5024
 1633TIP3   OH229093   3.635   5.638  18.912 -0.0140 -0.3055 -0.2787
 1633TIP3    H129094   3.692   5.658  18.986  0.9117 -0.3044 -0.9630
 1633TIP3    H229095   3.550   5.673  18.937  0.1751 -0.6780  0.9526
 1634TIP3   OH229096   4.123   4.208  19.560  0.6054 -0.4774 -0.0032
 1634TIP3    H129097   4.069   4.244  19.630  1.2375  2.2095 -0.7819
 1634TIP3    H229098   4.095   4.255  19.481  3.1712  0.0915 -0.6667
 1635TIP3   OH229099   4.414   2.783  18.528  0.0828 -0.9687 -0.1147
 1635TIP3    H129100   4.355   2.796  18.602  0.4789 -1.2627  0.2588
 1635TIP3    H229101   4.473   2.858  18.530 -1.5050  0.3842 -1.6877
 1636TIP3   OH229102   5.010   5.361  19.004 -0.3685 -0.3232 -0.7707
 1636TIP3    H129103   5.010   5.289  18.940 -0.8516 -0.7349 -0.3212
 1636TIP3    H229104   4.944   5.335  19.069  0.9884 -0.5216  0.5780
 1637TIP3   OH229105   2.156   0.573  18.968 -0.2879  0.5308  0.2988
 1637TIP3    H129106   2.185   0.482  18.958  1.1037  0.6235  2.7539
 1637TIP3    H229107   2.089   0.584  18.900  0.2021 -2.0016 -0.7187
 1638TIP3   OH229108   2.419   1.654  18.673 -0.3493 -0.0397 -0.0851
 1638TIP3    H129109   2.376   1.609  18.600 -1.2272 -0.9062  0.9305
 1638TIP3    H229110   2.382   1.612  18.752  0.7790  0.6729  0.8505
 1639TIP3   OH229111   6.377   5.338  18.584  0.0220  0.7905  0.1138
 1639TIP3    H129112   6.370   5.433  18.572  1.4976  0.8436 -0.5729
 1639TIP3    H229113   6.463   5.325  18.624 -0.2311 -0.2594  0.3632
 1640TIP3   OH229114   4.415   3.177  16.732  0.8744 -0.4165 -0.0350
 1640TIP3    H129115   4.467   3.184  16.652 -0.3948 -0.2797 -0.8923
 1640TIP3    H229116   4.413   3.266  16.767  0.8066 -0.3164 -0.2875
 1641TIP3   OH229117   5.310   0.692  17.621  0.1696 -0.0261  0.2553
 1641TIP3    H129118   5.269   0.606  17.623 -0.6687  0.3372 -0.6438
 1641TIP3    H229119   5.370   0.688  17.547 -0.5032  0.4213 -0.3312
 1642TIP3   OH229120   3.120   3.956  19.668 -0.4567 -0.2513  0.0342
 1642TIP3    H129121   3.201   3.940  19.620 -0.2428 -1.1450  0.6749
 1642TIP3    H229122   3.119   4.051  19.682 -0.2736 -0.0373 -1.2716
 1643TIP3   OH229123   3.495   2.823  17.359  0.4650 -0.1280  0.0864
 1643TIP3    H129124   3.588   2.844  17.360  0.0343  2.5550 -2.2713
 1643TIP3    H229125   3.484   2.765  17.283  0.2020 -0.2682  0.2295
 1644TIP3   OH229126   0.753   3.435  17.645  0.5010  0.3785 -0.2154
 1644TIP3    H129127   0.795   3.504  17.696 -0.5590  0.5122  0.4932
 1644TIP3    H229128   0.668   3.471  17.620 -0.1296 -0.7091  0.2872
 1645TIP3   OH229129   3.026   6.529  18.822  0.6157  0.0726 -0.4634
 1645TIP3    H129130   3.061   6.441  18.810 -1.0401 -0.5334 -1.1348
 1645TIP3    H229131   3.060   6.579  18.748  0.5944 -0.3180 -0.7394
 1646TIP3   OH229132   0.877   0.515  19.497 -0.2390  0.4064  0.3853
 1646TIP3    H129133   0.919   0.602  19.502 -2.5890  1.5695  1.4499
 1646TIP3    H229134   0.926   0.462  19.561  1.1492  0.9545 -0.1838
 1647TIP3   OH229135   5.635   3.681  18.679  0.5838 -0.0427  0.2622
 1647TIP3    H129136   5.625   3.742  18.751  1.0908  0.1825  0.1455
 1647TIP3    H229137   5.546   3.665  18.648  0.2496 -1.0037  1.6355
 1648TIP3   OH229138   4.037   2.057  19.162 -0.5744  0.2894  0.2155
 1648TIP3    H129139   4.036   1.967  19.193 -0.9621 -0.4012 -1.6528
 1648TIP3    H229140   3.945   2.080  19.150 -0.5957  1.5843  2.2634
 1649TIP3   OH229141   1.286   0.814  17.668  0.0742  0.0269  0.4586
 1649TIP3    H129142   1.264   0.722  17.683 -1.2989  0.4581  1.3548
 1649TIP3    H229143   1.332   0.841  17.748 -1.9410  0.7746  1.4543
 1650TIP3   OH229144   6.392   2.643  17.718  0.0848 -0.2953 -0.0457
 1650TIP3    H129145   6.391   2.739  17.716  1.5007 -0.2750 -1.5366
 1650TIP3    H229146   6.425   2.617  17.632  2.1143 -2.0389  1.1404
 1651TIP3   OH229147   6.068   5.535  19.534  0.1802 -0.0757 -0.1493
 1651TIP3    H129148   6.073   5.623  19.497 -1.2446  0.4138  0.7372
 1651TIP3    H229149   6.131   5.535  19.606  0.2321  0.1988 -0.1976
 1652TIP3   OH229150   4.804   4.408  17.068 -0.5577  0.6045  0.2102
 1652TIP3    H129151   4.753   4.478  17.029 -0.2021  0.8237  0.1277
 1652TIP3    H229152   4.824   4.349  16.996 -1.4350  0.0506  0.4048
 1653TIP3   OH229153   5.180   1.135  18.374  0.4140  0.0639 -0.0506
 1653TIP3    H129154   5.137   1.077  18.436  0.4203 -1.1762 -1.1656
 1653TIP3    H229155   5.167   1.223  18.410 -0.1542 -0.5674  1.3337
 1654TIP3   OH229156   1.799   1.969  19.239  0.3431 -0.1150 -0.0271
 1654TIP3    H129157   1.728   1.933  19.292 -0.2158 -0.7182 -1.1571
 1654TIP3    H229158   1.841   1.892  19.201  1.2091  0.2768  0.1164
 1655TIP3   OH229159   2.050   6.220  19.375  0.1146 -0.5188  0.0059
 1655TIP3    H129160   2.064   6.126  19.380 -0.3030 -0.5571  0.4110
 1655TIP3    H229161   2.138   6.258  19.386  0.3668 -0.8692 -0.7070
 1656TIP3   OH229162   6.721   1.175  17.185 -0.0360 -0.1103 -0.5686
 1656TIP3    H129163   6.630   1.145  17.192  0.1872 -0.4876  1.3295
 1656TIP3    H229164   6.714   1.266  17.159 -1.3221  1.3974  4.0204
 1657TIP3   OH229165   5.780   0.883  16.733 -0.4086 -0.8004  0.1706
 1657TIP3    H129166   5.746   0.956  16.680 -0.7242 -0.7361  0.4596
 1657TIP3    H229167   5.800   0.814  16.669  1.6345  0.1739 -0.3377
 1658TIP3   OH229168   0.466   5.742  17.053 -0.6910  0.5954 -0.0446
 1658TIP3    H129169   0.417   5.818  17.085 -0.7234 -0.1184  1.7126
 1658TIP3    H229170   0.558   5.765  17.066 -0.7230 -0.0445  1.5049
 1659TIP3   OH229171   1.392   6.433  16.903  0.6727 -0.0508 -0.5859
 1659TIP3    H129172   1.454   6.398  16.839 -1.2738 -2.7272 -1.1622
 1659TIP3    H229173   1.443   6.442  16.984  1.9551 -1.7440 -1.1526
 1660TIP3   OH229174   5.000   2.805  19.922  0.0972 -0.6865 -0.3551
 1660TIP3    H129175   4.950   2.754  19.985  0.5428 -1.1265 -0.3536
 1660TIP3    H229176   4.964   2.894  19.930 -0.8077 -1.0277 -0.4896
 1661TIP3   OH229177   1.297   3.097  16.536 -0.3848  0.2185  0.0663
 1661TIP3    H129178   1.275   3.050  16.617  1.4333 -0.9480 -0.0557
 1661TIP3    H229179   1.331   3.181  16.566 -0.1045 -0.0441  0.4944
 1662TIP3   OH229180   5.937   1.366  19.239  0.0128 -0.0243  0.4982
 1662TIP3    H129181   5.975   1.283  19.267  1.6741  0.9301  1.2196
 1662TIP3    H229182   6.010   1.428  19.244 -0.4973  0.9691 -2.5092
 1663TIP3   OH229183   0.826   6.207  18.536 -0.3639  0.1040  0.2616
 1663TIP3    H129184   0.869   6.148  18.598  0.1827 -0.4692 -0.6375
 1663TIP3    H229185   0.851   6.173  18.450 -1.0371  0.9337 -0.2737
 1664TIP3   OH229186   1.687   5.125  17.758 -0.1228 -0.0635 -0.6560
 1664TIP3    H129187   1.757   5.188  17.745  1.0909 -1.6448 -2.4709
 1664TIP3    H229188   1.613   5.160  17.709  1.2003 -0.9287 -3.5229
 1665TIP3   OH229189   5.449   5.299  17.549 -0.6535 -0.2859  0.0501
 1665TIP3    H129190   5.407   5.213  17.552 -0.5523 -0.4194 -1.4308
 1665TIP3    H229191   5.542   5.281  17.564 -0.5873 -0.4846 -0.5746
 1666TIP3   OH229192   5.311   1.671  20.071 -0.5633  0.1784  0.4799
 1666TIP3    H129193   5.268   1.716  19.998 -0.7627  0.2747  0.6557
 1666TIP3    H229194   5.321   1.739  20.137  1.0014  0.4937 -0.0273
 1667TIP3   OH229195   3.650   3.671  17.192 -0.0232  0.4180 -0.4785
 1667TIP3    H129196   3.695   3.750  17.222 -1.0443  1.1151 -0.7071
 1667TIP3    H229197   3.668   3.668  17.098 -0.8014  0.9697 -0.6636
 1668TIP3   OH229198   2.119   6.724  19.871  0.6193 -0.4152  0.0036
 1668TIP3    H129199   2.066   6.803  19.862 -0.4560 -1.0371  0.7275
 1668TIP3    H229200   2.206   6.756  19.894  0.0829  0.5417  0.7483
 1669TIP3   OH229201   5.591   4.492  19.014 -0.1601  0.3022 -0.3459
 1669TIP3    H129202   5.643   4.572  19.019  2.3250 -1.2959  1.0505
 1669TIP3    H229203   5.517   4.508  19.072  1.6113  0.7399  1.9139
 1670TIP3   OH229204   4.012   5.036  19.569  0.0902  0.3765  0.3661
 1670TIP3    H129205   4.065   4.983  19.511  1.0128  0.7800  0.8268
 1670TIP3    H229206   4.052   5.026  19.655 -0.0236  1.4005  0.5582
 1671TIP3   OH229207   0.607   0.668  17.414  0.4496  0.6112  0.1921
 1671TIP3    H129208   0.677   0.628  17.362 -1.3176 -0.6398 -1.3705
 1671TIP3    H229209   0.556   0.718  17.351 -0.1533  1.3817  1.2619
 1672TIP3   OH229210   1.038   0.855  19.272  0.1284 -0.5181  0.1272
 1672TIP3    H129211   0.995   0.789  19.217 -1.1501 -0.2695  0.8066
 1672TIP3    H229212   0.988   0.854  19.354  0.8304  0.4716  0.5802
 1673TIP3   OH229213   3.066   3.946  17.285 -0.2199  0.0206 -0.0246
 1673TIP3    H129214   3.058   4.041  17.293 -0.4150 -0.1359  2.0450
 1673TIP3    H229215   2.981   3.917  17.251 -0.5010  0.4850  0.2817
 1674TIP3   OH229216   1.581   3.797  18.271  0.1662  0.1234 -0.3345
 1674TIP3    H129217   1.618   3.711  18.250 -0.2225  0.0242 -0.6394
 1674TIP3    H229218   1.493   3.778  18.302 -0.3955  0.4816 -1.6236
 1675TIP3   OH229219   4.723   1.643  19.024  0.1822  0.2173 -0.2312
 1675TIP3    H129220   4.665   1.574  18.992  1.7573 -1.4582  0.3786
 1675TIP3    H229221   4.811   1.612  19.003  0.9793  1.5403  1.0193
 1676TIP3   OH229222   0.657   6.548  17.813 -0.6441 -0.6764  0.4689
 1676TIP3    H129223   0.632   6.459  17.839 -0.6516 -1.3587 -1.6553
 1676TIP3    H229224   0.584   6.579  17.761  0.1714 -0.1852 -0.4061
 1677TIP3   OH229225   0.091   2.688  17.844  0.4548 -0.1268 -0.4849
 1677TIP3    H129226   0.003   2.708  17.876  0.6815  0.1401 -0.0080
 1677TIP3    H229227   0.102   2.745  17.767 -0.6526 -1.8505 -1.9987
 1678TIP3   OH229228   3.845   2.616  17.484  0.1392 -0.5827 -0.3837
 1678TIP3    H129229   3.888   2.671  17.418 -0.7765  0.3866 -0.1892
 1678TIP3    H229230   3.908   2.545  17.500  2.0570  1.2306  0.5288
 1679TIP3   OH229231   5.750   0.397  18.149  0.2864 -0.2178  0.2911
 1679TIP3    H129232   5.752   0.486  18.185  2.1588 -0.5230  1.0176
 1679TIP3    H229233   5.804   0.401  18.071  0.6536 -0.7971  0.5114
 1680TIP3   OH229234   5.779   6.517  17.903  0.3378 -0.0869 -0.0758
 1680TIP3    H129235   5.835   6.529  17.827  1.3064 -1.5562  0.3516
 1680TIP3    H229236   5.693   6.495  17.866  0.0285  2.0453 -0.7351
 1681TIP3   OH229237   6.310   4.897  17.092 -0.2525  0.5783  0.3258
 1681TIP3    H129238   6.270   4.850  17.019  1.8420 -1.9736  0.6526
 1681TIP3    H229239   6.362   4.967  17.052  0.7439 -0.6939 -0.6735
 1682TIP3   OH229240   1.352   2.560  19.161 -0.0439  0.6943  0.0450
 1682TIP3    H129241   1.410   2.614  19.214  1.3002 -0.9546  0.3079
 1682TIP3    H229242   1.401   2.544  19.080 -0.1295 -0.6688  0.2453
 1683TIP3   OH229243   5.099   2.111  16.394  0.5362  0.2588 -0.1457
 1683TIP3    H129244   5.056   2.143  16.314 -1.2049  2.8680  1.6742
 1683TIP3    H229245   5.044   2.038  16.422 -0.1929  0.7950 -0.1452
 1684TIP3   OH229246   1.463   3.487  18.982  0.3235  0.0868  0.0216
 1684TIP3    H129247   1.457   3.425  18.908 -0.6514  0.1750  0.0149
 1684TIP3    H229248   1.421   3.567  18.949  3.0172  1.3668 -0.5567
 1685TIP3   OH229249   3.385   5.213  19.312 -0.9428 -0.6037  0.1279
 1685TIP3    H129250   3.477   5.195  19.291 -1.2463 -0.0832 -1.8545
 1685TIP3    H229251   3.376   5.187  19.404  0.9855 -1.3864  0.1494
 1686TIP3   OH229252   2.787   4.341  18.270 -0.6832  0.0480 -0.2772
 1686TIP3    H129253   2.715   4.289  18.232 -1.4524 -0.4382  1.7069
 1686TIP3    H229254   2.747   4.384  18.345  0.5212  1.7948 -0.5970
 1687TIP3   OH229255   1.278   1.071  19.065 -0.2037 -0.6875 -0.3826
 1687TIP3    H129256   1.272   1.059  19.160 -1.2800 -2.2317 -0.6088
 1687TIP3    H229257   1.245   1.160  19.050  0.0696 -0.3896  0.6756
 1688TIP3   OH229258   6.658   6.330  17.242 -0.2498 -0.0258  0.5813
 1688TIP3    H129259   6.608   6.249  17.245 -0.6619  0.2321  0.7561
 1688TIP3    H229260   6.605   6.393  17.290  0.2380  0.2567  0.7545
 1689TIP3   OH229261   0.428   5.621  18.621  0.0118 -0.2396 -0.2999
 1689TIP3    H129262   0.404   5.535  18.656 -0.7326  0.2587  0.4675
 1689TIP3    H229263   0.393   5.683  18.685 -1.5741  0.7195 -2.0107
 1690TIP3   OH229264   3.414   2.312  19.317 -0.0105 -0.4717 -0.9587
 1690TIP3    H129265   3.440   2.225  19.285  0.9765 -0.8343  0.6999
 1690TIP3    H229266   3.497   2.361  19.322 -0.4800  0.3846 -1.2898
 1691TIP3   OH229267   1.944   1.312  19.734 -0.1062  0.2850 -0.5025
 1691TIP3    H129268   1.915   1.264  19.812  1.0151  0.6656  0.1754
 1691TIP3    H229269   1.971   1.398  19.767  1.6819 -0.0039 -1.0648
 1692TIP3   OH229270   4.661   0.942  20.002  0.6767 -0.2283  0.5173
 1692TIP3    H129271   4.571   0.952  20.035  0.3709 -1.5053  0.1299
 1692TIP3    H229272   4.651   0.937  19.907  1.3573  1.4233  0.3271
 1693TIP3   OH229273   6.134   5.248  19.767 -0.0765  0.1537 -0.0307
 1693TIP3    H129274   6.162   5.302  19.840  2.4037 -0.3819 -0.5020
 1693TIP3    H229275   6.043   5.275  19.751 -1.1861 -0.6123  3.9853
 1694TIP3   OH229276   0.838   3.687  16.738 -0.5522 -0.5767  0.4995
 1694TIP3    H129277   0.810   3.776  16.714  0.5164 -0.3538  0.0030
 1694TIP3    H229278   0.835   3.638  16.656 -0.3837 -0.7852  0.6162
 1695TIP3   OH229279   6.527   6.365  16.514  0.5712  0.2892  0.3497
 1695TIP3    H129280   6.564   6.277  16.502 -0.3089 -0.1118  0.5089
 1695TIP3    H229281   6.600   6.417  16.549  1.3705 -0.1319 -0.6397
 1696TIP3   OH229282   0.172   2.422  19.780  0.3408  0.1713  0.1548
 1696TIP3    H129283   0.097   2.461  19.826 -1.0855 -1.1780 -0.9305
 1696TIP3    H229284   0.176   2.332  19.812  0.1469 -0.3950 -1.3649
 1697TIP3   OH229285   4.613   0.264  18.643  0.5890  0.3002  0.2192
 1697TIP3    H129286   4.615   0.174  18.610  0.7604 -0.1871  1.4969
 1697TIP3    H229287   4.555   0.260  18.719 -0.6994  1.6261 -0.6308
 1698TIP3   OH229288   6.279   0.122  18.077  0.2455  0.4552  0.0563
 1698TIP3    H129289   6.193   0.080  18.071  0.1533  0.7734 -0.8979
 1698TIP3    H229290   6.274   0.173  18.158  0.0038 -0.5517  0.7006
 1699TIP3   OH229291   4.726   3.044  17.337 -0.0256 -0.0334  0.1824
 1699TIP3    H129292   4.647   3.013  17.293 -0.3447  0.4347  0.4218
 1699TIP3    H229293   4.720   3.009  17.425  1.1091 -1.8227 -0.3974
 1700TIP3   OH229294   5.654   4.412  18.433  0.7363 -0.3300  0.1636
 1700TIP3    H129295   5.730   4.456  18.471 -0.0768 -1.2954  3.2255
 1700TIP3    H229296   5.590   4.410  18.504 -2.0241 -0.0135 -2.1167
 1701TIP3   OH229297   4.649   2.627  18.868  0.4766 -0.2785 -0.2264
 1701TIP3    H129298   4.703   2.560  18.911  0.8984 -0.3018 -0.7789
 1701TIP3    H229299   4.666   2.615  18.774 -1.7896 -1.4035 -0.5726
 1702TIP3   OH229300   4.540   3.324  18.708  0.4362 -0.3506  0.2213
 1702TIP3    H129301   4.636   3.322  18.699  0.3475 -0.0371 -0.8778
 1702TIP3    H229302   4.510   3.242  18.669  0.2047 -0.0786 -0.1763
 1703TIP3   OH229303   3.117   6.661  18.578  0.6644 -0.2701 -0.1494
 1703TIP3    H129304   3.162   6.588  18.535 -0.9211 -0.6449 -1.2658
 1703TIP3    H229305   3.084   6.715  18.506  1.9167  1.6798  0.6557
 1704TIP3   OH229306   6.466   0.609  18.870  0.0448  0.4064  0.1587
 1704TIP3    H129307   6.531   0.546  18.902 -1.7262  0.1674  3.7522
 1704TIP3    H229308   6.509   0.694  18.877  0.8064  0.0385  0.0334
 1705TIP3   OH229309   1.581   3.951  18.904 -0.3295  0.1519 -0.3969
 1705TIP3    H129310   1.507   4.011  18.894 -1.6602 -0.8091  2.7489
 1705TIP3    H229311   1.657   4.009  18.912 -1.1311  1.2836 -0.6607
 1706TIP3   OH229312   4.399   6.417  17.801  0.4647 -0.1458  0.4964
 1706TIP3    H129313   4.332   6.382  17.859  1.2362 -1.1459  0.8121
 1706TIP3    H229314   4.356   6.490  17.755 -1.1464 -1.4107 -0.0861
 1707TIP3   OH229315   6.250   5.313  19.121 -0.0120 -0.3785  0.6865
 1707TIP3    H129316   6.162   5.279  19.104 -0.6915  1.3771  0.5045
 1707TIP3    H229317   6.305   5.235  19.124 -1.3542 -1.4326 -0.5038
 1708TIP3   OH229318   3.786   4.472  16.753  0.2837  0.5186  0.0519
 1708TIP3    H129319   3.858   4.417  16.785  0.5913  0.6632 -0.3725
 1708TIP3    H229320   3.809   4.561  16.780  0.9480  0.7617 -1.1995
 1709TIP3   OH229321   4.593   5.973  17.350  0.1115 -0.3985  0.1808
 1709TIP3    H129322   4.607   6.062  17.317 -0.6413 -0.5019 -0.4495
 1709TIP3    H229323   4.526   5.936  17.292 -0.8786 -0.7692  1.5024
 1710TIP3   OH229324   1.152   2.407  18.790 -0.5945  0.2645  0.3641
 1710TIP3    H129325   1.224   2.344  18.786  0.9398  1.9234  0.7202
 1710TIP3    H229326   1.138   2.423  18.883 -1.0455  0.3819  0.2825
 1711TIP3   OH229327   0.115   3.585  18.783  0.0975  0.0028  0.2136
 1711TIP3    H129328   0.191   3.538  18.819  0.4700  0.0906 -0.4416
 1711TIP3    H229329   0.062   3.517  18.742 -0.1114 -0.0389  0.5484
 1712TIP3   OH229330   0.296   5.121  18.703 -0.5964  0.6796 -0.1807
 1712TIP3    H129331   0.257   5.084  18.624 -0.0489 -1.9188  0.6598
 1712TIP3    H229332   0.223   5.132  18.763 -0.7695  0.9251 -0.4393
 1713TIP3   OH229333   5.993   5.000  16.423  0.0259  0.1263  0.1288
 1713TIP3    H129334   6.039   4.935  16.477 -1.4335 -1.0835  0.0102
 1713TIP3    H229335   5.901   4.972  16.427 -0.5138  1.7023 -0.6542
 1714TIP3   OH229336   0.775   6.223  17.644  0.1292 -0.7383  0.3568
 1714TIP3    H129337   0.835   6.296  17.624 -0.5186 -0.3528 -0.2326
 1714TIP3    H229338   0.696   6.266  17.676 -0.4902 -1.1465 -0.6005
 1715TIP3   OH229339   1.578   5.288  19.084  0.1363  0.0271 -0.7547
 1715TIP3    H129340   1.541   5.215  19.034 -1.1929  0.1426  0.0192
 1715TIP3    H229341   1.672   5.274  19.080 -0.0375 -3.7964  2.2787
 1716TIP3   OH229342   5.753   3.533  19.147  0.5392 -0.0198 -0.1624
 1716TIP3    H129343   5.752   3.609  19.205 -1.2923  0.7707 -1.1237
 1716TIP3    H229344   5.806   3.560  19.072 -2.1219  1.4055 -1.7048
 1717TIP3   OH229345   0.536   2.476  18.117 -0.1202 -0.5020 -0.3516
 1717TIP3    H129346   0.631   2.471  18.126 -0.2566 -0.3183  1.4323
 1717TIP3    H229347   0.502   2.409  18.176 -1.1261  0.2629 -0.0315
 1718TIP3   OH229348   3.780   3.489  19.986 -0.0802 -0.2270 -0.0596
 1718TIP3    H129349   3.841   3.426  19.947  1.7925  0.6547  1.2674
 1718TIP3    H229350   3.698   3.475  19.939  1.3673 -0.8155 -2.6250
 1719TIP3   OH229351   5.832   3.832  18.251  0.1908  0.1237 -0.3463
 1719TIP3    H129352   5.806   3.860  18.339  0.9276  0.7924 -0.3328
 1719TIP3    H229353   5.792   3.745  18.241  2.2126 -1.1894  1.6978
 1720TIP3   OH229354   1.950   4.744  19.867 -0.0556  0.2522 -0.0434
 1720TIP3    H129355   1.989   4.816  19.817 -1.0800  0.5724 -0.4111
 1720TIP3    H229356   1.988   4.665  19.829  2.3230  0.5790  1.3995
 1721TIP3   OH229357   6.284   0.947  18.899 -0.1530  0.3023 -0.0073
 1721TIP3    H129358   6.345   0.976  18.967 -0.6884  1.0457  0.1684
 1721TIP3    H229359   6.212   0.907  18.947  0.4233 -1.0646 -0.2365
 1722TIP3   OH229360   4.568   2.075  16.956  0.2397  0.2148 -0.1409
 1722TIP3    H129361   4.647   2.073  16.903  0.4776  1.1207  0.1642
 1722TIP3    H229362   4.501   2.033  16.901  1.0189 -0.9450 -0.2277
 1723TIP3   OH229363   6.625   2.299  16.635  0.4930  0.2180 -0.4130
 1723TIP3    H129364   6.544   2.250  16.648 -0.8662  2.3175 -0.5074
 1723TIP3    H229365   6.646   2.286  16.543 -0.9376  1.3038 -0.9373
 1724TIP3   OH229366   5.483   1.712  18.183 -0.2678  0.1809  0.2902
 1724TIP3    H129367   5.437   1.789  18.151 -1.2921 -0.2557  0.6919
 1724TIP3    H229368   5.552   1.696  18.117 -1.0626  0.4859 -0.6382
 1725TIP3   OH229369   6.472   6.558  19.443  0.1169 -0.5149 -0.1721
 1725TIP3    H129370   6.386   6.555  19.484 -0.2963  0.3860 -0.9054
 1725TIP3    H229371   6.459   6.517  19.357  0.5975 -1.0232 -0.0061
 1726TIP3   OH229372   4.612   4.706  17.723  0.0863 -0.0163 -0.0588
 1726TIP3    H129373   4.529   4.752  17.739 -0.2406 -0.3492 -0.7640
 1726TIP3    H229374   4.668   4.772  17.684 -0.1300 -0.0150 -0.3673
 1727TIP3   OH229375   5.902   3.257  16.570 -0.0300  0.7104  0.1617
 1727TIP3    H129376   5.812   3.253  16.536  0.3182  0.1881 -0.7175
 1727TIP3    H229377   5.939   3.171  16.549  0.3555  0.5548  1.4443
 1728TIP3   OH229378   0.243   6.482  18.213 -0.7072  0.6675  0.0659
 1728TIP3    H129379   0.204   6.404  18.253 -0.3899 -0.2852 -1.4185
 1728TIP3    H229380   0.334   6.479  18.240 -0.1176 -0.8202 -1.8488
 1729TIP3   OH229381   1.233   5.630  17.323 -0.2461 -0.1355  0.1815
 1729TIP3    H129382   1.265   5.576  17.251  0.1369  1.0529 -0.5747
 1729TIP3    H229383   1.138   5.631  17.312 -0.1429  0.7242 -0.8571
 1730TIP3   OH229384   5.331   3.565  17.304 -0.3671  0.0238  0.0464
 1730TIP3    H129385   5.334   3.608  17.390  1.3682 -1.9725  1.0876
 1730TIP3    H229386   5.272   3.490  17.317  0.8333 -0.9778 -0.1157
 1731TIP3   OH229387   2.495   4.448  16.845 -0.4338  0.2337 -0.1581
 1731TIP3    H129388   2.554   4.394  16.792  0.7173 -0.5873  1.8606
 1731TIP3    H229389   2.415   4.396  16.852  0.3379 -0.8670  0.9950
 1732TIP3   OH229390   2.315   0.176  18.036 -0.2218 -0.6350  0.2998
 1732TIP3    H129391   2.370   0.240  17.989 -0.1506 -1.1586 -0.3480
 1732TIP3    H229392   2.374   0.102  18.052 -0.5676 -0.9363  0.1752
 1733TIP3   OH229393   2.732   3.501  20.050 -0.4459 -0.1779  0.2483
 1733TIP3    H129394   2.656   3.457  20.089 -2.1741  1.4516 -1.0577
 1733TIP3    H229395   2.759   3.443  19.979 -2.2166  0.4214 -0.9806
 1734TIP3   OH229396   2.666   6.269  17.845  0.1040  0.5472  0.0703
 1734TIP3    H129397   2.718   6.276  17.765  0.5465 -0.8790  0.2072
 1734TIP3    H229398   2.727   6.236  17.911 -1.4796 -4.0300 -0.4265
 1735TIP3   OH229399   1.125   3.544  16.672  0.2177 -0.4508 -0.4482
 1735TIP3    H129400   1.050   3.554  16.614 -0.0326 -1.6663 -0.3485
 1735TIP3    H229401   1.120   3.454  16.703  2.0275 -0.7436 -0.8791
 1736TIP3   OH229402   3.530   3.215  19.523  0.2213 -0.3923  0.1022
 1736TIP3    H129403   3.446   3.245  19.487  1.2008 -0.0478 -2.0506
 1736TIP3    H229404   3.523   3.120  19.523  0.3962 -0.4404 -1.6780
 1737TIP3   OH229405   4.388   0.314  19.821  0.1752 -0.2064  0.7499
 1737TIP3    H129406   4.396   0.258  19.898  0.1425 -1.1307  0.1085
 1737TIP3    H229407   4.413   0.257  19.748 -0.1589  0.5370  0.0413
 1738TIP3   OH229408   3.063   5.226  17.779  0.2548  0.0520  0.4611
 1738TIP3    H129409   3.148   5.234  17.823  0.0103  0.0526  0.9380
 1738TIP3    H229410   3.047   5.132  17.776  0.3882  0.0360  0.1361
 1739TIP3   OH229411   4.374   1.971  18.081  0.0326  0.3923 -1.0549
 1739TIP3    H129412   4.297   1.916  18.074  0.3928 -0.0411 -1.7288
 1739TIP3    H229413   4.441   1.914  18.119  1.0548 -0.3506 -3.7842
 1740TIP3   OH229414   0.525   4.981  18.243 -0.0726 -0.2182 -0.4054
 1740TIP3    H129415   0.606   5.002  18.289 -0.0677 -0.6023 -0.2339
 1740TIP3    H229416   0.552   4.965  18.152  0.2844 -1.9074 -0.0275
 1741TIP3   OH229417   6.152   3.418  19.860  0.5426 -0.1856  0.0755
 1741TIP3    H129418   6.095   3.380  19.926 -0.3811  1.3889  0.2465
 1741TIP3    H229419   6.233   3.367  19.865 -0.2352 -1.3723  1.0047
 1742TIP3   OH229420   2.453   2.754  20.011  0.1286 -0.5714  0.2516
 1742TIP3    H129421   2.503   2.775  19.932  0.1522 -1.1235  0.1132
 1742TIP3    H229422   2.416   2.837  20.040  1.4456 -0.0899  0.5807
 1743TIP3   OH229423   4.952   4.363  19.391  0.1092 -0.2478 -0.5058
 1743TIP3    H129424   4.937   4.280  19.436 -1.3758 -0.0471 -0.5911
 1743TIP3    H229425   4.919   4.429  19.451 -1.4039  0.0609 -1.6420
 1744TIP3   OH229426   0.986   2.651  18.894 -0.5354 -0.1926 -0.5111
 1744TIP3    H129427   0.917   2.635  18.829 -1.3545 -0.9555  0.5252
 1744TIP3    H229428   0.942   2.694  18.967  0.4899  1.1701 -0.6420
 1745TIP3   OH229429   3.505   5.254  18.958  0.3601  0.4419 -0.0476
 1745TIP3    H129430   3.418   5.260  19.000 -0.4694 -1.1116 -1.4515
 1745TIP3    H229431   3.562   5.303  19.017 -1.4184  1.3580  1.0351
 1746TIP3   OH229432   0.874   4.431  17.499  0.3325  1.0868  0.8992
 1746TIP3    H129433   0.969   4.430  17.485  0.2860  0.8669  0.5902
 1746TIP3    H229434   0.862   4.389  17.584  0.3769 -0.6583  0.0899
 1747TIP3   OH229435   6.403   5.099  19.217 -0.6812  0.7235 -0.0629
 1747TIP3    H129436   6.391   5.021  19.271 -2.3149  2.3970  2.1251
 1747TIP3    H229437   6.496   5.120  19.225 -0.9310  1.1019  2.4185
 1748TIP3   OH229438   3.355   6.144  18.084  0.1123 -0.0367 -0.0628
 1748TIP3    H129439   3.347   6.070  18.024 -0.1073  0.0332 -0.1190
 1748TIP3    H229440   3.450   6.153  18.098  0.1129 -0.6595  0.3637
 1749TIP3   OH229441   3.339   6.162  18.952  0.1469  0.0109  0.3132
 1749TIP3    H129442   3.390   6.159  18.871  1.1078 -0.8884  0.9273
 1749TIP3    H229443   3.251   6.134  18.926  0.1367  0.8718 -0.6250
 1750TIP3   OH229444   0.896   0.457  17.017  0.0239  0.3855  0.4167
 1750TIP3    H129445   0.919   0.489  16.930  1.1250 -0.4614  0.3704
 1750TIP3    H229446   0.803   0.438  17.012 -0.5101  2.7749  0.2281
 1751TIP3   OH229447   5.190   0.442  17.111 -0.4029  0.1386 -0.0422
 1751TIP3    H129448   5.207   0.448  17.017  0.7874  2.0290  0.2305
 1751TIP3    H229449   5.184   0.348  17.129  0.5345 -0.3010 -1.8112
 1752TIP3   OH229450   2.905   5.935  18.037  0.0366 -0.0735  0.1304
 1752TIP3    H129451   2.976   5.875  18.060 -1.4098 -3.3375 -2.9167
 1752TIP3    H229452   2.826   5.889  18.065 -1.0757  1.7931  0.1777
 1753TIP3   OH229453   3.032   6.673  19.457  0.0592 -0.1021 -0.4696
 1753TIP3    H129454   3.127   6.680  19.466  0.0432 -1.0047  0.5139
 1753TIP3    H229455   2.999   6.760  19.481  0.6250  0.2219 -0.8452
 1754TIP3   OH229456   3.529   1.120  18.535 -0.3495 -0.3853 -0.2545
 1754TIP3    H129457   3.509   1.063  18.609  0.6457  0.2040  0.4963
 1754TIP3    H229458   3.444   1.137  18.494 -0.6437 -2.4631 -0.5738
 1755TIP3   OH229459   5.277   2.245  18.894 -0.1270  0.5829  0.4006
 1755TIP3    H129460   5.248   2.192  18.968  0.3328  1.3656  1.1605
 1755TIP3    H229461   5.204   2.304  18.877  0.6946  2.1529  1.9342
 1756TIP3   OH229462   1.305   3.634  18.641  0.4943  0.3113  0.3209
 1756TIP3    H129463   1.212   3.657  18.639  0.2562 -0.0690  3.2435
 1756TIP3    H229464   1.327   3.631  18.734  2.8766 -1.8875 -0.2119
 1757TIP3   OH229465   0.920   3.081  18.836 -0.3666 -0.2230 -0.0982
 1757TIP3    H129466   0.979   3.115  18.769 -1.0829 -0.2196 -0.7458
 1757TIP3    H229467   0.843   3.052  18.787 -0.7151 -0.6401  0.6833
 1758TIP3   OH229468   4.265   0.319  18.764  0.2685  0.3620 -0.2995
 1758TIP3    H129469   4.276   0.290  18.673  1.4759 -0.5985  0.1204
 1758TIP3    H229470   4.312   0.401  18.768 -0.4396  0.8020 -0.7150
 1759TIP3   OH229471   6.049   1.504  19.617 -0.1837 -0.0945  0.0030
 1759TIP3    H129472   6.128   1.554  19.639 -0.3098  0.5609 -0.9612
 1759TIP3    H229473   6.081   1.433  19.562  0.0482 -1.3622  1.6868
 1760TIP3   OH229474   0.130   6.051  17.137 -0.3497  0.1938 -0.1039
 1760TIP3    H129475   0.127   6.058  17.042 -0.9663 -0.0086 -0.1066
 1760TIP3    H229476   0.174   6.131  17.166 -3.0357  1.9011 -0.3785
 1761TIP3   OH229477   0.921   4.407  17.130  0.3515  0.2371  0.0253
 1761TIP3    H129478   0.953   4.323  17.163 -0.4661 -0.3583 -0.6779
 1761TIP3    H229479   0.956   4.413  17.042  1.3579  1.1814  0.4616
 1762TIP3   OH229480   0.755   4.697  18.184  0.7043 -0.1822 -0.0449
 1762TIP3    H129481   0.690   4.722  18.119 -0.5521 -1.1865  0.7862
 1762TIP3    H229482   0.715   4.718  18.268  2.4059  1.3524  0.4717
 1763TIP3   OH229483   4.121   1.734  17.416  0.5179 -0.1712  0.7262
 1763TIP3    H129484   4.081   1.768  17.496 -3.3420 -0.0424 -1.0511
 1763TIP3    H229485   4.090   1.644  17.409  0.6373 -0.1294 -0.7043
 1764TIP3   OH229486   5.886   2.395  17.632 -0.0099 -0.2709 -0.1174
 1764TIP3    H129487   5.940   2.472  17.647 -1.9142  0.8507  1.5208
 1764TIP3    H229488   5.926   2.326  17.684  0.3728  0.2839  0.3282
 1765TIP3   OH229489   2.358   0.691  16.732  0.1603 -0.6383  0.1876
 1765TIP3    H129490   2.324   0.602  16.733  0.4173 -0.7400 -0.1357
 1765TIP3    H229491   2.427   0.691  16.799  0.3663 -0.7653 -0.0240
 1766TIP3   OH229492   0.791   2.352  17.799  0.2848  1.1368  0.7047
 1766TIP3    H129493   0.732   2.322  17.730  0.5885 -0.2156  0.9967
 1766TIP3    H229494   0.739   2.413  17.851 -0.3142  1.2542 -0.0174
 1767TIP3   OH229495   2.635   2.281  16.849  0.0782 -0.3184 -0.3891
 1767TIP3    H129496   2.589   2.336  16.785  1.3578  1.6508  0.2659
 1767TIP3    H229497   2.602   2.311  16.934  0.9530 -0.4082 -0.0047
 1768TIP3   OH229498   0.720   3.531  19.396  0.4204  0.1294  0.2462
 1768TIP3    H129499   0.788   3.574  19.448  0.1805  1.4217 -0.4740
 1768TIP3    H229500   0.768   3.471  19.338  0.7462 -0.7082  1.3442
 1769TIP3   OH229501   5.933   5.543  17.201  0.9407  0.4447 -0.6207
 1769TIP3    H129502   5.939   5.587  17.286  0.3928  0.4253 -0.5702
 1769TIP3    H229503   5.983   5.599  17.142 -0.1912  1.4381 -0.6732
 1770TIP3   OH229504   1.270   4.560  17.767 -0.3064 -0.2146  0.6729
 1770TIP3    H129505   1.219   4.500  17.712 -0.0232 -1.1051  1.3546
 1770TIP3    H229506   1.230   4.645  17.754  0.3637 -0.1863 -1.7116
 1771TIP3   OH229507   6.132   0.288  19.349  0.0549  0.0138 -0.6363
 1771TIP3    H129508   6.212   0.253  19.310  0.1908  0.9942 -1.2847
 1771TIP3    H229509   6.069   0.290  19.277  0.2019  1.5206 -0.7542
 1772TIP3   OH229510   1.566   0.342  18.839 -0.3294  0.3685 -0.3213
 1772TIP3    H129511   1.600   0.429  18.818 -1.0142  0.1545 -2.5100
 1772TIP3    H229512   1.493   0.329  18.779 -0.4472 -1.5996  0.1732
 1773TIP3   OH229513   6.480   6.493  19.157 -0.5139 -0.7673  0.5357
 1773TIP3    H129514   6.546   6.424  19.149  1.7199  1.2672  0.4272
 1773TIP3    H229515   6.495   6.551  19.083 -0.4472  1.3065  2.0613
 1774TIP3   OH229516   1.802   0.933  19.309  0.4712  0.1339  0.4186
 1774TIP3    H129517   1.740   0.903  19.243  1.0974  0.5932 -0.3971
 1774TIP3    H229518   1.884   0.945  19.261  1.0618  0.0320  1.3746
 1775TIP3   OH229519   3.107   2.177  17.771 -0.3689  0.4700  0.1104
 1775TIP3    H129520   3.014   2.158  17.758 -0.2500  0.3742 -0.6295
 1775TIP3    H229521   3.113   2.204  17.863 -1.3133  1.5215 -0.1110
 1776TIP3   OH229522   2.419   6.355  17.250  0.3394  0.6533  0.6278
 1776TIP3    H129523   2.456   6.439  17.278  1.0782  0.5186  0.0802
 1776TIP3    H229524   2.487   6.291  17.270  0.4709  0.4161 -0.5074
 1777TIP3   OH229525   5.233   4.551  18.490 -0.7500 -0.2615 -0.6482
 1777TIP3    H129526   5.162   4.612  18.468 -0.8026 -0.1589 -0.2042
 1777TIP3    H229527   5.305   4.577  18.433  0.1083  1.8883  1.2553
 1778TIP3   OH229528   2.917   2.283  19.967 -0.1690 -0.2596 -0.5076
 1778TIP3    H129529   2.953   2.233  20.040 -2.6376 -0.7720  0.4589
 1778TIP3    H229530   2.941   2.373  19.985  1.6233 -0.6863 -0.5842
 1779TIP3   OH229531   2.249   2.014  18.398 -0.4185 -0.0554  0.3123
 1779TIP3    H129532   2.345   2.007  18.397 -0.4948 -1.5185 -2.1891
 1779TIP3    H229533   2.233   2.108  18.388  0.8016  0.0303 -1.2790
 1780TIP3   OH229534   0.171   5.849  18.429  0.7820 -0.0064  0.3285
 1780TIP3    H129535   0.129   5.768  18.460  1.0381 -1.0023 -1.8060
 1780TIP3    H229536   0.132   5.918  18.484 -0.4259 -1.3997  1.3063
 1781TIP3   OH229537   0.239   4.826  16.322 -0.3628  0.3032 -0.1182
 1781TIP3    H129538   0.292   4.816  16.401  0.6468  0.4496 -0.7614
 1781TIP3    H229539   0.257   4.915  16.292 -0.8216  0.2861 -0.4682
 1782TIP3   OH229540   5.860   3.528  19.928 -0.0492 -0.2610  0.2860
 1782TIP3    H129541   5.862   3.623  19.912 -0.2635  0.2248  2.7817
 1782TIP3    H229542   5.777   3.500  19.891  0.2618  0.3881 -0.9848
 1783TIP3   OH229543   1.488   0.838  17.876  0.3456 -0.0368  0.3697
 1783TIP3    H129544   1.455   0.783  17.947  1.2973 -1.2485 -0.0890
 1783TIP3    H229545   1.532   0.910  17.921  0.3362 -0.4182  1.0087
 1784TIP3   OH229546   2.096   0.730  19.888 -0.1453  0.0608  0.3549
 1784TIP3    H129547   2.144   0.660  19.932  0.6236  0.4771  0.1925
 1784TIP3    H229548   2.020   0.687  19.850 -0.4539 -0.4313  1.4916
 1785TIP3   OH229549   0.289   4.033  18.065 -0.1661  0.5321 -0.3557
 1785TIP3    H129550   0.278   3.952  18.015 -0.0421  0.6397 -0.5599
 1785TIP3    H229551   0.294   4.005  18.156 -1.0909  0.3910 -0.3399
 1786TIP3   OH229552   3.206   0.555  19.899  0.4826 -0.2519 -0.1594
 1786TIP3    H129553   3.274   0.503  19.942 -0.7490  0.0521  2.3283
 1786TIP3    H229554   3.231   0.556  19.807  0.3888 -5.5985 -0.5626
 1787TIP3   OH229555   2.702   3.991  18.606 -0.0182  0.2423  0.4046
 1787TIP3    H129556   2.610   3.996  18.582  0.1111  0.3214 -0.0808
 1787TIP3    H229557   2.738   4.076  18.583 -0.1887  0.8368  2.1755
 1788TIP3   OH229558   1.308   0.775  17.071 -0.2813 -0.0750 -0.7097
 1788TIP3    H129559   1.314   0.729  17.155 -2.7927 -1.3016 -1.0831
 1788TIP3    H229560   1.344   0.715  17.007 -0.9913 -0.3830 -0.8370
 1789TIP3   OH229561   4.441   2.323  17.032 -1.0424 -0.2023  0.5293
 1789TIP3    H129562   4.490   2.241  17.021  0.8754  1.1570 -1.8911
 1789TIP3    H229563   4.350   2.294  17.043 -0.5156 -2.6795 -0.7313
 1790TIP3   OH229564   0.246   1.937  19.449  0.0737 -0.2389  0.1690
 1790TIP3    H129565   0.228   1.847  19.421 -2.1165 -0.6724  2.6072
 1790TIP3    H229566   0.218   1.940  19.540 -0.5838  3.1176 -0.0155
 1791TIP3   OH229567   1.497   1.633  19.107  0.1074  0.8072  0.2471
 1791TIP3    H129568   1.574   1.582  19.083  0.3024  1.1585  0.1282
 1791TIP3    H229569   1.427   1.598  19.052  0.0198  0.0244  0.8322
 1792TIP3   OH229570   1.795   6.276  18.563 -0.9998  0.4344 -0.1242
 1792TIP3    H129571   1.703   6.269  18.589 -0.5369  1.2706  1.9175
 1792TIP3    H229572   1.841   6.303  18.643  1.2301 -1.1909 -0.7480
 1793TIP3   OH229573   5.889   0.968  17.219 -0.2567 -0.3426  0.3675
 1793TIP3    H129574   5.958   1.031  17.240 -0.7069  0.3897 -0.2728
 1793TIP3    H229575   5.858   0.995  17.133  0.2488 -2.0905 -0.3951
 1794TIP3   OH229576   5.419   4.876  18.976  0.3409  0.0698 -0.0634
 1794TIP3    H129577   5.369   4.804  19.013 -1.6080  1.4886  0.2513
 1794TIP3    H229578   5.509   4.846  18.976 -0.2931 -1.9832  0.9207
 1795TIP3   OH229579   2.465   3.823  18.051  0.2931 -0.3462  0.4215
 1795TIP3    H129580   2.424   3.783  17.974 -0.4024 -0.7972  1.0180
 1795TIP3    H229581   2.525   3.888  18.015 -2.0537  1.4666 -0.4603
 1796TIP3   OH229582   4.777   3.488  17.273 -0.4675  0.1508  0.0637
 1796TIP3    H129583   4.797   3.533  17.191  1.9018 -2.1114 -0.7462
 1796TIP3    H229584   4.695   3.443  17.256 -1.1923  1.5307 -0.2195
 1797TIP3   OH229585   4.818   1.099  17.464 -0.2469  0.1498  0.4456
 1797TIP3    H129586   4.747   1.035  17.454  1.7610 -1.8548 -2.3402
 1797TIP3    H229587   4.877   1.060  17.528 -0.2911  0.4667  0.6797
 1798TIP3   OH229588   3.022   4.802  19.500 -0.2589 -0.2591  0.4121
 1798TIP3    H129589   3.006   4.871  19.436  0.7059 -0.7007 -0.3401
 1798TIP3    H229590   2.935   4.769  19.522 -0.8415  1.8122  1.5370
 1799TIP3   OH229591   4.003   0.991  18.165 -0.2299 -0.4454 -0.2113
 1799TIP3    H129592   4.080   1.024  18.120 -0.6509 -1.1903 -1.5373
 1799TIP3    H229593   4.011   0.896  18.160 -2.1126 -0.5646 -2.0019
 1800TIP3   OH229594   3.926   5.225  18.250 -0.2693 -0.5559 -0.4002
 1800TIP3    H129595   3.937   5.131  18.263 -1.2133 -0.2745  3.2959
 1800TIP3    H229596   4.015   5.260  18.253  0.0327 -1.2147 -1.1705
 1801TIP3   OH229597   1.252   5.707  19.481  0.1715 -0.2297  0.4426
 1801TIP3    H129598   1.232   5.765  19.407 -0.4349 -0.7471  0.1959
 1801TIP3    H229599   1.273   5.767  19.553 -1.4483  0.3353  0.4752
 1802TIP3   OH229600   1.475   1.751  17.162 -0.3219  0.1003 -0.2672
 1802TIP3    H129601   1.426   1.832  17.143  2.5653  2.1027  0.1859
 1802TIP3    H229602   1.484   1.750  17.257 -2.3798 -2.1863  0.0133
 1803TIP3   OH229603   0.211   6.691  17.868 -0.2085  0.0712  0.2364
 1803TIP3    H129604   0.212   6.597  17.846 -0.4644 -0.4956  2.3968
 1803TIP3    H229605   0.119   6.711  17.883 -0.0501  0.4043  0.7811
 1804TIP3   OH229606   4.647   2.795  19.234  0.2201  0.0003  0.3153
 1804TIP3    H129607   4.582   2.729  19.260 -0.0278  0.3181  0.5130
 1804TIP3    H229608   4.729   2.746  19.225 -0.0484 -0.4090  0.0466
 1805TIP3   OH229609   2.234   1.431  17.299  0.8666 -0.0678 -0.0723
 1805TIP3    H129610   2.210   1.522  17.280 -0.3146 -0.1338  1.0036
 1805TIP3    H229611   2.198   1.381  17.225  1.9211  0.3696 -0.9012
 1806TIP3   OH229612   0.588   4.520  19.617 -0.3133  0.4207 -0.0287
 1806TIP3    H129613   0.614   4.542  19.707  1.1458 -0.7183 -0.1446
 1806TIP3    H229614   0.532   4.443  19.627 -1.0232  0.9177 -0.0446
 1807TIP3   OH229615   6.001   1.204  15.942 -0.1371 -0.2563 -0.3688
 1807TIP3    H129616   6.050   1.201  15.861 -2.7009  0.1103 -2.0525
 1807TIP3    H229617   5.979   1.112  15.960 -2.3276 -0.1320 -1.9975
 1808TIP3   OH229618   4.782   5.651  16.958 -0.7421  0.6176  0.2177
 1808TIP3    H129619   4.770   5.641  16.864  0.0395 -0.9173  0.2562
 1808TIP3    H229620   4.717   5.717  16.984 -1.5214  0.4509 -1.2467
 1809TIP3   OH229621   6.376   0.314  16.555  0.0058  0.0174  0.0731
 1809TIP3    H129622   6.377   0.388  16.495 -0.0379 -1.4342 -1.8294
 1809TIP3    H229623   6.468   0.289  16.565  0.1164  0.8759  1.4999
 1810TIP3   OH229624   5.737   0.198  17.817 -0.4641 -0.1497  0.0172
 1810TIP3    H129625   5.811   0.250  17.848 -0.4477 -0.7202  0.9817
 1810TIP3    H229626   5.776   0.120  17.778 -0.4977  0.4282 -1.2116
 1811TIP3   OH229627   5.540   2.020  16.997  0.0580  0.3388 -0.1695
 1811TIP3    H129628   5.492   1.979  17.069  1.0490  1.0910  0.9551
 1811TIP3    H229629   5.481   2.086  16.962 -0.4732 -0.1152 -0.1483
 1812TIP3   OH229630   3.413   6.053  18.427  0.3789 -0.0558  0.2605
 1812TIP3    H129631   3.328   6.090  18.405 -0.0698 -0.3398  1.4538
 1812TIP3    H229632   3.408   5.961  18.400  1.0823  0.4121 -1.6224
 1813TIP3   OH229633   0.199   2.931  18.851 -0.2721  0.3896 -0.1887
 1813TIP3    H129634   0.284   2.974  18.862  0.3912 -1.0349  0.5311
 1813TIP3    H229635   0.206   2.850  18.901 -1.9336  0.0475 -0.4353
 1814TIP3   OH229636   5.762   6.705  18.111 -0.4518 -0.1335  0.7912
 1814TIP3    H129637   5.751   6.626  18.057  0.2754  0.8083 -0.8091
 1814TIP3    H229638   5.687   6.760  18.090  0.3602  0.6792 -0.0978
 1815TIP3   OH229639   1.853   5.408  16.705  0.1255  0.7009  0.1428
 1815TIP3    H129640   1.803   5.359  16.770 -1.2064  3.2824  1.2427
 1815TIP3    H229641   1.787   5.450  16.650  1.1533  1.3820 -0.6282
 1816TIP3   OH229642   5.294   1.650  19.234  0.2626 -0.3280 -0.1893
 1816TIP3    H129643   5.207   1.638  19.196  0.1028  3.9079 -1.5856
 1816TIP3    H229644   5.355   1.636  19.162  0.6944 -1.4740  0.3585
 1817TIP3   OH229645   5.080   3.014  17.290  0.3300  0.5696 -0.4130
 1817TIP3    H129646   5.032   3.089  17.323  0.9527  0.5977  0.4544
 1817TIP3    H229647   5.143   3.052  17.228  0.9515  0.8340  0.3604
 1818TIP3   OH229648   0.184   4.795  17.794 -0.1247  0.3056  0.2014
 1818TIP3    H129649   0.202   4.884  17.824  0.0961  0.1697  0.4745
 1818TIP3    H229650   0.243   4.783  17.720  1.7709 -0.5238  1.7532
 1819TIP3   OH229651   3.567   2.572  19.455 -0.1845  0.2578  0.6344
 1819TIP3    H129652   3.580   2.662  19.426  1.1885  0.1330  0.8212
 1819TIP3    H229653   3.596   2.519  19.382  3.7908 -0.0699  2.2344
 1820TIP3   OH229654   5.952   5.624  18.357  0.2596  0.2955  0.6927
 1820TIP3    H129655   6.005   5.693  18.317 -0.2298  1.4678  1.9881
 1820TIP3    H229656   5.990   5.613  18.444  0.7456 -1.5770  0.2791
 1821TIP3   OH229657   4.145   2.065  17.506  0.6245  0.3599  1.0615
 1821TIP3    H129658   4.145   2.153  17.468 -2.5865  1.3255  2.9106
 1821TIP3    H229659   4.072   2.020  17.463  0.6732 -0.5302  1.8772
 1822TIP3   OH229660   1.942   3.050  18.448 -0.0400  0.5338  0.3894
 1822TIP3    H129661   1.852   3.071  18.419  0.2531 -0.4231 -1.3390
 1822TIP3    H229662   1.996   3.117  18.405  0.3303 -0.4996 -0.8114
 1823TIP3   OH229663   0.077   5.786  17.080  0.0987  0.0517  0.0308
 1823TIP3    H129664   0.065   5.869  17.127 -2.4320 -0.1909 -0.0453
 1823TIP3    H229665   0.139   5.737  17.133  0.6149  1.4626  0.7855
 1824TIP3   OH229666   1.723   6.647  18.123  0.7254  0.4721 -0.3769
 1824TIP3    H129667   1.778   6.581  18.082 -0.0498  1.2724 -2.8806
 1824TIP3    H229668   1.783   6.718  18.145  1.4798 -0.7595  1.8810
 1825TIP3   OH229669   4.129   4.975  18.802  0.0793  0.3673  0.1523
 1825TIP3    H129670   4.053   5.025  18.832 -1.1249 -0.5434 -1.2004
 1825TIP3    H229671   4.146   5.008  18.714 -0.0692 -0.8176 -0.3492
 1826TIP3   OH229672   1.516   1.643  18.210 -0.4698 -0.1378  0.3192
 1826TIP3    H129673   1.564   1.715  18.170  1.5621 -1.5988 -0.0196
 1826TIP3    H229674   1.433   1.681  18.237  0.3702  2.2137 -0.2300
 1827TIP3   OH229675   5.566   3.168  17.695  0.5835  0.1711  0.5371
 1827TIP3    H129676   5.570   3.083  17.652 -0.5591 -0.2362  1.1783
 1827TIP3    H229677   5.472   3.188  17.699  0.8755  1.8667 -0.3658
 1828TIP3   OH229678   3.600   6.561  18.347 -0.1853 -0.1527  0.1426
 1828TIP3    H129679   3.694   6.554  18.331 -0.0427  1.1012  0.3357
 1828TIP3    H229680   3.571   6.471  18.362  1.0997 -0.4764  0.7389
 1829TIP3   OH229681   1.207   2.837  18.879  0.2465 -0.3469  0.5124
 1829TIP3    H129682   1.175   2.905  18.939  1.2491 -0.8222  1.6317
 1829TIP3    H229683   1.141   2.768  18.883 -1.0693  0.7350 -1.0613
 1830TIP3   OH229684   1.735   3.162  17.831 -0.0946  0.0799 -0.1396
 1830TIP3    H129685   1.812   3.160  17.887 -1.0044  0.1230  1.1659
 1830TIP3    H229686   1.716   3.256  17.821  0.5854  0.1151 -1.3047
 1831TIP3   OH229687   4.412   5.837  20.030 -0.6648  0.4459 -0.2801
 1831TIP3    H129688   4.488   5.895  20.031 -1.1949  1.1777 -1.0963
 1831TIP3    H229689   4.407   5.805  19.940 -2.2298  1.6725 -0.6900
 1832TIP3   OH229690   6.630   2.848  19.725  0.4486  0.4757  0.1729
 1832TIP3    H129691   6.593   2.900  19.796 -0.5660 -0.0291  0.0267
 1832TIP3    H229692   6.655   2.913  19.659 -0.0216  0.8457  0.3495
 1833TIP3   OH229693   0.204   3.019  19.576 -0.2444 -0.0875 -0.0944
 1833TIP3    H129694   0.214   2.936  19.624  1.2183 -0.1456 -0.4474
 1833TIP3    H229695   0.236   3.086  19.636  1.3405 -0.1304 -0.8464
 1834TIP3   OH229696   0.141   4.883  17.128  0.1278 -0.0769 -0.7850
 1834TIP3    H129697   0.153   4.884  17.033  1.0192  0.9901 -0.6937
 1834TIP3    H229698   0.196   4.812  17.159  0.0722 -0.2316 -1.0424
 1835TIP3   OH229699   3.578   4.266  20.031 -0.1006 -0.1909  0.3265
 1835TIP3    H129700   3.609   4.356  20.032  0.4129 -0.3695  0.7955
 1835TIP3    H229701   3.610   4.229  19.949  0.0615 -0.0769  0.3404
 1836TIP3   OH229702   0.144   2.620  18.833 -0.6423 -0.4593  0.1097
 1836TIP3    H129703   0.128   2.545  18.775 -2.1723  0.2701 -0.4774
 1836TIP3    H229704   0.060   2.632  18.879 -0.3964  0.8420  0.2462
 1837TIP3   OH229705   5.669   3.672  17.314  0.0501 -0.2548  0.1734
 1837TIP3    H129706   5.690   3.757  17.276  0.1662  0.4146  1.6718
 1837TIP3    H229707   5.574   3.672  17.323  0.1375  0.1483  1.1338
 1838TIP3   OH229708   2.732   5.969  18.625  0.6132  0.1419 -0.5392
 1838TIP3    H129709   2.662   5.905  18.638  0.8069 -0.0842 -0.6109
 1838TIP3    H229710   2.773   5.944  18.542 -0.2671  1.2572 -1.3292
 1839TIP3   OH229711   1.324   3.182  19.318 -0.2206  0.1893 -0.9379
 1839TIP3    H129712   1.355   3.093  19.332  2.0176  1.0057 -0.3231
 1839TIP3    H229713   1.402   3.233  19.296 -1.0153  2.4207  0.8865
 1840TIP3   OH229714   5.452   3.361  18.669 -0.1174 -0.0245  0.2940
 1840TIP3    H129715   5.438   3.384  18.577 -0.7523 -0.9399  0.1528
 1840TIP3    H229716   5.537   3.317  18.671  0.5450  1.2125  0.3790
 1841TIP3   OH229717   4.410   1.055  18.237  0.5488 -0.4020  0.8985
 1841TIP3    H129718   4.490   1.053  18.184  0.7362  0.1977  1.1614
 1841TIP3    H229719   4.408   0.969  18.279 -0.0466 -1.2387 -0.7293
 1842TIP3   OH229720   6.762   3.583  19.344  0.3127  0.2301  1.2044
 1842TIP3    H129721   6.814   3.573  19.264 -0.6605 -1.4404  0.7326
 1842TIP3    H229722   6.776   3.501  19.391 -0.9324  0.2419  1.6300
 1843TIP3   OH229723   5.146   1.826  16.962  0.2073  0.2554 -0.0796
 1843TIP3    H129724   5.158   1.921  16.965  0.8626  0.1497  0.8791
 1843TIP3    H229725   5.127   1.801  17.052 -0.0008 -0.5210 -0.3341
 1844TIP3   OH229726   2.992   5.891  17.404  0.0617  0.0138  0.1592
 1844TIP3    H129727   3.042   5.815  17.374 -2.3891 -1.6018 -0.1688
 1844TIP3    H229728   3.008   5.894  17.499 -0.6261 -1.6511  0.3708
 1845TIP3   OH229729   6.641   4.824  19.367 -0.0510 -0.1447 -0.4503
 1845TIP3    H129730   6.556   4.781  19.374  0.1273 -0.5707 -0.8306
 1845TIP3    H229731   6.675   4.796  19.282  1.0429 -1.0497  0.2457
 1846TIP3   OH229732   1.570   0.981  18.730 -0.7708  0.2538  0.1879
 1846TIP3    H129733   1.584   1.041  18.803 -1.8397 -0.6988  1.2014
 1846TIP3    H229734   1.475   0.972  18.722 -0.6653 -2.2312  0.8882
 1847TIP3   OH229735   6.647   2.756  16.483 -0.5927  0.9132  0.5570
 1847TIP3    H129736   6.642   2.841  16.527  2.2581  1.0184  0.8222
 1847TIP3    H229737   6.684   2.775  16.397  1.2849 -0.1321  1.0811
 1848TIP3   OH229738   1.663   2.854  19.595 -0.0874  0.2071  0.0913
 1848TIP3    H129739   1.662   2.763  19.627  0.8340  0.5878  1.2784
 1848TIP3    H229740   1.729   2.854  19.525 -0.1315 -0.0374  0.0491
 1849TIP3   OH229741   0.753   6.404  19.165 -0.2092  0.1681  0.1712
 1849TIP3    H129742   0.660   6.384  19.172 -0.6317  1.0710 -1.9769
 1849TIP3    H229743   0.769   6.467  19.235 -1.6801  1.4068 -0.5407
 1850TIP3   OH229744   3.095   4.380  19.169  0.3164 -0.0911 -0.0071
 1850TIP3    H129745   3.056   4.346  19.249 -0.7046  0.3559 -0.2949
 1850TIP3    H229746   3.029   4.362  19.101  0.1837  1.5114 -0.3421
 1851TIP3   OH229747   6.688   2.548  19.463  0.1677  0.0489 -0.3842
 1851TIP3    H129748   6.773   2.583  19.434 -0.3945  0.5340 -1.5360
 1851TIP3    H229749   6.652   2.507  19.384 -0.0561 -1.4215  0.4556
 1852TIP3   OH229750   6.141   4.329  17.221  0.7787 -0.0586  0.2598
 1852TIP3    H129751   6.148   4.372  17.306 -1.6606  0.1260  0.4212
 1852TIP3    H229752   6.152   4.400  17.157 -0.5064  0.3793  0.4959
 1853TIP3   OH229753   0.399   5.102  17.406  0.0609  0.2782 -0.3457
 1853TIP3    H129754   0.492   5.087  17.422 -0.5519 -2.0309  1.6855
 1853TIP3    H229755   0.380   5.054  17.326  0.4567  0.1506 -0.3632
 1854TIP3   OH229756   4.361   6.462  19.921  1.3536  0.3752 -0.1495
 1854TIP3    H129757   4.367   6.469  20.016 -0.8779  0.9891  0.0059
 1854TIP3    H229758   4.304   6.387  19.906  1.4419  0.4723 -1.0108
 1855TIP3   OH229759   2.277   3.284  19.982  0.2381  0.2798 -0.0818
 1855TIP3    H129760   2.260   3.199  19.940  1.6916  0.0434 -0.2549
 1855TIP3    H229761   2.367   3.277  20.013  0.0538  1.4296  0.7570
 1856TIP3   OH229762   0.100   0.878  17.367  0.3313  0.6516  0.1358
 1856TIP3    H129763   0.107   0.827  17.447 -2.9018  2.2739  1.6170
 1856TIP3    H229764   0.122   0.816  17.297  1.4652 -1.3025  2.1076
 1857TIP3   OH229765   0.974   0.389  19.238 -0.5032  0.0857  0.5254
 1857TIP3    H129766   0.935   0.399  19.325 -0.5989 -0.0555  0.5020
 1857TIP3    H229767   0.939   0.305  19.206  0.4188 -0.4225  0.8118
 1858TIP3   OH229768   6.720   5.536  17.233 -0.5569 -0.2528 -0.3294
 1858TIP3    H129769   6.797   5.575  17.275 -0.3703  0.5017 -1.3081
 1858TIP3    H229770   6.756   5.475  17.169 -0.7552  0.1401 -0.8266
 1859TIP3   OH229771   2.872   1.856  17.970  0.6303 -0.9405 -0.5069
 1859TIP3    H129772   2.919   1.856  18.054  0.0994 -1.0730 -0.1981
 1859TIP3    H229773   2.907   1.931  17.923 -0.3672  0.2868  0.5998
 1860TIP3   OH229774   4.343   3.390  18.429  0.0961  0.2114  0.6070
 1860TIP3    H129775   4.385   3.353  18.507  0.8912  2.0097  1.0829
 1860TIP3    H229776   4.261   3.341  18.420  0.8654 -1.3067  1.4479
 1861TIP3   OH229777   2.328   4.427  19.628 -0.3116 -0.4881  0.0255
 1861TIP3    H129778   2.364   4.419  19.716  1.5037  2.7998 -0.2781
 1861TIP3    H229779   2.368   4.355  19.579  1.1038 -0.5214  1.1801
 1862TIP3   OH229780   2.982   2.904  18.322 -0.1082 -0.5293  0.0559
 1862TIP3    H129781   2.894   2.901  18.283 -0.3593 -1.1537  0.6393
 1862TIP3    H229782   3.036   2.851  18.264 -0.4562 -1.3695  0.4818
 1863TIP3   OH229783   3.062   1.614  18.371  0.5546  0.2337  0.0724
 1863TIP3    H129784   2.971   1.643  18.378  0.9277  1.2979  0.6566
 1863TIP3    H229785   3.057   1.518  18.377 -0.5312  0.2778 -0.0064
 1864TIP3   OH229786   5.132   3.659  18.515 -0.1631 -0.5282  0.6495
 1864TIP3    H129787   5.105   3.666  18.607 -1.5959  1.2856  0.1328
 1864TIP3    H229788   5.081   3.585  18.480 -0.8320 -0.1952  0.9096
 1865TIP3   OH229789   4.508   0.275  18.908  0.7146  0.2033  0.0543
 1865TIP3    H129790   4.434   0.225  18.942  1.7206 -1.7050 -0.4232
 1865TIP3    H229791   4.471   0.361  18.887 -1.4617 -0.8086 -0.5539
 1866TIP3   OH229792   3.384   0.058  18.345 -0.1384 -0.0679  0.4164
 1866TIP3    H129793   3.395   0.007  18.266 -0.3252 -0.1815  0.4627
 1866TIP3    H229794   3.289   0.058  18.361 -0.1698  0.5197  0.2637
 1867TIP3   OH229795   0.111   0.118  17.471  0.1112  0.0027 -0.0892
 1867TIP3    H129796   0.147   0.194  17.517  2.2500 -0.7234 -0.4174
 1867TIP3    H229797   0.169   0.108  17.395 -0.5736 -1.5265 -0.4378
 1868TIP3   OH229798   3.937   6.462  17.278 -0.3050  0.4361 -0.0455
 1868TIP3    H129799   4.010   6.439  17.221  2.1189 -1.0475  3.3204
 1868TIP3    H229800   3.955   6.553  17.304 -0.9698  0.8393 -0.9369
 1869TIP3   OH229801   4.194   6.327  16.569  0.0623 -0.6172 -0.0277
 1869TIP3    H129802   4.207   6.282  16.486  1.4376 -0.9476  0.3475
 1869TIP3    H229803   4.145   6.265  16.623  0.8080 -1.1674  0.0377
 1870TIP3   OH229804   4.676   1.139  18.831 -0.5060 -0.2825  0.3078
 1870TIP3    H129805   4.670   1.053  18.789 -1.4331  0.4939 -1.2311
 1870TIP3    H229806   4.761   1.138  18.875  0.8489 -0.9477 -2.1380
 1871TIP3   OH229807   4.537   1.812  17.088 -0.0275 -0.0363  0.2001
 1871TIP3    H129808   4.446   1.796  17.115  0.0573  0.5649  0.8830
 1871TIP3    H229809   4.539   1.905  17.066  0.4914  0.0245  0.4906
 1872TIP3   OH229810   2.806   4.657  19.645 -0.5394 -0.0402  0.0533
 1872TIP3    H129811   2.757   4.662  19.727 -0.3494  0.2009  0.1544
 1872TIP3    H229812   2.829   4.565  19.636  0.9100  0.1860  1.1503
 1873TIP3   OH229813   4.092   2.483  16.480  0.0668 -0.0038  0.2508
 1873TIP3    H129814   4.021   2.440  16.527 -0.4977 -1.3069 -1.6847
 1873TIP3    H229815   4.170   2.433  16.503 -0.0981 -0.2525  0.2738
 1874TIP3   OH229816   2.892   0.541  17.592 -0.2162  0.2772  0.0906
 1874TIP3    H129817   2.959   0.501  17.535 -1.0651 -0.7080 -0.2473
 1874TIP3    H229818   2.940   0.567  17.670  1.0174  1.8404 -1.1323
 1875TIP3   OH229819   5.095   4.645  16.950  0.0060  0.6183 -0.1509
 1875TIP3    H129820   5.008   4.638  16.910 -0.8778 -0.9133  1.8615
 1875TIP3    H229821   5.090   4.588  17.027  2.7123  0.7429  0.1940
 1876TIP3   OH229822   5.793   2.589  19.071 -0.0463 -0.0814 -0.2239
 1876TIP3    H129823   5.792   2.610  18.977  1.1915  1.7124  0.1144
 1876TIP3    H229824   5.849   2.512  19.077 -1.7293 -1.4560 -1.1261
 1877TIP3   OH229825   4.674   4.831  19.371  0.1263  1.0383 -0.0931
 1877TIP3    H129826   4.697   4.772  19.299  1.2751 -0.8089  1.6673
 1877TIP3    H229827   4.750   4.890  19.378  1.0031 -0.1560  0.8939
 1878TIP3   OH229828   4.866   0.952  16.508  0.2758 -0.6027 -0.0073
 1878TIP3    H129829   4.818   0.965  16.427 -0.6515  1.7606  0.8383
 1878TIP3    H229830   4.822   1.008  16.572  2.8525  0.0609  1.3461
 1879TIP3   OH229831   5.959   6.724  19.611 -0.5385  0.2208 -0.2023
 1879TIP3    H129832   5.867   6.745  19.622 -0.4336  0.1516  0.9019
 1879TIP3    H229833   6.001   6.809  19.594 -0.6078  0.4611  0.7642
 1880TIP3   OH229834   5.290   6.306  17.101 -0.3556 -0.1383  0.7751
 1880TIP3    H129835   5.198   6.334  17.101 -0.4127 -0.3187  0.5615
 1880TIP3    H229836   5.306   6.277  17.190 -0.1004  1.1976  1.1858
 1881TIP3   OH229837   4.782   4.630  19.741  0.4646 -0.3090  0.2226
 1881TIP3    H129838   4.757   4.577  19.666  1.9308 -0.1457 -0.4164
 1881TIP3    H229839   4.774   4.721  19.711 -2.0965 -0.0813  1.3348
 1882TIP3   OH229840   6.134   0.249  17.212  0.6946  0.4799  0.6776
 1882TIP3    H129841   6.214   0.288  17.246 -0.2987  2.1703  1.2335
 1882TIP3    H229842   6.144   0.155  17.227  2.5366  0.6699  0.7553
 1883TIP3   OH229843   4.581   6.116  19.784 -0.0508  0.2852 -0.3032
 1883TIP3    H129844   4.570   6.203  19.746  0.4591  0.3764 -0.2580
 1883TIP3    H229845   4.668   6.119  19.824 -0.2066 -0.1078  0.0674
 1884TIP3   OH229846   5.668   2.819  16.886  0.2138  0.2630  0.7085
 1884TIP3    H129847   5.706   2.744  16.842 -3.5320 -0.1332 -2.4181
 1884TIP3    H229848   5.690   2.894  16.831  0.1156  0.7121  1.2661
 1885TIP3   OH229849   4.398   5.602  16.328 -0.2536 -0.7038  0.4280
 1885TIP3    H129850   4.461   5.622  16.398  1.1251  1.7267 -1.3552
 1885TIP3    H229851   4.312   5.615  16.369  0.4270 -1.7729  2.2914
 1886TIP3   OH229852   5.537   4.682  18.595  0.2555 -0.4833 -0.2505
 1886TIP3    H129853   5.512   4.667  18.504  0.4052 -2.0436 -0.0720
 1886TIP3    H229854   5.507   4.603  18.641  0.1974  0.2704  1.0483
 1887TIP3   OH229855   3.069   0.047  18.047 -0.9425 -0.0446 -0.0025
 1887TIP3    H129856   3.149   0.092  18.075  0.6639 -3.0402  0.6410
 1887TIP3    H229857   3.068   0.057  17.952  0.5186 -0.3758 -0.0815
 1888TIP3   OH229858   4.800   0.257  17.282  0.0381 -0.1533 -0.0049
 1888TIP3    H129859   4.704   0.257  17.286 -0.0263  2.9530  1.3319
 1888TIP3    H229860   4.827   0.204  17.358 -0.6170 -0.2469  0.1729
 1889TIP3   OH229861   6.171   3.085  17.453 -0.1759 -0.4966 -0.4791
 1889TIP3    H129862   6.110   3.147  17.414 -0.3798  0.2010  0.8737
 1889TIP3    H229863   6.250   3.137  17.471 -0.4298 -0.5291  0.8786
 1890TIP3   OH229864   1.637   0.097  17.955 -0.4739 -0.7082 -0.0343
 1890TIP3    H129865   1.729   0.122  17.941 -0.7149 -0.2294 -0.8930
 1890TIP3    H229866   1.641   0.014  18.002  0.3967 -0.4507  0.3591
 1891TIP3   OH229867   3.115   0.408  18.912 -0.0304  0.5920  0.0152
 1891TIP3    H129868   3.149   0.355  18.984 -2.7921  1.3280  2.0336
 1891TIP3    H229869   3.043   0.357  18.876  0.0547  1.1120 -0.9436
 1892TIP3   OH229870   0.962   4.292  18.543 -0.1293  0.4457 -0.1825
 1892TIP3    H129871   0.957   4.299  18.448 -1.3202  3.5836  0.0101
 1892TIP3    H229872   0.874   4.265  18.571  0.6262 -2.1273  0.0591
 1893TIP3   OH229873   3.971   4.683  18.399 -0.1675  0.2507 -0.5539
 1893TIP3    H129874   3.944   4.703  18.310 -1.8082 -1.3501 -0.4777
 1893TIP3    H229875   3.890   4.689  18.450  0.3244 -0.9472  0.4190
 1894TIP3   OH229876   4.413   5.681  18.970  0.1767  0.6509  0.0597
 1894TIP3    H129877   4.333   5.713  18.930  0.5350  1.3203 -0.1249
 1894TIP3    H229878   4.386   5.651  19.057 -0.0767  1.8945  0.4197
 1895TIP3   OH229879   6.649   2.470  18.212  0.1286 -0.1628  0.1445
 1895TIP3    H129880   6.664   2.457  18.306  0.0541  0.3099  0.2259
 1895TIP3    H229881   6.686   2.556  18.193 -0.4112  0.0196 -0.1254
 1896TIP3   OH229882   0.589   1.609  17.772 -0.0965 -0.5925 -0.4502
 1896TIP3    H129883   0.612   1.702  17.783 -2.5669 -0.0860  1.0196
 1896TIP3    H229884   0.635   1.565  17.843 -0.6362 -0.1519  0.1842
 1897TIP3   OH229885   4.179   3.936  19.466  0.4025  0.3211 -0.5214
 1897TIP3    H129886   4.225   3.942  19.550 -1.3065  0.2915  0.4528
 1897TIP3    H229887   4.157   4.027  19.445 -0.0701  0.2369 -0.4036
 1898TIP3   OH229888   5.784   5.531  19.486 -0.5305 -0.4125 -0.0857
 1898TIP3    H129889   5.868   5.545  19.530 -1.4403  1.2558  1.2317
 1898TIP3    H229890   5.762   5.440  19.505  1.1409 -0.9844 -0.7728
 1899TIP3   OH229891   3.186   3.129  17.567  0.1420  0.5482  0.7449
 1899TIP3    H129892   3.165   3.221  17.581 -0.3966  0.2811  1.7815
 1899TIP3    H229893   3.218   3.098  17.652 -1.3229 -0.6525  0.8946
 1900TIP3   OH229894   3.894   2.502  19.725  0.6178  0.3621 -0.6487
 1900TIP3    H129895   3.928   2.435  19.666 -0.6322 -0.9207  0.0003
 1900TIP3    H229896   3.969   2.528  19.778  1.7963  1.6351 -2.7988
 1901TIP3   OH229897   0.023   3.287  19.771  0.2931  0.0942 -0.3023
 1901TIP3    H129898   0.110   3.309  19.802 -0.9526  2.3877  1.9639
 1901TIP3    H229899   0.001   3.204  19.813  1.8249 -1.2668 -2.0339
 1902TIP3   OH229900   3.671   2.377  19.268 -0.1689 -0.2771  0.2044
 1902TIP3    H129901   3.643   2.337  19.186  0.9986  2.0097 -1.4025
 1902TIP3    H229902   3.761   2.405  19.252 -0.1010  0.7485  2.0788
 1903TIP3   OH229903   0.812   2.355  18.507  0.3507  0.0472  0.7421
 1903TIP3    H129904   0.730   2.306  18.502  0.5033 -0.3188  1.6290
 1903TIP3    H229905   0.811   2.395  18.594  1.8006 -1.2356  1.3925
 1904TIP3   OH229906   0.813   3.788  16.470 -0.2618  0.2443  0.4530
 1904TIP3    H129907   0.812   3.798  16.375 -1.2186  1.0924  0.5278
 1904TIP3    H229908   0.731   3.743  16.490  0.7566 -1.5585  0.7456
 1905TIP3   OH229909   0.652   6.346  19.782  0.0338  0.2447  0.8778
 1905TIP3    H129910   0.657   6.440  19.794  0.5343  0.5873 -1.5263
 1905TIP3    H229911   0.743   6.317  19.783 -0.0928 -0.1624  1.1042
 1906TIP3   OH229912   0.973   6.383  16.816  0.3868  0.0181 -0.0907
 1906TIP3    H129913   0.894   6.408  16.864 -0.1222  0.4235 -1.0964
 1906TIP3    H229914   1.040   6.445  16.843  0.6670 -0.9513  1.5427
 1907TIP3   OH229915   2.281   5.119  18.539 -0.2636 -0.2666  0.6587
 1907TIP3    H129916   2.265   5.040  18.590  0.0203 -1.0318 -0.4012
 1907TIP3    H229917   2.324   5.179  18.600  0.4387 -1.2981  1.2120
 1908TIP3   OH229918   2.409   2.666  17.548  0.1175 -0.1133  0.1586
 1908TIP3    H129919   2.490   2.715  17.559 -0.3704  0.6535  0.4105
 1908TIP3    H229920   2.375   2.654  17.637 -0.3116  0.0305  0.0190
 1909TIP3   OH229921   6.447   0.481  16.765  0.0920  1.0871  0.7087
 1909TIP3    H129922   6.398   0.483  16.847 -1.3104  0.7052 -0.0839
 1909TIP3    H229923   6.399   0.419  16.710  2.2960 -0.4438  0.3642
 1910TIP3   OH229924   5.259   0.295  19.561 -0.6617 -0.2101 -0.0334
 1910TIP3    H129925   5.254   0.390  19.562 -1.2976 -0.2238 -0.6690
 1910TIP3    H229926   5.286   0.273  19.471 -1.5097 -0.6481 -0.2001
 1911TIP3   OH229927   1.484   5.252  17.624  0.2891  0.0441  0.2986
 1911TIP3    H129928   1.403   5.216  17.589 -0.3501  1.1145  0.6356
 1911TIP3    H229929   1.496   5.334  17.576  0.3686  0.6253  1.2823
 1912TIP3   OH229930   6.034   6.610  18.423  0.0263  0.0764  0.1121
 1912TIP3    H129931   6.057   6.699  18.395 -0.2775  0.0033 -0.3844
 1912TIP3    H229932   6.106   6.584  18.480 -0.0049  0.7378  0.4696
 1913TIP3   OH229933   1.075   6.767  18.462 -0.2385 -0.2117  0.2099
 1913TIP3    H129934   1.132   6.828  18.509 -0.6457 -0.4442  1.0424
 1913TIP3    H229935   0.999   6.819  18.437  0.1077 -0.0200 -0.4536
 1914TIP3   OH229936   1.242   5.446  19.237  0.0300 -0.0502 -0.4445
 1914TIP3    H129937   1.164   5.475  19.286  0.1500 -0.7919  0.2151
 1914TIP3    H229938   1.238   5.351  19.242 -0.5337 -0.2042 -2.8310
 1915TIP3   OH229939   2.548   2.119  17.098 -0.4970 -0.3058 -0.1424
 1915TIP3    H129940   2.500   2.183  17.046 -0.5543  0.0679  0.3636
 1915TIP3    H229941   2.569   2.048  17.036  2.6003  1.7118 -1.6600
 1916TIP3   OH229942   1.800   2.559  19.288  0.0341 -0.5986 -0.5355
 1916TIP3    H129943   1.892   2.540  19.267  0.1372 -0.1896 -0.4589
 1916TIP3    H229944   1.750   2.505  19.227  0.3283 -0.2321 -1.1085
 1917TIP3   OH229945   4.218   2.216  17.134  0.0515  0.6144  0.1184
 1917TIP3    H129946   4.173   2.235  17.216 -0.1137 -0.9743  0.4143
 1917TIP3    H229947   4.149   2.218  17.068 -0.0729  0.3567  0.2414
 1918TIP3   OH229948   1.557   2.332  17.639  0.0140 -0.2800 -0.5849
 1918TIP3    H129949   1.480   2.304  17.589 -0.9904 -0.0803  0.7939
 1918TIP3    H229950   1.583   2.415  17.599 -0.0665 -0.6798 -1.4884
 1919TIP3   OH229951   5.566   6.720  18.382  0.1314 -0.3491  0.2741
 1919TIP3    H129952   5.545   6.653  18.318 -0.2549 -0.5777  0.6307
 1919TIP3    H229953   5.531   6.801  18.345 -0.5066 -0.5592  0.4042
 1920TIP3   OH229954   0.899   2.927  19.187  0.5158  0.3369 -0.3047
 1920TIP3    H129955   0.869   3.018  19.182 -0.0695  0.2582  1.1928
 1920TIP3    H229956   0.829   2.877  19.145 -0.4004  0.3798  1.0848
 1921TIP3   OH229957   3.574   4.664  19.983  0.6448 -0.2395 -0.1164
 1921TIP3    H129958   3.522   4.657  19.903 -0.6114 -1.9358  0.7921
 1921TIP3    H229959   3.511   4.690  20.051  1.4697  0.1232  0.5315
 1922TIP3   OH229960   4.724   1.528  19.389  0.0580  0.0093 -0.4780
 1922TIP3    H129961   4.789   1.592  19.361  1.3307 -0.7010  0.6955
 1922TIP3    H229962   4.772   1.470  19.449 -1.7299 -0.3680  0.6727
 1923TIP3   OH229963   3.829   3.930  17.948  0.0096  0.1812 -0.3985
 1923TIP3    H129964   3.811   3.899  18.037 -0.9204  2.5861  0.3071
 1923TIP3    H229965   3.859   4.020  17.959 -0.6835  0.7294 -2.5722
 1924TIP3   OH229966   5.718   3.229  17.316 -0.1735  0.2156 -0.6536
 1924TIP3    H129967   5.691   3.245  17.407 -0.2668  0.1286 -0.6664
 1924TIP3    H229968   5.766   3.146  17.320  1.0122  0.8993 -0.4598
 1925TIP3   OH229969   3.828   5.346  19.880 -0.3982  0.4776 -0.1447
 1925TIP3    H129970   3.844   5.387  19.965  1.9433  0.5854 -0.5841
 1925TIP3    H229971   3.733   5.352  19.868 -0.4989  2.7500  1.3028
 1926TIP3   OH229972   4.995   6.362  17.169 -0.0778 -0.0407 -0.1874
 1926TIP3    H129973   4.919   6.354  17.227  0.1308  1.4400  0.3479
 1926TIP3    H229974   4.961   6.343  17.082 -1.0840  0.6106  0.0469
 1927TIP3   OH229975   5.523   6.676  19.919 -0.4379  0.2438 -0.3093
 1927TIP3    H129976   5.458   6.729  19.873 -1.5119 -0.2165  0.6182
 1927TIP3    H229977   5.518   6.706  20.010  2.0227  1.5259 -0.5184
 1928TIP3   OH229978   2.452   4.632  19.062  0.1438 -0.1846  0.4519
 1928TIP3    H129979   2.389   4.699  19.090 -0.3183 -0.0036 -0.9388
 1928TIP3    H229980   2.413   4.594  18.984  0.7550 -1.5913  0.8048
 1929TIP3   OH229981   0.771   6.528  17.409 -0.0993  0.2713 -0.4197
 1929TIP3    H129982   0.824   6.582  17.467 -0.8709  2.1582 -1.3827
 1929TIP3    H229983   0.827   6.514  17.332 -0.1725  0.3626 -0.4906
 1930TIP3   OH229984   1.344   2.360  19.862 -0.3725 -0.3814  0.0812
 1930TIP3    H129985   1.257   2.322  19.870 -0.1308 -0.9797 -0.0752
 1930TIP3    H229986   1.363   2.356  19.768 -0.1014 -0.4412  0.1355
 1931TIP3   OH229987   3.270   5.959  20.185 -0.0599 -0.8929 -0.3395
 1931TIP3    H129988   3.323   6.026  20.143 -2.0042  1.8277  1.2749
 1931TIP3    H229989   3.270   5.981  20.278 -1.2000 -2.8585  0.2028
 1932TIP3   OH229990   0.982   6.591  19.306  0.1087  0.1518  1.0608
 1932TIP3    H129991   1.039   6.553  19.240  0.2704  0.2995  1.1136
 1932TIP3    H229992   0.997   6.685  19.300 -0.6652  0.2560  0.5837
 1933TIP3   OH229993   5.241   5.671  17.107  1.0763  0.2082 -0.3345
 1933TIP3    H129994   5.319   5.684  17.053 -0.0818  2.4285 -1.6132
 1933TIP3    H229995   5.192   5.602  17.061  1.4415  0.0620 -0.5136
 1934TIP3   OH229996   3.718   3.495  19.135  0.2843 -0.2183 -0.4433
 1934TIP3    H129997   3.682   3.465  19.052  0.2524 -0.3150 -0.3941
 1934TIP3    H229998   3.661   3.459  19.202 -1.8362  2.7387 -0.4768
 1935TIP3   OH229999   1.475   4.971  19.259  0.4619 -0.0204  0.2517
 1935TIP3    H130000   1.462   4.987  19.165 -1.0854  0.6320  0.5462
 1935TIP3    H230001   1.550   4.913  19.263  0.4061 -0.2620 -1.4143
 1936TIP3   OH230002   3.358   4.728  18.793 -0.1518  0.0457 -0.5620
 1936TIP3    H130003   3.358   4.643  18.749  1.2345  0.5234 -1.5404
 1936TIP3    H230004   3.449   4.757  18.790 -0.6177  1.6282 -0.3670
 1937TIP3   OH230005   2.945   4.635  18.359  0.4237 -0.0894  0.1962
 1937TIP3    H130006   2.866   4.687  18.367 -0.0859 -0.3699 -2.2106
 1937TIP3    H230007   2.995   4.678  18.289 -0.0570 -2.7624 -1.9560
 1938TIP3   OH230008   1.663   0.630  19.612 -0.4127  0.3201  0.0336
 1938TIP3    H130009   1.594   0.696  19.622  0.1176  0.6061  2.6199
 1938TIP3    H230010   1.744   0.681  19.608 -0.1397 -0.1166  0.0109
 1939TIP3   OH230011   1.635   0.051  17.693  0.1004 -0.5395  0.3679
 1939TIP3    H130012   1.628   0.137  17.650 -0.8312 -0.8692 -0.1668
 1939TIP3    H230013   1.609   0.067  17.784  1.5125  0.0467  0.7054
 1940TIP3   OH230014   1.855   6.487  18.403 -0.0332  0.3929  0.0041
 1940TIP3    H130015   1.905   6.431  18.462 -0.0453  0.5094  0.1260
 1940TIP3    H230016   1.780   6.433  18.377  0.6138 -0.1020 -0.8870
 1941TIP3   OH230017   0.755   3.850  18.060 -0.0654  0.2966 -0.2462
 1941TIP3    H130018   0.838   3.853  18.011  1.0941 -0.8167  1.5216
 1941TIP3    H230019   0.769   3.910  18.134  0.4237 -2.1255  1.7717
 1942TIP3   OH230020   1.545   0.638  18.516  0.1191  0.4017 -0.2452
 1942TIP3    H130021   1.526   0.671  18.428  2.1052 -0.2014 -0.9748
 1942TIP3    H230022   1.602   0.704  18.554 -0.1884  0.3346  0.3345
 1943TIP3   OH230023   2.004   4.625  19.406  0.3896 -0.4606 -0.1187
 1943TIP3    H130024   1.931   4.567  19.424  0.0790 -0.0248  0.0374
 1943TIP3    H230025   1.983   4.664  19.321 -0.9356  1.7223  1.1210
 1944TIP3   OH230026   6.212   2.043  17.322 -0.7590  0.1586 -0.6563
 1944TIP3    H130027   6.293   2.078  17.358 -1.0744 -0.0705  0.2931
 1944TIP3    H230028   6.208   2.080  17.233  1.3956 -1.4570 -1.5165
 1945TIP3   OH230029   3.743   4.971  18.387  1.3086  0.1851  0.5149
 1945TIP3    H130030   3.679   4.996  18.320  0.2439  1.2355  1.8681
 1945TIP3    H230031   3.710   4.888  18.422  0.2110  1.0908  1.7248
 1946TIP3   OH230032   4.545   1.823  20.043 -0.6079 -0.4424  0.4550
 1946TIP3    H130033   4.511   1.746  20.089 -3.0199  0.1962 -0.1199
 1946TIP3    H230034   4.470   1.858  19.995  0.8936  1.1431 -0.9042
 1947TIP3   OH230035   4.353   6.766  17.920 -0.6529  0.3237 -0.3958
 1947TIP3    H130036   4.319   6.760  17.830 -0.2041  0.1260 -0.5551
 1947TIP3    H230037   4.409   6.844  17.919  0.0636 -0.1861 -0.5315
 1948TIP3   OH230038   3.725   1.706  17.371 -0.6942 -0.3772 -0.3667
 1948TIP3    H130039   3.762   1.763  17.439 -1.3015  1.5108 -1.5529
 1948TIP3    H230040   3.798   1.690  17.311 -0.1861 -1.9580  0.6168
 1949TIP3   OH230041   6.191   2.677  17.481  0.4925  0.3064 -0.0740
 1949TIP3    H130042   6.217   2.592  17.445  1.6001  0.8474 -0.5905
 1949TIP3    H230043   6.099   2.686  17.456 -0.2748 -1.5897  1.6763
 1950TIP3   OH230044   1.440   5.507  19.427  0.2638 -0.1448 -0.3561
 1950TIP3    H130045   1.365   5.488  19.371 -0.4873 -0.6016  0.7877
 1950TIP3    H230046   1.405   5.561  19.498  0.6888 -1.5531  0.9761
 1951TIP3   OH230047   6.456   6.167  19.370  0.2035  1.0229 -0.0284
 1951TIP3    H130048   6.470   6.169  19.275  1.5747  1.1929  0.1699
 1951TIP3    H230049   6.368   6.204  19.381 -0.5329 -0.2111 -1.3191
 1952TIP3   OH230050   3.278   6.504  18.423  0.4755  0.2130  0.7175
 1952TIP3    H130051   3.371   6.484  18.433  0.5698 -1.7166 -2.4562
 1952TIP3    H230052   3.273   6.553  18.342 -1.2622  0.6848  1.0814
 1953TIP3   OH230053   1.836   2.925  17.779 -0.3577 -0.3022 -0.5711
 1953TIP3    H130054   1.884   2.935  17.697 -1.3736 -0.1451 -1.1594
 1953TIP3    H230055   1.781   3.003  17.784  1.2659  0.8264  1.3659
 1954TIP3   OH230056   5.857   3.468  17.219  0.6674  0.3615  0.9483
 1954TIP3    H130057   5.797   3.542  17.232  0.1480  0.0363  0.4594
 1954TIP3    H230058   5.825   3.401  17.278  0.3681  0.0838  0.4750
 1955TIP3   OH230059   5.038   4.393  18.264 -0.5796  0.3143 -0.2731
 1955TIP3    H130060   5.114   4.431  18.220 -0.1447  0.2720  0.4327
 1955TIP3    H230061   5.014   4.457  18.330 -1.3250  0.4456 -0.6677
 1956TIP3   OH230062   3.071   5.327  18.668  0.0957 -0.0942 -0.1558
 1956TIP3    H130063   3.138   5.381  18.709  0.4374 -0.5930 -0.0498
 1956TIP3    H230064   3.091   5.330  18.575 -1.0709  1.5783 -0.3951
 1957TIP3   OH230065   6.116   1.158  17.661 -0.0352 -0.0449 -0.3226
 1957TIP3    H130066   6.104   1.212  17.740  1.9873  0.5795 -0.3870
 1957TIP3    H230067   6.174   1.087  17.690  2.1569  1.1324 -1.5648
 1958TIP3   OH230068   5.472   6.391  16.519 -0.3074 -0.8195  0.5063
 1958TIP3    H130069   5.518   6.378  16.436 -1.0266  1.6349 -0.3461
 1958TIP3    H230070   5.384   6.417  16.494 -1.5255 -2.9952  2.1094
 1959TIP3   OH230071   3.755   3.497  18.512  0.6937  0.7397  0.2219
 1959TIP3    H130072   3.729   3.494  18.604  2.5953  0.8865  0.8252
 1959TIP3    H230073   3.759   3.406  18.484  2.3744  0.5332  1.0283
 1960TIP3   OH230074   4.045   6.718  18.937  0.0661 -0.0261  0.2268
 1960TIP3    H130075   4.005   6.791  18.984 -0.0380  0.0851 -0.0380
 1960TIP3    H230076   4.139   6.737  18.938  0.0470  0.0691  0.2300
 1961TIP3   OH230077   1.500   4.345  16.231  0.1705  0.2078 -0.5408
 1961TIP3    H130078   1.572   4.283  16.223 -0.4667 -0.6038 -0.0233
 1961TIP3    H230079   1.513   4.385  16.318 -0.2098 -0.2085 -0.2902
 1962TIP3   OH230080   3.915   2.929  19.796  0.4195  0.0275  0.3986
 1962TIP3    H130081   3.858   3.005  19.803  1.0528  0.6916 -1.1871
 1962TIP3    H230082   3.864   2.866  19.744  1.2353  0.8063 -1.4412
 1963TIP3   OH230083   1.986   3.311  19.135  0.0004  0.0226  0.5521
 1963TIP3    H130084   1.910   3.350  19.178  0.9288  1.5574  0.9046
 1963TIP3    H230085   2.033   3.386  19.097  0.4585 -1.0524 -1.1143
 1964TIP3   OH230086   2.872   6.739  16.756 -0.5540 -0.1443 -0.2842
 1964TIP3    H130087   2.914   6.741  16.670  0.6411  0.9247  0.2850
 1964TIP3    H230088   2.819   6.818  16.759 -0.9680 -0.4197 -0.2003
 1965TIP3   OH230089   2.794   3.320  17.596  0.2367 -0.2672  0.2134
 1965TIP3    H130090   2.833   3.273  17.670 -0.7715 -1.3629  0.0866
 1965TIP3    H230091   2.804   3.260  17.522  0.0124  0.2322 -0.2281
 1966TIP3   OH230092   5.303   1.869  19.386 -0.3454  0.1993  0.2986
 1966TIP3    H130093   5.385   1.903  19.349 -1.1689  1.5482 -0.3681
 1966TIP3    H230094   5.274   1.805  19.322 -0.0090 -0.0040  0.3448
 1967TIP3   OH230095   0.244   5.693  18.891  0.0692  0.7158 -0.0450
 1967TIP3    H130096   0.173   5.658  18.838  1.6078 -1.7995 -0.6284
 1967TIP3    H230097   0.295   5.747  18.830  0.2918  0.1002 -0.4094
 1968TIP3   OH230098   3.516   2.741  16.921 -0.1463  0.1721 -0.2776
 1968TIP3    H130099   3.611   2.742  16.936 -0.0280 -3.1745 -0.1020
 1968TIP3    H230100   3.506   2.722  16.828 -0.5857 -0.7374 -0.0619
 1969TIP3   OH230101   5.251   5.027  17.644  0.5183 -0.0819 -0.0172
 1969TIP3    H130102   5.230   5.046  17.735 -2.8440 -1.5515 -0.3638
 1969TIP3    H230103   5.206   5.096  17.594  1.4870  0.1205 -0.6370
 1970TIP3   OH230104   1.063   1.773  16.658 -0.0240 -0.3461 -0.0563
 1970TIP3    H130105   1.073   1.731  16.573  0.7115 -1.1146  0.4003
 1970TIP3    H230106   1.152   1.778  16.693 -0.2325  0.6240  0.3622
 1971TIP3   OH230107   0.510   1.311  19.953  0.4484 -0.7216  0.5196
 1971TIP3    H130108   0.495   1.356  20.036 -0.1257 -1.0879  0.6232
 1971TIP3    H230109   0.444   1.241  19.951  0.0837 -0.3682 -0.4925
 1972TIP3   OH230110   4.635   0.035  18.983 -0.1609  0.2470 -0.4292
 1972TIP3    H130111   4.679   0.035  19.068  0.2022  0.7578 -0.6120
 1972TIP3    H230112   4.599   0.124  18.974 -0.3052  0.1595 -0.7515
 1973TIP3   OH230113   4.322   0.192  19.259 -0.3505  0.7984 -0.0939
 1973TIP3    H130114   4.269   0.262  19.221 -1.1134  1.5047  2.1552
 1973TIP3    H230115   4.262   0.142  19.314  0.7807  0.0798  0.5377
 1974TIP3   OH230116   3.071   2.638  17.217  0.0145  0.8120  0.1914
 1974TIP3    H130117   3.133   2.676  17.154  1.3438  0.8508  1.4514
 1974TIP3    H230118   3.105   2.550  17.234 -0.7408  0.5379  0.3064
 1975TIP3   OH230119   6.312   6.391  17.549 -0.0178 -0.1905  0.1687
 1975TIP3    H130120   6.285   6.408  17.639 -1.8546  1.7113 -0.6481
 1975TIP3    H230121   6.259   6.317  17.521 -0.1412 -0.1833  0.3868
 1976TIP3   OH230122   0.258   5.303  17.534 -0.0982 -1.4476 -0.2590
 1976TIP3    H130123   0.316   5.226  17.530  0.1700 -1.2469 -0.2204
 1976TIP3    H230124   0.274   5.349  17.452 -0.8784 -1.8755 -0.6627
 1977TIP3   OH230125   3.773   0.291  18.231  0.3963 -0.3646 -0.1301
 1977TIP3    H130126   3.759   0.231  18.304  1.5501 -0.0977  0.3266
 1977TIP3    H230127   3.845   0.252  18.181  0.3122 -0.0063 -0.5403
 1978TIP3   OH230128   1.187   4.353  19.336 -0.2411  0.0462 -0.6036
 1978TIP3    H130129   1.168   4.259  19.339 -3.8443  0.6600  1.8101
 1978TIP3    H230130   1.223   4.374  19.422  2.4766  0.6726 -1.7891
 1979TIP3   OH230131   4.398   5.091  19.652  0.4000  0.3763  0.1925
 1979TIP3    H130132   4.415   5.015  19.597  1.6814  0.4138  0.4998
 1979TIP3    H230133   4.306   5.084  19.677  0.3381 -0.7091 -0.3283
 1980TIP3   OH230134   4.241   0.780  17.432  0.3889 -0.5908  0.1872
 1980TIP3    H130135   4.274   0.853  17.379  0.8932 -0.3176  0.8668
 1980TIP3    H230136   4.318   0.743  17.474  0.2265 -1.9435 -0.6393
 1981TIP3   OH230137   0.717   3.182  18.232 -0.2888 -0.3303  0.1094
 1981TIP3    H130138   0.760   3.242  18.170  0.6501 -1.6038 -0.5396
 1981TIP3    H230139   0.680   3.238  18.299 -0.0864  1.0153 -0.8687
 1982TIP3   OH230140   3.766   3.235  19.660  0.1253  0.0202  0.1295
 1982TIP3    H130141   3.679   3.200  19.640  0.0525 -0.0730  0.6068
 1982TIP3    H230142   3.755   3.330  19.655  0.0702  0.0029 -0.1049
 1983TIP3   OH230143   1.171   1.303  18.941 -0.0289  0.0693  0.7234
 1983TIP3    H130144   1.120   1.337  18.868 -0.9814  0.9696  1.7678
 1983TIP3    H230145   1.240   1.368  18.954 -0.3040  0.2946  1.0817
 1984TIP3   OH230146   3.911   6.501  19.047  0.2360  0.5217  0.1284
 1984TIP3    H130147   3.988   6.480  19.100  0.4205  1.1813  0.1310
 1984TIP3    H230148   3.933   6.585  19.005  0.1671 -0.0690 -1.1347
 1985TIP3   OH230149   4.147   2.368  16.778  0.4223  0.3547  0.0016
 1985TIP3    H130150   4.196   2.349  16.697  1.3908  0.7696  0.4720
 1985TIP3    H230151   4.127   2.282  16.814  1.9164  0.1624  0.4389
 1986TIP3   OH230152   4.652   3.685  18.030 -0.0317  0.0276 -0.2303
 1986TIP3    H130153   4.702   3.744  18.085 -2.2338  1.0345  0.8207
 1986TIP3    H230154   4.576   3.661  18.083 -0.5386 -1.6926 -1.6064
 1987TIP3   OH230155   2.642   1.005  19.809  0.2514  0.7721 -0.3244
 1987TIP3    H130156   2.648   1.090  19.853 -1.2986 -0.3155  2.2292
 1987TIP3    H230157   2.561   1.009  19.758  1.1288  1.4144 -1.7165
 1988TIP3   OH230158   4.265   2.487  19.516 -0.1865 -0.2631 -0.5547
 1988TIP3    H130159   4.247   2.438  19.596 -0.3452 -1.6029 -1.3775
 1988TIP3    H230160   4.360   2.501  19.517 -0.3905  1.3176  0.7195
 1989TIP3   OH230161   0.449   5.839  16.750  0.2747  0.0855 -0.1259
 1989TIP3    H130162   0.393   5.763  16.766 -1.8717  1.4347 -0.7950
 1989TIP3    H230163   0.516   5.807  16.690 -1.4038 -0.9668 -1.5323
 1990TIP3   OH230164   4.116   1.881  18.944  0.4602  0.3874  0.1773
 1990TIP3    H130165   4.139   1.788  18.948  1.2629  0.5772  4.7392
 1990TIP3    H230166   4.024   1.884  18.969 -0.0185  0.7896 -1.5127
 1991TIP3   OH230167   6.279   2.425  18.065 -0.0298  0.2475 -0.2976
 1991TIP3    H130168   6.231   2.478  18.002  0.2830  0.2922 -0.5029
 1991TIP3    H230169   6.338   2.372  18.012 -0.6117 -0.6002 -0.1261
 1992TIP3   OH230170   4.760   0.550  19.672  0.3721 -0.7564 -0.5622
 1992TIP3    H130171   4.772   0.548  19.577 -3.5242 -1.4975 -1.1682
 1992TIP3    H230172   4.791   0.464  19.702  0.1899 -1.1093 -1.3707
 1993TIP3   OH230173   4.277   2.603  16.813  0.0444  0.2707  0.2247
 1993TIP3    H130174   4.367   2.571  16.808  0.0849  0.4877 -0.7466
 1993TIP3    H230175   4.223   2.525  16.802  0.1261  0.2173  0.2016
 1994TIP3   OH230176   2.313   2.124  18.755 -0.3338 -0.5738 -0.6274
 1994TIP3    H130177   2.361   2.045  18.778  0.1827  0.2748  1.4090
 1994TIP3    H230178   2.252   2.137  18.827 -0.1091  1.1018 -0.7016
 1995TIP3   OH230179   5.285   0.205  17.507 -0.2207  0.3900 -0.4573
 1995TIP3    H130180   5.240   0.146  17.446 -0.3120  0.2938 -0.2951
 1995TIP3    H230181   5.246   0.291  17.490  1.6070  0.9236 -2.4585
 1996TIP3   OH230182   6.666   2.653  18.691 -0.1221 -0.1802  0.1678
 1996TIP3    H130183   6.613   2.591  18.642  1.1775 -0.6948 -0.6552
 1996TIP3    H230184   6.667   2.620  18.780  1.2192 -1.8756 -0.4092
 1997TIP3   OH230185   5.126   6.088  18.482  0.0744 -1.0365 -0.4779
 1997TIP3    H130186   5.121   6.182  18.500 -0.2557 -1.1364 -0.0383
 1997TIP3    H230187   5.036   6.062  18.466 -0.2523 -1.7821  2.0766
 1998TIP3   OH230188   2.299   2.634  19.012  0.2646 -0.2125  0.3330
 1998TIP3    H130189   2.346   2.552  18.994  0.7464 -0.2918  1.7817
 1998TIP3    H230190   2.293   2.637  19.108  2.6961  2.7552  0.5422
 1999TIP3   OH230191   4.973   1.874  19.249 -0.2205 -0.0093 -0.7199
 1999TIP3    H130192   4.916   1.936  19.294  2.9458  2.2501  0.4984
 1999TIP3    H230193   4.965   1.897  19.156  0.0714  1.5545 -0.3855
 2000TIP3   OH230194   3.532   2.163  19.126 -0.9185 -0.3682  0.5894
 2000TIP3    H130195   3.474   2.096  19.088 -1.0326  0.0527 -0.0091
 2000TIP3    H230196   3.563   2.212  19.050  0.6021 -0.8644  0.8514
 2001TIP3   OH230197   1.989   3.725  17.106  0.1751  0.1463  0.2806
 2001TIP3    H130198   2.065   3.725  17.047 -1.2603 -0.1104 -1.6948
 2001TIP3    H230199   1.982   3.635  17.137 -0.4049 -0.3111 -1.0895
 2002TIP3   OH230200   2.559   2.302  20.071  0.0223  0.4502  0.3535
 2002TIP3    H130201   2.554   2.269  20.160 -0.3081 -0.1669  0.1153
 2002TIP3    H230202   2.499   2.377  20.069 -0.0115  0.4299  0.6359
 2003TIP3   OH230203   2.785   5.257  19.717  0.1301 -0.3764 -0.0242
 2003TIP3    H130204   2.787   5.218  19.630 -0.8204 -0.7734  0.1133
 2003TIP3    H230205   2.776   5.182  19.777  2.9069 -0.3011  0.6061
 2004TIP3   OH230206   6.265   5.343  18.173 -0.0438  0.1609  0.6625
 2004TIP3    H130207   6.292   5.251  18.173 -0.6844 -0.0661 -1.2115
 2004TIP3    H230208   6.176   5.342  18.208  0.4770  0.2892  2.0654
 2005TIP3   OH230209   2.361   6.324  19.189  0.2524  0.6331 -0.0775
 2005TIP3    H130210   2.453   6.317  19.164  1.0389  2.6212  1.8978
 2005TIP3    H230211   2.316   6.350  19.109  1.6573  1.0967 -0.7544
 2006TIP3   OH230212   2.810   0.832  17.733 -0.0817 -0.2837  0.1941
 2006TIP3    H130213   2.818   0.740  17.759 -3.7963 -1.0662 -0.8381
 2006TIP3    H230214   2.839   0.833  17.641  2.3919  0.1906  0.9202
 2007TIP3   OH230215   1.330   6.256  18.819 -0.1288  0.1307 -0.2898
 2007TIP3    H130216   1.316   6.163  18.802 -2.3944  0.2454  0.6014
 2007TIP3    H230217   1.246   6.297  18.796  1.0747  2.0912 -1.4494
 2008TIP3   OH230218   2.914   2.910  16.811  0.0545 -0.2329  0.2558
 2008TIP3    H130219   2.877   2.977  16.755  2.9888  1.5319  0.2113
 2008TIP3    H230220   2.849   2.897  16.880 -1.2810  1.5121 -0.6113
 2009TIP3   OH230221   3.970   6.608  19.471  1.0175  0.0102 -0.1902
 2009TIP3    H130222   3.936   6.556  19.399  2.0313  1.0614 -1.4901
 2009TIP3    H230223   4.006   6.545  19.532 -2.4137 -1.1252  0.9059
 2010TIP3   OH230224   4.469   4.864  18.510 -0.3432  0.1356 -0.3987
 2010TIP3    H130225   4.502   4.950  18.486 -0.5107  0.1157 -0.7130
 2010TIP3    H230226   4.533   4.830  18.572 -1.2354  1.2426  1.2009
 2011TIP3   OH230227   2.472   5.535  18.001  0.1820  0.0364 -1.0440
 2011TIP3    H130228   2.462   5.572  18.089 -0.5849  0.1251 -1.1633
 2011TIP3    H230229   2.539   5.590  17.960 -1.5044  1.8404 -1.4970
 2012TIP3   OH230230   5.273   6.149  18.252 -0.1506 -0.0768 -0.0606
 2012TIP3    H130231   5.227   6.120  18.330  1.7329 -1.6765  0.5536
 2012TIP3    H230232   5.264   6.076  18.190 -0.0189  0.3630 -0.6045
 2013TIP3   OH230233   5.392   5.613  19.714 -0.0820  0.0288 -0.1635
 2013TIP3    H130234   5.428   5.593  19.628 -1.7524 -1.2204 -0.6378
 2013TIP3    H230235   5.448   5.566  19.776  0.4926  0.0578 -0.6604
 2014TIP3   OH230236   1.808   5.597  18.643  0.4072  0.7800 -0.3896
 2014TIP3    H130237   1.880   5.557  18.594 -0.5359 -1.0537 -0.3687
 2014TIP3    H230238   1.769   5.659  18.582  0.0413 -0.5367 -1.5416
 2015TIP3   OH230239   3.527   0.236  17.897  0.6458  0.0768  0.0594
 2015TIP3    H130240   3.578   0.312  17.923  2.1092 -0.6114 -0.6913
 2015TIP3    H230241   3.531   0.177  17.972 -0.9522  0.9155  0.8605
 2016TIP3   OH230242   1.507   3.334  19.202 -0.3012  0.6505  0.1576
 2016TIP3    H130243   1.576   3.283  19.161 -0.1444  0.7228  0.3334
 2016TIP3    H230244   1.488   3.404  19.140 -0.7745  0.1682 -0.2554
 2017TIP3   OH230245   3.394   4.659  19.773  0.5199  0.1205 -0.2621
 2017TIP3    H130246   3.345   4.731  19.734  2.2555  0.5742 -1.7201
 2017TIP3    H230247   3.340   4.581  19.755 -0.6867  0.8501  0.0920
 2018TIP3   OH230248   3.570   3.304  18.645  0.2383 -0.4949 -0.1869
 2018TIP3    H130249   3.496   3.243  18.650 -1.3988  1.2718 -1.3047
 2018TIP3    H230250   3.614   3.281  18.563 -1.2015  0.6067 -1.3311
 2019TIP3   OH230251   5.933   6.627  17.437 -0.5665  0.0602  0.5938
 2019TIP3    H130252   5.902   6.708  17.396 -0.5744  0.2127  0.9030
 2019TIP3    H230253   6.028   6.629  17.424 -0.6709 -0.3900 -0.3227
 2020TIP3   OH230254   1.119   0.133  18.238  0.0242  0.4192 -0.0019
 2020TIP3    H130255   1.163   0.217  18.251 -0.9593  0.8988  0.3193
 2020TIP3    H230256   1.138   0.083  18.318 -1.5469  1.3392  0.9937
 2021TIP3   OH230257   2.242   1.387  18.584 -0.1832  0.2500  0.0900
 2021TIP3    H130258   2.216   1.307  18.539  1.5895  0.2088 -0.9613
 2021TIP3    H230259   2.294   1.435  18.519 -0.3445  1.7799  1.0312
 2022TIP3   OH230260   3.912   4.752  18.151  0.4018  0.0788 -0.4164
 2022TIP3    H130261   3.857   4.731  18.075  1.3456  0.0799 -1.1193
 2022TIP3    H230262   3.974   4.818  18.119 -0.8091  2.0367  1.0398
 2023TIP3   OH230263   6.531   5.819  17.910  0.1972  0.3279  0.0655
 2023TIP3    H130264   6.453   5.763  17.910  0.7505 -0.4710 -0.5748
 2023TIP3    H230265   6.604   5.757  17.902  0.8225  1.1535 -0.7752
 2024TIP3   OH230266   6.382   0.591  17.724  0.4303 -0.0323  0.1503
 2024TIP3    H130267   6.413   0.663  17.779 -1.2887 -0.0554  1.2429
 2024TIP3    H230268   6.320   0.543  17.780 -0.8055 -0.5112 -1.5428
 2025TIP3   OH230269   1.005   3.487  18.803 -0.3129 -0.2734 -0.5215
 2025TIP3    H130270   0.996   3.563  18.746  1.0744  1.2281  1.1551
 2025TIP3    H230271   1.041   3.419  18.747 -1.5269  0.2791 -2.0488
 2026TIP3   OH230272   0.615   6.022  17.314 -0.0592  0.0594  0.2064
 2026TIP3    H130273   0.667   5.983  17.244  0.6781  0.3248  0.5923
 2026TIP3    H230274   0.573   6.097  17.272 -0.5398 -0.4498 -0.2371
 2027TIP3   OH230275   5.821   0.501  16.963  0.2176  0.5657  0.3658
 2027TIP3    H130276   5.899   0.458  16.927  0.4130  0.3874  0.9911
 2027TIP3    H230277   5.832   0.593  16.941  0.7733  0.5930  0.7378
 2028TIP3   OH230278   1.413   5.055  18.985  0.1733 -0.1487  0.5252
 2028TIP3    H130279   1.342   5.073  19.047 -0.6637  0.2682 -0.5404
 2028TIP3    H230280   1.377   5.077  18.900  1.4681 -0.2966 -0.0773
 2029TIP3   OH230281   2.652   4.211  16.714 -0.1959 -0.4033  0.2997
 2029TIP3    H130282   2.740   4.216  16.677 -0.0189 -3.8342 -0.0820
 2029TIP3    H230283   2.595   4.202  16.638 -1.1050  2.5431  0.4964
 2030TIP3   OH230284   2.896   0.520  19.727  0.8164  0.2298  0.0079
 2030TIP3    H130285   2.858   0.462  19.793  0.4749 -0.9076 -1.1323
 2030TIP3    H230286   2.832   0.522  19.656  0.1409  3.2119  0.5727
 2031TIP3   OH230287   4.354   0.827  17.115  0.2988 -0.5253  0.1089
 2031TIP3    H130288   4.265   0.839  17.082  0.3571 -0.7477 -0.1293
 2031TIP3    H230289   4.376   0.737  17.092  0.6176 -0.4452  0.0967
 2032TIP3   OH230290   5.647   2.192  17.655  0.3099 -1.4304 -0.2411
 2032TIP3    H130291   5.732   2.231  17.671 -0.1432 -0.3718 -0.3549
 2032TIP3    H230292   5.646   2.174  17.561 -0.3476  0.4660 -0.6366
 2033TIP3   OH230293   3.730   5.183  18.068  0.1085 -0.2547 -0.1308
 2033TIP3    H130294   3.767   5.206  18.154  0.7513 -1.4484 -0.0600
 2033TIP3    H230295   3.681   5.260  18.041  2.8258  1.5396 -0.3013
 2034TIP3   OH230296   5.428   5.861  18.095 -0.2701  0.2664  0.4759
 2034TIP3    H130297   5.505   5.900  18.054 -0.3710  0.8560  0.8389
 2034TIP3    H230298   5.463   5.810  18.168  0.0890 -2.1830 -1.2581
 2035TIP3   OH230299   5.681   2.504  18.233  0.0955  0.0053  0.2915
 2035TIP3    H130300   5.715   2.562  18.302 -0.5504  1.8498 -0.8528
 2035TIP3    H230301   5.703   2.549  18.151 -2.7411 -0.0138 -0.5854
 2036TIP3   OH230302   5.415   5.060  18.147 -0.3750  0.1187  0.2233
 2036TIP3    H130303   5.407   5.149  18.180 -0.6898  0.2863 -0.2933
 2036TIP3    H230304   5.447   5.009  18.222 -0.0875  0.6834  0.4882
 2037TIP3   OH230305   3.373   0.140  17.350  0.1453 -0.2627 -0.1151
 2037TIP3    H130306   3.388   0.067  17.289  0.0781  0.5189 -1.0820
 2037TIP3    H230307   3.459   0.181  17.360  0.0291 -0.0135 -0.1523
 2038TIP3   OH230308   4.096   6.162  17.253  0.1013  0.2739  0.1154
 2038TIP3    H130309   4.001   6.154  17.267  0.0929  0.5518  0.2233
 2038TIP3    H230310   4.115   6.099  17.184 -0.2511  0.6029 -0.2866
 2039TIP3   OH230311   2.310   2.233  19.375  0.3648  0.3799 -0.3209
 2039TIP3    H130312   2.269   2.171  19.315  1.0978  0.3873 -0.8443
 2039TIP3    H230313   2.404   2.217  19.366  0.5888  1.7247 -0.6684
 2040TIP3   OH230314   0.874   2.869  18.020  0.0908 -0.3026 -0.0999
 2040TIP3    H130315   0.965   2.873  18.048 -0.3908 -2.4864  2.0982
 2040TIP3    H230316   0.879   2.848  17.927  1.7920  0.6666 -0.2749
 2041TIP3   OH230317   1.765   1.816  18.422 -0.5487  0.0336  0.0915
 2041TIP3    H130318   1.743   1.736  18.471  2.9457 -0.8113  0.5541
 2041TIP3    H230319   1.758   1.886  18.486 -1.2345 -0.2543  0.3405
 2042TIP3   OH230320   5.751   1.308  17.933  0.8660  0.0247 -0.3872
 2042TIP3    H130321   5.829   1.355  17.904 -0.0921  2.0200  0.0700
 2042TIP3    H230322   5.702   1.372  17.984 -0.1283 -1.7651  1.0289
 2043TIP3   OH230323   6.753   6.064  19.371 -0.1107 -0.1923 -0.2499
 2043TIP3    H130324   6.674   6.011  19.365  0.6196 -1.2630 -0.6809
 2043TIP3    H230325   6.731   6.132  19.434 -1.0082 -1.1399  0.5040
 2044TIP3   OH230326   2.345   2.480  20.065 -0.4067  0.6273  0.4444
 2044TIP3    H130327   2.353   2.574  20.077 -1.4657  0.6359  1.1951
 2044TIP3    H230328   2.252   2.461  20.076 -0.5585 -0.2537 -1.7373
 2045TIP3   OH230329   1.099   1.825  18.461 -0.1706  0.1888  0.5079
 2045TIP3    H130330   1.186   1.865  18.457 -0.5462  0.9349 -2.2003
 2045TIP3    H230331   1.068   1.844  18.549  0.5075  4.1214  0.0743
 2046TIP3   OH230332   5.073   1.106  19.829 -0.0186  0.2133  0.3321
 2046TIP3    H130333   5.107   1.196  19.827  1.4698 -0.3220 -0.5862
 2046TIP3    H230334   5.037   1.096  19.917  0.5525  1.4474  0.7287
 2047TIP3   OH230335   5.005   2.388  16.408  0.3785  0.0733  0.0081
 2047TIP3    H130336   4.992   2.447  16.335  2.1149 -0.4665 -0.7880
 2047TIP3    H230337   4.988   2.301  16.373  1.5246 -0.2190  0.1274
 2048TIP3   OH230338   0.692   2.634  18.327 -0.1429  0.2090  0.4062
 2048TIP3    H130339   0.786   2.618  18.332  0.2071  1.9463  0.0322
 2048TIP3    H230340   0.653   2.558  18.371  1.3361 -1.2753 -0.6814
 2049TIP3   OH230341   2.501   1.375  19.407  0.6491  0.2663  0.1728
 2049TIP3    H130342   2.524   1.305  19.467 -1.4174 -1.2458 -0.6943
 2049TIP3    H230343   2.514   1.338  19.320 -0.1111  1.0849 -0.3109
 2050TIP3   OH230344   1.766   0.026  20.002 -0.2535 -0.5744  0.6200
 2050TIP3    H130345   1.706   0.088  20.042 -0.3740 -0.7108  0.6528
 2050TIP3    H230346   1.808   0.075  19.931 -1.3751 -0.8364 -0.2691
 2051TIP3   OH230347   4.997   6.708  16.646  0.3481  0.9023  0.3552
 2051TIP3    H130348   5.049   6.628  16.635  0.0420  0.7719 -0.1786
 2051TIP3    H230349   4.924   6.698  16.585  0.4926  1.7473  0.0228
 2052TIP3   OH230350   0.222   2.401  17.414 -0.0137 -0.1750 -0.0504
 2052TIP3    H130351   0.163   2.476  17.408  1.0402  0.5637 -1.9048
 2052TIP3    H230352   0.166   2.326  17.396 -0.4757  0.4779 -1.4719
 2053TIP3   OH230353   1.855   3.813  17.585  0.6303 -0.3467  0.0734
 2053TIP3    H130354   1.784   3.814  17.649  1.5061  1.0770  1.0978
 2053TIP3    H230355   1.914   3.884  17.613  1.9738 -0.8605 -1.2707
 2054TIP3   OH230356   1.815   5.580  16.972  0.2094  0.3584  0.2579
 2054TIP3    H130357   1.876   5.569  17.046  0.1345  0.5970  0.3543
 2054TIP3    H230358   1.834   5.505  16.915 -1.7300 -1.5125  1.8958
 2055TIP3   OH230359   6.589   4.145  17.126  0.4884 -0.1391 -0.5825
 2055TIP3    H130360   6.681   4.141  17.154 -0.1776 -3.6050  1.7193
 2055TIP3    H230361   6.584   4.083  17.053 -0.2298 -1.1410  0.2854
 2056TIP3   OH230362   0.350   4.412  19.424  0.2175  0.0978 -0.1567
 2056TIP3    H130363   0.282   4.398  19.490  0.5278  0.1766  0.1827
 2056TIP3    H230364   0.335   4.502  19.393 -0.4525 -0.2270 -0.8090
 2057TIP3   OH230365   5.402   4.975  17.402  0.3316 -0.6872 -0.1311
 2057TIP3    H130366   5.350   4.907  17.359  1.2598 -1.8050  0.4605
 2057TIP3    H230367   5.347   5.005  17.474  0.1056 -1.1786 -0.0923
 2058TIP3   OH230368   6.635   0.956  15.742  0.1835  0.5142 -0.2866
 2058TIP3    H130369   6.654   1.015  15.669 -1.8832  1.3891 -0.1937
 2058TIP3    H230370   6.553   0.913  15.718  0.0192  0.0364  1.0351
 2059TIP3   OH230371   3.316   3.281  18.875  0.1502 -0.2269 -0.3624
 2059TIP3    H130372   3.224   3.270  18.898  0.2821 -0.5961  0.0017
 2059TIP3    H230373   3.314   3.311  18.784 -0.3600  0.8682 -0.0104
 2060TIP3   OH230374   0.768   3.506  16.924  0.0438  0.0879  0.1073
 2060TIP3    H130375   0.800   3.425  16.884  0.7254  0.1127  0.5865
 2060TIP3    H230376   0.792   3.574  16.862 -0.9372 -0.1191 -0.5128
 2061TIP3   OH230377   3.491   1.453  18.219  0.6888 -0.5486 -0.0749
 2061TIP3    H130378   3.561   1.393  18.241 -0.5888 -1.8005  0.7837
 2061TIP3    H230379   3.447   1.412  18.144  0.8039  0.1600 -0.5366
 2062TIP3   OH230380   1.051   6.071  18.584 -0.0147 -0.0029 -0.8280
 2062TIP3    H130381   1.084   6.048  18.670 -0.1467 -0.7953 -0.9852
 2062TIP3    H230382   1.104   6.147  18.557  1.3442 -0.9349 -0.8682
 2063TIP3   OH230383   2.412   5.446  19.372  0.1366  0.3151 -0.9196
 2063TIP3    H130384   2.371   5.508  19.432 -0.7959 -1.5080  0.3892
 2063TIP3    H230385   2.352   5.442  19.297 -0.5149 -0.0564 -0.3798
 2064TIP3   OH230386   1.975   2.510  18.655  0.4078 -0.6056  0.5510
 2064TIP3    H130387   1.916   2.564  18.706  1.2457  0.9249 -0.0232
 2064TIP3    H230388   2.046   2.569  18.631  0.6124 -1.5709 -1.3936
 2065TIP3   OH230389   5.474   1.214  16.781 -0.2225 -0.0241 -0.5029
 2065TIP3    H130390   5.494   1.300  16.818 -0.6331 -1.0997  2.5089
 2065TIP3    H230391   5.550   1.192  16.728  2.4345  0.0313  2.9498
 2066TIP3   OH230392   0.391   2.162  19.379  0.4905  0.6791 -0.4389
 2066TIP3    H130393   0.345   2.078  19.390  0.3080  0.8722  0.3552
 2066TIP3    H230394   0.390   2.201  19.467  1.8341  0.8709 -0.4952
 2067TIP3   OH230395   4.202   3.496  18.140 -0.5071  0.4170  0.5109
 2067TIP3    H130396   4.157   3.525  18.219 -1.9859 -1.2091  0.3095
 2067TIP3    H230397   4.160   3.544  18.069 -0.5821  0.3670  0.5204
 2068TIP3   OH230398   6.267   3.416  18.225  0.1301 -0.2706  0.7625
 2068TIP3    H130399   6.216   3.398  18.146  0.2102  1.9770  0.1269
 2068TIP3    H230400   6.203   3.416  18.296 -0.1748 -0.9034  0.4945
 2069TIP3   OH230401   5.965   1.978  19.648  0.3318 -0.4355  0.2720
 2069TIP3    H130402   5.877   1.953  19.618  0.7288  1.5434 -3.1243
 2069TIP3    H230403   5.957   1.987  19.743 -3.5258  0.8983 -0.0071
 2070TIP3   OH230404   4.986   3.017  19.467 -0.3789 -0.0327 -0.6342
 2070TIP3    H130405   4.895   3.028  19.439  0.3638  0.2853 -3.2156
 2070TIP3    H230406   4.994   2.924  19.488 -1.5460  0.1461  0.7762
 2071TIP3   OH230407   0.841   5.995  17.494 -0.2799  0.6127  0.2807
 2071TIP3    H130408   0.834   6.080  17.538 -2.3740 -0.5204  2.3773
 2071TIP3    H230409   0.766   5.992  17.434 -0.0303  0.3674 -0.0236
 2072TIP3   OH230410   5.169   0.865  19.321 -0.0423  0.4921  0.1442
 2072TIP3    H130411   5.114   0.942  19.336  1.3915  1.6843 -0.4028
 2072TIP3    H230412   5.217   0.854  19.403  1.5288  1.7328 -0.5514
 2073TIP3   OH230413   0.348   1.799  16.654  0.4801 -0.2223 -0.0819
 2073TIP3    H130414   0.353   1.707  16.630  0.2782  0.2284 -1.9905
 2073TIP3    H230415   0.281   1.803  16.723 -0.3599 -1.3559 -0.8027
 2074TIP3   OH230416   0.887   2.867  16.873  0.5855  0.0990 -0.7924
 2074TIP3    H130417   0.792   2.870  16.860  0.6729  1.5429 -1.2739
 2074TIP3    H230418   0.920   2.823  16.795  0.4668  1.5455 -1.6820
 2075TIP3   OH230419   1.507   5.328  18.138 -0.4550 -0.0500  0.2397
 2075TIP3    H130420   1.558   5.275  18.200 -0.7250 -2.1590 -1.2175
 2075TIP3    H230421   1.416   5.319  18.168 -0.3368  0.9405  0.9143
 2076TIP3   OH230422   6.079   3.489  17.718 -0.3116  0.5323 -0.2686
 2076TIP3    H130423   6.045   3.484  17.628 -0.9902 -2.4099  0.0543
 2076TIP3    H230424   6.171   3.465  17.710 -0.4628 -0.1038 -0.1609
 2077TIP3   OH230425   6.683   1.556  18.446  0.3349 -0.1705 -0.2225
 2077TIP3    H130426   6.746   1.578  18.378 -0.9817  3.1815 -0.5539
 2077TIP3    H230427   6.727   1.578  18.528  1.1163 -2.0931 -0.0824
 2078TIP3   OH230428   3.810   1.827  17.913 -0.0596 -0.1191  0.0590
 2078TIP3    H130429   3.766   1.742  17.915 -1.6306  0.6154 -1.4062
 2078TIP3    H230430   3.792   1.865  17.998 -0.7880 -0.5556  0.1082
 2079TIP3   OH230431   3.096   6.310  19.406  0.0141 -0.3286 -0.1283
 2079TIP3    H130432   3.153   6.232  19.402  0.8962  0.1406  1.9892
 2079TIP3    H230433   3.146   6.377  19.360  0.8736 -0.1300  1.0419
 2080TIP3   OH230434   6.430   0.187  18.341  0.0198 -0.1320  0.2692
 2080TIP3    H130435   6.497   0.149  18.399  1.4199  1.0725 -0.4823
 2080TIP3    H230436   6.459   0.165  18.253 -0.0040  1.2474 -0.1131
 2081TIP3   OH230437   3.238   6.189  17.259  0.1462 -0.2495  0.1342
 2081TIP3    H130438   3.161   6.200  17.203  0.1106  1.0739  0.3888
 2081TIP3    H230439   3.245   6.095  17.274 -1.6846 -0.3701  0.4494
 2082TIP3   OH230440   4.824   0.760  18.289  0.3673  0.0050 -0.3108
 2082TIP3    H130441   4.879   0.696  18.334 -1.6977 -1.0090  0.9221
 2082TIP3    H230442   4.859   0.845  18.317  1.7252 -0.5721 -0.1602
 2083TIP3   OH230443   5.420   3.115  17.330  0.0478 -0.3638 -0.4290
 2083TIP3    H130444   5.485   3.164  17.280 -0.5567  0.5628 -0.3378
 2083TIP3    H230445   5.457   3.027  17.338  0.3528 -0.4392 -2.1448
 2084TIP3   OH230446   0.845   3.351  18.966 -0.2886  0.0928  0.2169
 2084TIP3    H130447   0.884   3.415  18.906 -0.4176  0.1891  0.2383
 2084TIP3    H230448   0.854   3.268  18.920  0.7831 -0.0295  0.6062
 2085TIP3   OH230449   4.643   5.259  18.082  0.0813  0.4113  0.6616
 2085TIP3    H130450   4.661   5.340  18.129  0.8855 -0.1201  1.3130
 2085TIP3    H230451   4.730   5.221  18.066 -0.1937  0.3398 -0.8605
 2086TIP3   OH230452   2.966   6.668  19.948  0.1106 -0.4579  0.3619
 2086TIP3    H130453   3.038   6.663  20.011 -0.6278 -2.0085  1.1388
 2086TIP3    H230454   2.976   6.589  19.894  0.4703  0.6242 -1.2187
 2087TIP3   OH230455   4.833   3.202  18.367 -0.0177  0.0839 -0.5752
 2087TIP3    H130456   4.807   3.110  18.374  1.9990 -0.4142  1.3522
 2087TIP3    H230457   4.752   3.251  18.384 -0.9424 -1.3123 -0.7521
 2088TIP3   OH230458   5.819   4.660  18.804  0.4656  0.2797  0.5708
 2088TIP3    H130459   5.769   4.639  18.882  0.0502  0.1831  0.2799
 2088TIP3    H230460   5.886   4.721  18.834 -0.4816  1.2516  0.7693
 2089TIP3   OH230461   6.685   5.226  17.287 -0.2294  0.2538  0.6299
 2089TIP3    H130462   6.703   5.315  17.258 -2.3369  0.5626  0.1313
 2089TIP3    H230463   6.621   5.236  17.357 -0.2876 -0.8579  0.7550
 2090TIP3   OH230464   0.232   6.245  19.227  0.2434  0.2543 -0.0691
 2090TIP3    H130465   0.197   6.281  19.308 -1.4103  2.1971 -1.5065
 2090TIP3    H230466   0.311   6.296  19.210  1.1277 -0.8018  0.7459
 2091TIP3   OH230467   2.154   6.107  18.719 -0.5468 -0.1574 -0.0668
 2091TIP3    H130468   2.077   6.113  18.775  0.4109  0.9106  1.2223
 2091TIP3    H230469   2.141   6.173  18.652 -0.5138  0.4215  0.4844
 2092TIP3   OH230470   0.653   5.599  17.558  0.2929 -0.2041  0.0720
 2092TIP3    H130471   0.628   5.691  17.565 -0.0090 -0.1931 -0.9018
 2092TIP3    H230472   0.736   5.592  17.604 -1.0117 -0.0340  2.5949
 2093TIP3   OH230473   3.555   5.547  19.323 -0.3568 -0.0247  0.6724
 2093TIP3    H130474   3.584   5.500  19.245 -0.2658 -0.5423  1.0143
 2093TIP3    H230475   3.626   5.535  19.386 -0.8783 -0.4716  1.1839
 2094TIP3   OH230476   4.177   6.589  17.662 -0.0009 -0.0319  0.2030
 2094TIP3    H130477   4.218   6.646  17.596  0.6717  0.3989  0.9824
 2094TIP3    H230478   4.138   6.519  17.610  1.1045 -0.0759 -0.6286
 2095TIP3   OH230479   6.335   5.611  18.574  0.4445 -0.0595  0.0450
 2095TIP3    H130480   6.368   5.626  18.485  1.6283 -0.9915  0.2965
 2095TIP3    H230481   6.380   5.676  18.628 -0.2892  0.5194 -0.0207
 2096TIP3   OH230482   2.975   3.180  19.187 -0.1162  0.5616 -0.3446
 2096TIP3    H130483   3.039   3.109  19.179 -0.1343  0.3394  1.3145
 2096TIP3    H230484   2.994   3.236  19.111 -1.5160 -2.2325 -2.9704
 2097TIP3   OH230485   0.399   2.108  17.512  0.0597 -0.2738  0.2041
 2097TIP3    H130486   0.474   2.165  17.533 -0.8259  0.7960  0.5625
 2097TIP3    H230487   0.380   2.127  17.420  0.2820 -0.6135  0.0881
 2098TIP3   OH230488   3.408   2.533  17.520 -0.2935 -0.1506 -0.2806
 2098TIP3    H130489   3.360   2.470  17.575  0.7968 -0.7724 -0.0208
 2098TIP3    H230490   3.425   2.486  17.439  0.6237 -0.2447 -0.0431
 2099TIP3   OH230491   1.452   1.681  18.532  0.2497 -0.0807  0.0819
 2099TIP3    H130492   1.401   1.611  18.573  1.3383 -1.3795 -0.6827
 2099TIP3    H230493   1.530   1.637  18.498  0.3690  1.2943 -1.5540
 2100TIP3   OH230494   1.108   0.901  18.189 -0.2443 -0.1910  0.4117
 2100TIP3    H130495   1.192   0.870  18.222 -0.3232  2.0133  3.0084
 2100TIP3    H230496   1.043   0.844  18.230 -0.1386 -0.2199  0.5412
 2101TIP3   OH230497   2.115   6.236  18.216  0.0641 -0.0137 -0.7051
 2101TIP3    H130498   2.155   6.314  18.253 -1.9814  0.4434  0.7107
 2101TIP3    H230499   2.188   6.177  18.200  1.4036  1.1811  0.6699
 2102TIP3   OH230500   3.536   3.537  18.805  0.0991 -0.1651 -0.2498
 2102TIP3    H130501   3.625   3.562  18.831 -0.2454 -0.7641  1.7091
 2102TIP3    H230502   3.548   3.466  18.743  0.9984  1.7498 -2.4165
 2103TIP3   OH230503   1.973   4.418  17.517 -0.0883  0.3115  0.1569
 2103TIP3    H130504   2.051   4.372  17.549  0.9166  0.2581 -2.1748
 2103TIP3    H230505   2.004   4.506  17.495 -0.5941  0.2238 -1.0077
 2104TIP3   OH230506   1.289   5.152  17.253 -0.0212 -0.4469  0.3411
 2104TIP3    H130507   1.282   5.240  17.217  0.4164 -0.4968  0.1251
 2104TIP3    H230508   1.205   5.111  17.233 -1.0824  0.6225  2.3902
 2105TIP3   OH230509   3.024   2.424  18.253 -0.2693  0.1019  0.3151
 2105TIP3    H130510   3.112   2.440  18.287 -0.4084  0.8628  0.3393
 2105TIP3    H230511   2.970   2.493  18.294 -0.6893  0.2272 -0.4358
 2106TIP3   OH230512   0.954   1.279  19.353  0.0956  0.1237  0.3051
 2106TIP3    H130513   1.020   1.346  19.337 -1.5122  2.2192  1.7635
 2106TIP3    H230514   0.876   1.312  19.309 -0.7795 -0.7160  1.1801
 2107TIP3   OH230515   6.564   4.213  18.954 -0.3085  0.4510  0.0356
 2107TIP3    H130516   6.495   4.254  19.007 -1.2778 -0.3538 -0.5753
 2107TIP3    H230517   6.646   4.249  18.989 -0.9127 -0.0233  2.0818
 2108TIP3   OH230518   4.938   1.142  19.159  0.1647 -1.2733 -0.9712
 2108TIP3    H130519   5.018   1.143  19.107  0.6136  0.9265 -0.3618
 2108TIP3    H230520   4.968   1.131  19.250 -0.3786 -2.2951 -0.9083
 2109TIP3   OH230521   5.094   1.425  18.210 -0.0968  0.2498 -0.2275
 2109TIP3    H130522   5.186   1.436  18.231 -0.1352 -0.5728  0.4320
 2109TIP3    H230523   5.050   1.495  18.259  0.2351  1.1175 -1.1434
 2110TIP3   OH230524   0.752   3.953  17.301 -0.0206  0.3627 -0.7033
 2110TIP3    H130525   0.712   3.874  17.264 -0.8197  0.8173 -0.8271
 2110TIP3    H230526   0.678   4.010  17.322  0.5438  1.0526 -0.5472
 2111TIP3   OH230527   0.895   4.416  19.645 -0.0606  0.1103  0.0814
 2111TIP3    H130528   0.944   4.486  19.602  0.3958  0.4620  1.1249
 2111TIP3    H230529   0.817   4.460  19.679 -1.5260 -0.5869 -2.1979
 2112TIP3   OH230530   3.759   0.948  17.425  0.1479  0.1299 -0.2913
 2112TIP3    H130531   3.842   0.984  17.393  0.2884 -1.0393 -1.3410
 2112TIP3    H230532   3.776   0.854  17.433 -0.8792 -0.0286  0.1328
 2113TIP3   OH230533   2.867   1.363  18.056 -0.1079 -0.2151 -0.0042
 2113TIP3    H130534   2.828   1.292  18.006  2.1567 -1.0223 -0.7374
 2113TIP3    H230535   2.959   1.361  18.032  0.1435  2.6195  0.3969
 2114TIP3   OH230536   5.013   0.618  17.908  0.0303  0.2331  0.4145
 2114TIP3    H130537   5.017   0.557  17.981 -0.1418  0.7759  0.8806
 2114TIP3    H230538   5.099   0.660  17.907 -0.6844  1.8221  1.7067
 2115TIP3   OH230539   3.250   1.764  17.164  0.1948  0.1674 -0.2731
 2115TIP3    H130540   3.329   1.748  17.216  0.3595  0.9462 -0.2701
 2115TIP3    H230541   3.194   1.816  17.222 -0.2582 -0.2427 -0.3362
 2116TIP3   OH230542   4.099   6.452  19.246 -0.4990  0.1293  0.4523
 2116TIP3    H130543   4.136   6.376  19.292  0.9087  0.5306  0.0368
 2116TIP3    H230544   4.166   6.519  19.254 -0.2859  0.2824 -1.9954
 2117TIP3   OH230545   0.484   4.274  19.669 -0.0684  0.2321 -0.4438
 2117TIP3    H130546   0.454   4.196  19.622  1.2567 -1.2312  0.9957
 2117TIP3    H230547   0.427   4.278  19.746 -1.8951  2.3167 -1.7997
 2118TIP3   OH230548   5.838   4.229  17.830 -0.9325  0.3848  0.1751
 2118TIP3    H130549   5.761   4.245  17.777 -0.6819 -0.9376 -0.6188
 2118TIP3    H230550   5.804   4.201  17.915 -1.3165  1.1494  0.2820
 2119TIP3   OH230551   0.559   4.906  18.659 -0.1440 -0.4119 -0.2869
 2119TIP3    H130552   0.466   4.892  18.644 -0.0563  0.5191 -1.8752
 2119TIP3    H230553   0.564   4.985  18.712 -0.2625 -0.7006  0.1586
 2120TIP3   OH230554   1.503   1.712  17.426  0.4523 -0.4294  0.4951
 2120TIP3    H130555   1.551   1.682  17.503  0.5732 -1.1326  0.1467
 2120TIP3    H230556   1.430   1.763  17.462 -0.3543 -1.9778  1.1399
 2121TIP3   OH230557   0.027   0.171  18.924  0.6776 -0.2888  0.0720
 2121TIP3    H130558   0.042   0.192  18.832 -3.3449  1.4128 -0.4168
 2121TIP3    H230559   0.041   0.253  18.971  1.8423 -0.9294  0.8937
 2122TIP3   OH230560   1.978   2.865  19.165  0.1654  0.2939 -0.3573
 2122TIP3    H130561   2.006   2.853  19.075  1.7512  3.4651 -0.4326
 2122TIP3    H230562   2.052   2.832  19.217 -0.6714 -1.3634 -0.1535
 2123TIP3   OH230563   5.708   3.229  18.185  0.2077  0.6063 -0.5166
 2123TIP3    H130564   5.675   3.211  18.097  2.4926  0.9298 -1.4874
 2123TIP3    H230565   5.776   3.164  18.200  0.5738  1.2174  0.5925
 2124TIP3   OH230566   4.965   0.537  18.405  0.1053  0.0200  0.2025
 2124TIP3    H130567   5.038   0.535  18.467 -0.1187  0.1538  0.4717
 2124TIP3    H230568   4.988   0.471  18.339  0.3572 -0.1053  0.4135
 2125TIP3   OH230569   3.464   6.511  18.813 -0.3281 -0.8115  0.0334
 2125TIP3    H130570   3.450   6.573  18.741  0.3279  1.2965  1.5990
 2125TIP3    H230571   3.376   6.484  18.839 -0.9591  2.1351  1.4193
 2126TIP3   OH230572   4.377   1.578  17.967 -0.0249  0.3432 -0.1901
 2126TIP3    H130573   4.323   1.655  17.989 -1.4642 -0.7800  0.3397
 2126TIP3    H230574   4.373   1.573  17.871 -2.9908 -1.1143 -0.0980
 2127TIP3   OH230575   4.431   3.090  18.635 -0.2525  0.3043 -0.1475
 2127TIP3    H130576   4.366   3.097  18.566 -0.4589  2.1556  0.1972
 2127TIP3    H230577   4.384   3.055  18.710 -0.7339  1.1157 -0.0649
 2128TIP3   OH230578   5.593   5.270  18.237  0.2509 -0.3511  0.1567
 2128TIP3    H130579   5.542   5.310  18.307  0.1575 -0.1558 -0.0219
 2128TIP3    H230580   5.630   5.191  18.277  0.2627 -0.2003  0.4469
 2129TIP3   OH230581   2.775   1.616  18.073 -0.0004 -0.3490 -0.3248
 2129TIP3    H130582   2.823   1.676  18.017  0.3048 -1.8795 -1.8027
 2129TIP3    H230583   2.815   1.530  18.057 -2.6742 -1.5709 -1.0565
 2130TIP3   OH230584   0.525   5.075  17.667 -0.6041 -0.0409  0.5518
 2130TIP3    H130585   0.592   5.131  17.627 -0.0520 -1.2128 -0.2305
 2130TIP3    H230586   0.475   5.134  17.723 -0.0287  1.2260 -0.2166
 2131TIP3   OH230587   2.908   2.984  20.282  0.0791 -0.1353  0.1306
 2131TIP3    H130588   2.860   3.031  20.350 -0.9261 -0.9565  0.0100
 2131TIP3    H230589   2.841   2.958  20.218  0.6961 -1.1402 -0.1396
 2132TIP3   OH230590   2.425   1.256  17.804 -0.1386  0.0961  0.1916
 2132TIP3    H130591   2.482   1.307  17.747 -0.9893  0.7003 -0.1342
 2132TIP3    H230592   2.469   1.172  17.813 -0.9915 -0.8317 -3.0890
 2133TIP3   OH230593   0.867   4.638  18.712 -0.2790  0.0942  0.4264
 2133TIP3    H130594   0.834   4.676  18.631  1.9194  1.2619 -0.0195
 2133TIP3    H230595   0.945   4.589  18.685 -0.1848 -0.4901  1.6808
 2134TIP3   OH230596   2.103   0.792  16.878 -0.4214 -0.0937 -0.3194
 2134TIP3    H130597   2.135   0.707  16.848 -0.1114  0.1323 -0.6417
 2134TIP3    H230598   2.155   0.856  16.829 -0.3943  0.2816  0.1965
 2135TIP3   OH230599   0.014   3.861  19.427  0.0136 -0.4566  0.2036
 2135TIP3    H130600   0.023   3.873  19.521  3.1041 -1.0710  0.0858
 2135TIP3    H230601   0.017   3.767  19.413 -0.4857 -0.3797 -0.5488
 2136TIP3   OH230602   1.337   3.745  18.387  0.8122 -0.0967 -0.3234
 2136TIP3    H130603   1.305   3.699  18.464 -0.4605 -0.4585 -1.0472
 2136TIP3    H230604   1.353   3.834  18.417 -1.0338  0.1461  0.0545
 2137TIP3   OH230605   5.941   6.192  19.733 -0.0060 -0.7030  0.4218
 2137TIP3    H130606   5.857   6.235  19.722  0.0632 -0.6706  0.0068
 2137TIP3    H230607   6.002   6.263  19.753 -0.3035 -0.8631  2.0308
 2138TIP3   OH230608   0.342   5.123  17.016  0.3799 -0.2762  0.1814
 2138TIP3    H130609   0.377   5.039  17.046  0.8732 -0.3101 -0.4422
 2138TIP3    H230610   0.276   5.147  17.080  0.8583 -0.7138  0.8513
 2139TIP3   OH230611   2.696   1.018  20.186 -0.1129  1.1211 -0.0554
 2139TIP3    H130612   2.707   1.039  20.279 -0.4339 -0.7991  0.4709
 2139TIP3    H230613   2.744   0.936  20.174 -0.2072  1.2525 -1.5534
 2140TIP3   OH230614   4.070   6.288  18.939  0.3991  0.0738  0.0680
 2140TIP3    H130615   4.156   6.248  18.925  0.2747 -0.1081 -0.1829
 2140TIP3    H230616   4.090   6.378  18.966  0.6448  0.4783 -1.4135
 2141TIP3   OH230617   5.059   0.890  16.754 -0.5103 -0.2050  0.3306
 2141TIP3    H130618   5.138   0.941  16.734 -1.9984  2.5946  1.0516
 2141TIP3    H230619   5.031   0.856  16.669  1.5314 -1.4764  0.0926
 2142TIP3   OH230620   2.275   5.593  19.551  0.0036 -0.3171  0.1310
 2142TIP3    H130621   2.204   5.532  19.530  0.9922 -2.2020  1.8143
 2142TIP3    H230622   2.259   5.618  19.642  1.3481 -0.6222  0.4786
 2143TIP3   OH230623   6.497   4.676  19.842  0.2389 -0.1279  0.1237
 2143TIP3    H130624   6.491   4.625  19.761 -0.9192  0.0432  0.0849
 2143TIP3    H230625   6.573   4.733  19.829  0.9854 -1.1640 -0.2071
 2144TIP3   OH230626   1.965   3.351  19.554  0.2412  0.2764  0.3459
 2144TIP3    H130627   2.060   3.353  19.565  0.3470 -0.7658 -0.2356
 2144TIP3    H230628   1.936   3.282  19.614  0.1471 -1.0923 -1.1967
 2145TIP3   OH230629   6.536   2.594  16.199  0.0070 -0.1818  0.0978
 2145TIP3    H130630   6.604   2.611  16.265  0.1844 -0.1896 -0.0826
 2145TIP3    H230631   6.493   2.678  16.186  1.3058  0.3277 -1.2655
 2146TIP3   OH230632   1.461   1.952  19.131  0.1671 -0.4934  0.2879
 2146TIP3    H130633   1.435   1.869  19.090  1.9688  0.3255 -2.8770
 2146TIP3    H230634   1.508   1.925  19.210  2.1094 -2.7036 -1.4602
 2147TIP3   OH230635   4.657   2.749  17.936 -0.3492 -0.1492  0.1721
 2147TIP3    H130636   4.659   2.658  17.907  1.2436  0.4463 -1.8166
 2147TIP3    H230637   4.749   2.776  17.939 -0.7361  1.1879  1.4908
 2148TIP3   OH230638   4.145   2.531  17.814 -0.6220 -0.0430  0.3829
 2148TIP3    H130639   4.193   2.503  17.737 -0.8437  1.0736 -0.1807
 2148TIP3    H230640   4.156   2.459  17.877  2.7623  0.6641  0.7483
 2149TIP3   OH230641   3.067   2.715  19.376  0.2990 -0.3905 -0.1140
 2149TIP3    H130642   3.018   2.796  19.390 -0.1404 -0.7880  0.7152
 2149TIP3    H230643   3.019   2.670  19.306 -1.2623 -1.3159  1.4625
 2150TIP3   OH230644   6.293   0.982  19.571 -0.2846 -0.2538  0.2713
 2150TIP3    H130645   6.316   1.033  19.649 -2.0310  0.7487  0.2016
 2150TIP3    H230646   6.198   0.972  19.577 -0.1922 -2.0119 -0.6618
 2151TIP3   OH230647   4.300   4.034  18.820 -0.0738  0.0913  0.3097
 2151TIP3    H130648   4.326   4.065  18.733  0.7660  1.1640  0.9243
 2151TIP3    H230649   4.204   4.035  18.818 -0.0616  1.0987 -0.2681
 2152TIP3   OH230650   0.774   0.971  17.418 -0.5156 -0.0929 -0.2354
 2152TIP3    H130651   0.853   0.919  17.402  0.3484  0.7169  1.2078
 2152TIP3    H230652   0.710   0.937  17.355  0.2150 -2.4222  0.1814
 2153TIP3   OH230653   4.172   5.335  17.451 -0.1663 -0.0771  0.1631
 2153TIP3    H130654   4.154   5.346  17.544  2.4333  1.6273  0.5594
 2153TIP3    H230655   4.236   5.402  17.430  0.7795 -1.6186 -2.4344
 2154TIP3   OH230656   5.890   2.448  19.396 -0.4199 -0.0447 -0.3636
 2154TIP3    H130657   5.889   2.438  19.301  0.2359 -0.4029 -0.3394
 2154TIP3    H230658   5.965   2.504  19.414 -2.2552  2.5923 -0.2568
 2155TIP3   OH230659   1.124   0.368  17.164 -0.0230 -0.6762  0.2863
 2155TIP3    H130660   1.204   0.335  17.124  0.5028  0.5808  0.2508
 2155TIP3    H230661   1.071   0.399  17.091 -0.8638 -2.0879  0.2477
 2156TIP3   OH230662   1.853   4.124  18.303  0.5019 -0.2785  0.0859
 2156TIP3    H130663   1.827   4.119  18.395  1.1031  1.1050  0.3533
 2156TIP3    H230664   1.771   4.125  18.254  0.0089  2.4980  0.8300
 2157TIP3   OH230665   4.378   0.586  18.502 -0.3465  0.0721  0.5819
 2157TIP3    H130666   4.367   0.496  18.471 -0.4125  0.5532 -0.8483
 2157TIP3    H230667   4.460   0.584  18.552 -1.2648 -1.1617  2.1661
 2158TIP3   OH230668   1.405   6.268  19.692 -0.1627 -0.1043  0.0501
 2158TIP3    H130669   1.484   6.287  19.743 -0.7770 -0.0439  1.0121
 2158TIP3    H230670   1.349   6.344  19.706 -1.7744 -1.5595  2.1818
 2159TIP3   OH230671   0.151   1.235  18.267 -0.4776 -0.1666 -0.0969
 2159TIP3    H130672   0.220   1.186  18.223 -2.0845 -1.7467 -1.0317
 2159TIP3    H230673   0.143   1.316  18.216 -0.2257 -0.5975 -0.8415
 2160TIP3   OH230674   5.596   5.364  19.147 -0.1414 -0.5803 -0.0118
 2160TIP3    H130675   5.549   5.288  19.180  0.2233 -0.3850  0.9959
 2160TIP3    H230676   5.529   5.415  19.101 -0.3380 -1.6159 -0.9127
 2161TIP3   OH230677   2.787   6.606  17.606  0.8941  0.0138  0.1339
 2161TIP3    H130678   2.846   6.545  17.562 -0.2838 -1.3779  0.3898
 2161TIP3    H230679   2.713   6.615  17.547  0.7842  0.7578  0.3693
 2162TIP3   OH230680   4.053   4.219  20.492 -0.1170  0.1246  0.1460
 2162TIP3    H130681   4.006   4.268  20.425  1.0793  1.1077 -0.0012
 2162TIP3    H230682   4.007   4.241  20.574  1.3419  2.8524  0.3351
 2163TIP3   OH230683   6.529   1.939  19.471  0.6047  0.3707 -0.0159
 2163TIP3    H130684   6.467   1.956  19.542  0.0590 -0.2305 -0.3352
 2163TIP3    H230685   6.487   1.976  19.393  0.4177 -0.4667 -0.3213
 2164TIP3   OH230686   2.721   1.779  17.735 -0.0551 -0.2053 -0.3722
 2164TIP3    H130687   2.787   1.788  17.804  1.3997  0.2297 -1.7429
 2164TIP3    H230688   2.670   1.860  17.740  0.0534 -0.1689  0.1780
 2165TIP3   OH230689   4.102   3.076  19.642  0.2993 -0.3514  0.1782
 2165TIP3    H130690   4.033   3.098  19.579  0.9484  3.0290  0.4159
 2165TIP3    H230691   4.060   3.019  19.706 -2.0097  0.7480 -0.2625
 2166TIP3   OH230692   1.020   5.126  17.194 -0.1271 -0.4881 -0.4235
 2166TIP3    H130693   0.994   5.104  17.105  0.4644 -0.5093 -0.6016
 2166TIP3    H230694   0.988   5.215  17.208 -1.5027 -1.0184 -0.1219
 2167TIP3   OH230695   5.247   1.545  16.895 -0.3435 -0.3999  0.4501
 2167TIP3    H130696   5.199   1.624  16.919 -0.4401 -0.2257 -0.2947
 2167TIP3    H230697   5.197   1.507  16.823 -0.3204 -1.1654  0.8369
 2168TIP3   OH230698   1.947   5.452  17.189  0.4337 -0.7816 -0.1235
 2168TIP3    H130699   1.985   5.523  17.240 -0.0554 -0.8388  0.3264
 2168TIP3    H230700   2.020   5.395  17.169  0.3839 -1.6618  1.9770
 2169TIP3   OH230701   0.330   4.039  19.107 -0.4768 -0.1389 -0.5316
 2169TIP3    H130702   0.407   4.069  19.059 -1.8044  3.3142 -0.7669
 2169TIP3    H230703   0.257   4.087  19.067 -2.4951 -1.7597  0.9930
 2170TIP3   OH230704   1.135   3.196  17.160 -0.5498  0.4577  0.1871
 2170TIP3    H130705   1.103   3.167  17.074 -0.6420 -3.2139  1.2932
 2170TIP3    H230706   1.057   3.225  17.206 -1.0458 -0.7351  0.1296
 2171TIP3   OH230707   0.173   3.033  19.926 -0.8742  0.0449  0.0528
 2171TIP3    H130708   0.080   3.051  19.916 -1.0743 -0.8816  0.2367
 2171TIP3    H230709   0.178   2.943  19.956  0.1368 -0.3810 -1.2816
 2172TIP3   OH230710   3.460   0.833  18.439 -0.3052  0.0543  0.3385
 2172TIP3    H130711   3.533   0.867  18.490 -0.8041  0.4781  0.7806
 2172TIP3    H230712   3.383   0.847  18.494 -0.7652 -0.0956 -0.2497
 2173TIP3   OH230713   1.223   6.103  19.552  0.1326  0.0017 -0.4124
 2173TIP3    H130714   1.263   6.018  19.570 -1.4072 -0.5419  0.7397
 2173TIP3    H230715   1.261   6.162  19.616 -0.2057 -0.3007  0.0804
 2174TIP3   OH230716   3.279   5.787  18.340  0.1561 -0.7114  0.0565
 2174TIP3    H130717   3.226   5.737  18.403 -0.4803 -0.7876 -0.5331
 2174TIP3    H230718   3.251   5.755  18.254 -1.0025  1.3611 -0.4012
 2175TIP3   OH230719   3.235   4.733  17.823  0.9076 -0.4322 -0.1603
 2175TIP3    H130720   3.236   4.684  17.741 -1.3595  0.5595 -0.8692
 2175TIP3    H230721   3.190   4.676  17.885  0.3558 -0.2049 -0.3413
 2176TIP3   OH230722   0.016   1.940  17.166 -0.2372 -0.1170  0.0380
 2176TIP3    H130723   0.092   1.949  17.109 -0.1880 -1.7443 -0.2081
 2176TIP3    H230724   0.021   1.849  17.198 -1.1359  0.2750  1.3773
 2177TIP3   OH230725   2.869   3.524  17.990 -0.0067 -0.6197 -0.3372
 2177TIP3    H130726   2.876   3.560  18.078  0.7905  2.5160 -1.5708
 2177TIP3    H230727   2.941   3.460  17.985 -0.7994 -1.7596  1.5764
 2178TIP3   OH230728   5.784   1.597  16.680 -0.1262 -0.5453  0.5588
 2178TIP3    H130729   5.812   1.652  16.607 -1.2291  0.9154  1.1860
 2178TIP3    H230730   5.718   1.539  16.642  0.2985 -0.7425  0.1088
 2179TIP3   OH230731   2.045   0.213  19.911  0.2107  0.3524 -0.0370
 2179TIP3    H130732   2.011   0.264  19.984  1.4173  0.1642  0.7038
 2179TIP3    H230733   2.139   0.233  19.910  0.5422 -1.0749 -0.3421
 2180TIP3   OH230734   1.245   2.145  18.281 -0.1010  0.0069  0.1765
 2180TIP3    H130735   1.157   2.182  18.285  0.0238  0.5017 -1.1029
 2180TIP3    H230736   1.250   2.087  18.357 -1.1820  0.7103  0.8156
 2181TIP3   OH230737   4.345   5.218  18.969 -0.0198  0.3266  0.9258
 2181TIP3    H130738   4.297   5.296  18.941 -1.9317 -1.3105 -0.7389
 2181TIP3    H230739   4.278   5.157  18.999  1.1635 -1.4131  0.2548
 2182TIP3   OH230740   6.426   5.615  19.525  0.4388 -0.2067 -0.5759
 2182TIP3    H130741   6.346   5.621  19.474 -0.7910  0.6156  1.3177
 2182TIP3    H230742   6.473   5.540  19.489 -1.2050 -0.7320 -1.7077
 2183TIP3   OH230743   2.025   6.379  17.338  0.2521 -0.2437 -0.0768
 2183TIP3    H130744   1.945   6.432  17.342  0.2255 -0.0827 -1.8409
 2183TIP3    H230745   2.084   6.421  17.401  0.0691  1.6709 -1.0858
 2184TIP3   OH230746   2.733   6.199  18.766 -0.3167 -0.2631 -0.2673
 2184TIP3    H130747   2.730   6.110  18.729 -1.6147  0.2019 -1.3858
 2184TIP3    H230748   2.809   6.198  18.824  0.1164 -1.8997 -0.7881
 2185TIP3   OH230749   6.258   2.097  19.890  0.6021  0.1974  0.0727
 2185TIP3    H130750   6.320   2.095  19.962  0.9182  2.0025 -0.1102
 2185TIP3    H230751   6.262   2.187  19.857  1.6793 -0.9105 -3.2485
 2186TIP3   OH230752   5.997   2.766  19.478  0.0568 -0.6845 -0.0831
 2186TIP3    H130753   5.930   2.776  19.410 -0.7449  0.8632  0.8867
 2186TIP3    H230754   5.964   2.817  19.552  2.3999  0.2826  0.3610
 2187TIP3   OH230755   5.553   0.448  18.694 -0.2558 -0.3727  0.0925
 2187TIP3    H130756   5.516   0.499  18.766 -0.4019  0.3224 -0.4625
 2187TIP3    H230757   5.585   0.513  18.632 -0.2033 -0.9603 -0.5132
 2188TIP3   OH230758   3.738   0.826  19.470 -0.1198  0.1732  0.1975
 2188TIP3    H130759   3.822   0.795  19.437 -0.8428 -1.0317 -0.5909
 2188TIP3    H230760   3.737   0.919  19.449  0.2067 -0.1926 -1.5895
 2189TIP3   OH230761   4.333   2.001  19.481 -0.0615 -0.2344  0.2596
 2189TIP3    H130762   4.361   2.054  19.407 -0.1633  0.3618  0.6346
 2189TIP3    H230763   4.250   2.041  19.509 -0.7279 -1.2930 -0.1506
 2190TIP3   OH230764   6.213   6.649  17.432  0.1766 -0.6459 -0.1008
 2190TIP3    H130765   6.246   6.562  17.455  1.0703 -0.5558 -0.9847
 2190TIP3    H230766   6.254   6.708  17.496 -3.3201 -1.2055  2.9745
 2191TIP3   OH230767   2.967   2.491  19.526 -0.1010 -0.0947  0.1137
 2191TIP3    H130768   2.955   2.470  19.434 -0.9020 -0.1743  0.2317
 2191TIP3    H230769   3.061   2.482  19.541  0.0892  0.3353 -0.7944
 2192TIP3   OH230770   4.931   1.722  18.787  0.2357 -0.3960 -0.5495
 2192TIP3    H130771   5.015   1.739  18.829  1.3131  0.0934 -2.7250
 2192TIP3    H230772   4.946   1.643  18.735 -2.0204 -2.9541  2.3163
 2193TIP3   OH230773   5.906   2.219  19.763 -0.3743  0.3533 -0.5765
 2193TIP3    H130774   5.858   2.302  19.762 -1.1894 -0.0810 -2.4314
 2193TIP3    H230775   5.904   2.190  19.671  1.5230 -0.7932 -0.2978
 2194TIP3   OH230776   0.500   4.281  16.679  0.5732 -0.1599  0.3867
 2194TIP3    H130777   0.513   4.341  16.606 -2.7450  0.7366  0.3688
 2194TIP3    H230778   0.530   4.329  16.756  1.4983 -0.0272 -0.0453
 2195TIP3   OH230779   3.816   2.743  18.267 -0.4744 -0.2357 -0.7504
 2195TIP3    H130780   3.746   2.805  18.247  1.1361  1.3498 -1.7603
 2195TIP3    H230781   3.866   2.736  18.186 -0.1744 -2.3443 -0.4425
 2196TIP3   OH230782   2.015   3.922  19.216 -0.5342  0.3212  0.6399
 2196TIP3    H130783   2.040   3.939  19.126  1.1234  0.5397  1.1030
 2196TIP3    H230784   1.953   3.849  19.211 -0.9260  0.7116 -0.6871
 2197TIP3   OH230785   2.442   2.876  18.888 -0.2970 -0.6092 -0.0140
 2197TIP3    H130786   2.489   2.914  18.962  0.0945 -2.4577  0.7411
 2197TIP3    H230787   2.413   2.791  18.919 -0.5183 -1.2519 -1.8416
 2198TIP3   OH230788   5.171   3.845  19.811 -0.4896 -0.0088 -0.0828
 2198TIP3    H130789   5.149   3.781  19.744 -0.9371  0.2490 -0.1926
 2198TIP3    H230790   5.247   3.809  19.856 -0.4042 -0.3527 -0.4985
 2199TIP3   OH230791   3.121   3.459  18.133  0.4491  0.0628 -0.5344
 2199TIP3    H130792   3.177   3.494  18.203  0.9021 -0.7842 -0.4636
 2199TIP3    H230793   3.173   3.472  18.053  1.3527 -1.9276 -0.3162
 2200TIP3   OH230794   4.928   2.219  18.859 -0.1221 -0.1126  0.3892
 2200TIP3    H130795   4.838   2.213  18.892 -0.2195 -1.4641 -0.0658
 2200TIP3    H230796   4.969   2.138  18.889  1.1179  0.7248  1.0333
 2201TIP3   OH230797   4.138   5.771  17.247  0.2813  0.6407 -0.3748
 2201TIP3    H130798   4.120   5.836  17.315 -0.5091  0.3859 -0.3267
 2201TIP3    H230799   4.097   5.691  17.280  0.2918  0.3978 -0.9410
 2202TIP3   OH230800   2.988   6.467  17.506  0.4207 -0.4082  0.2430
 2202TIP3    H130801   2.955   6.475  17.416 -0.9189 -0.2530  0.7341
 2202TIP3    H230802   3.047   6.391  17.503 -0.3770 -1.0202 -0.5518
 2203TIP3   OH230803   6.774   3.095  18.110 -0.4519 -0.1231 -0.3917
 2203TIP3    H130804   6.818   3.133  18.185  0.9510 -1.9119 -0.2427
 2203TIP3    H230805   6.819   3.012  18.095 -0.3872  0.3234 -3.4507
 2204TIP3   OH230806   2.060   1.033  18.744  0.0670 -0.5177 -0.1896
 2204TIP3    H130807   1.989   1.063  18.801 -1.1800 -2.4455 -0.6294
 2204TIP3    H230808   2.095   0.956  18.788  1.5889  0.1106 -0.2397
 2205TIP3   OH230809   1.015   2.159  17.965  0.2539  0.0512 -0.7060
 2205TIP3    H130810   0.949   2.135  18.030  1.8973  1.2116  1.5211
 2205TIP3    H230811   0.976   2.232  17.917 -0.4912  0.0486 -0.1224
 2206TIP3   OH230812   4.902   0.140  17.058 -0.0014  0.0081  0.0164
 2206TIP3    H130813   4.871   0.172  17.142 -0.6603  0.3304 -0.3463
 2206TIP3    H230814   4.996   0.127  17.071  0.1711  1.4525  0.3666
 2207TIP3   OH230815   1.059   0.159  19.427 -0.5859 -0.0360 -0.0201
 2207TIP3    H130816   1.042   0.196  19.514 -1.4350 -2.2452  0.8139
 2207TIP3    H230817   0.974   0.163  19.383 -0.4649 -0.1803 -0.2641
 2208TIP3   OH230818   3.500   0.798  19.179 -0.1073 -0.3214  0.4387
 2208TIP3    H130819   3.587   0.765  19.155 -0.2002  0.0337 -0.4282
 2208TIP3    H230820   3.459   0.726  19.227  0.9792 -0.1813  1.6412
 2209TIP3   OH230821   5.469   1.226  19.576 -0.3973 -0.2522 -0.2494
 2209TIP3    H130822   5.521   1.263  19.647 -0.8957 -0.3891  0.2005
 2209TIP3    H230823   5.396   1.287  19.565 -0.7759 -0.6664 -0.0686
 2210TIP3   OH230824   4.370   3.101  17.594  0.4952 -0.2384  0.6846
 2210TIP3    H130825   4.420   3.157  17.534  0.0613  0.0602  0.5887
 2210TIP3    H230826   4.282   3.097  17.554  0.0453  0.4123  1.5703
 2211TIP3   OH230827   6.232   5.062  18.729 -0.5529 -0.7379  0.2869
 2211TIP3    H130828   6.212   5.142  18.681  1.9539 -0.9130 -1.2644
 2211TIP3    H230829   6.172   5.062  18.803 -0.8321  2.4345  0.1857
 2212TIP3   OH230830   1.565   6.655  19.596 -0.0983  0.2342 -0.1341
 2212TIP3    H130831   1.649   6.691  19.624  1.5229 -2.3858 -1.3520
 2212TIP3    H230832   1.546   6.701  19.514 -0.0905  1.1027  0.3341
 2213TIP3   OH230833   2.980   2.131  16.437 -0.5661 -0.2531  0.1447
 2213TIP3    H130834   3.041   2.078  16.488 -1.4011 -1.2391  0.1331
 2213TIP3    H230835   2.972   2.213  16.487  0.6059 -0.1871  0.2387
 2214TIP3   OH230836   5.948   4.861  19.298 -0.0524 -0.3386  0.0334
 2214TIP3    H130837   5.892   4.801  19.347  0.7515 -0.4566  0.8273
 2214TIP3    H230838   5.887   4.921  19.254 -0.7832  0.7535  2.4042
 2215TIP3   OH230839   5.007   2.000  18.990 -0.3064  0.5601  0.3514
 2215TIP3    H130840   5.053   1.928  18.945 -1.8983 -0.8329  0.8382
 2215TIP3    H230841   5.068   2.029  19.057  0.1278 -0.8538  0.6146
 2216TIP3   OH230842   1.762   3.709  16.901  0.7351  0.4768  0.1854
 2216TIP3    H130843   1.770   3.684  16.809  0.9136 -1.8726  0.7514
 2216TIP3    H230844   1.821   3.649  16.947 -0.8328  0.2051  1.9922
 2217TIP3   OH230845   6.104   4.099  17.784 -0.9280  0.2647 -0.3588
 2217TIP3    H130846   6.015   4.135  17.784 -0.7605  0.7040  0.2737
 2217TIP3    H230847   6.122   4.081  17.877 -0.4730 -0.1140 -0.5181
 2218TIP3   OH230848   4.013   6.381  17.529 -0.6690  0.0073  0.4302
 2218TIP3    H130849   3.944   6.429  17.576  0.8311  2.7211  0.0893
 2218TIP3    H230850   4.000   6.403  17.437 -0.9281 -1.6826  0.0322
 2219TIP3   OH230851   5.077   5.395  18.185 -0.2155 -0.4552  0.0162
 2219TIP3    H130852   5.131   5.387  18.107  1.5775 -0.0037  1.1399
 2219TIP3    H230853   5.055   5.489  18.189 -2.1494 -0.8098 -1.0594
 2220TIP3   OH230854   1.751   3.749  18.845 -0.0707  0.2025  0.8629
 2220TIP3    H130855   1.816   3.775  18.910 -0.3266 -2.3562  2.2942
 2220TIP3    H230856   1.669   3.788  18.877  0.2887  1.3507  0.4351
 2221TIP3   OH230857   3.395   2.981  19.329 -0.5198  0.2255 -0.2714
 2221TIP3    H130858   3.437   2.960  19.412  2.0474  1.7449 -1.0830
 2221TIP3    H230859   3.310   3.018  19.354 -0.6997 -1.2222  1.5247
 2222TIP3   OH230860   0.002   3.415  18.617 -0.4367  0.2036  0.5004
 2222TIP3    H130861  -0.030   3.346  18.559 -0.2175  0.5660 -0.0605
 2222TIP3    H230862  -0.019   3.496  18.571  0.0254  0.4857  0.7817
 2223TIP3   OH230863   6.454   0.703  18.011  0.1634  0.2648  0.5235
 2223TIP3    H130864   6.499   0.624  18.040 -0.6911  0.1906  1.6891
 2223TIP3    H230865   6.379   0.712  18.070 -0.6866  1.0383 -0.6230
 2224TIP3   OH230866   6.055   6.524  16.857  0.2033  0.1227  0.4084
 2224TIP3    H130867   6.007   6.494  16.934  1.1287  0.4733  1.1578
 2224TIP3    H230868   6.128   6.575  16.894  0.4011  0.6880 -0.7195
 2225TIP3   OH230869   6.263   1.608  18.922 -0.2364  0.2148 -0.3145
 2225TIP3    H130870   6.271   1.695  18.961  2.7371 -0.5817  1.1473
 2225TIP3    H230871   6.338   1.601  18.862 -0.4791 -1.2881 -0.4937
 2226TIP3   OH230872   4.006   0.009  18.072  0.8809  0.1701  0.4995
 2226TIP3    H130873   3.989   0.088  18.020 -1.1647 -0.1880  0.5598
 2226TIP3    H230874   4.056   0.040  18.147 -1.7390  1.8567  1.6802
 2227TIP3   OH230875   0.644   6.558  18.891  0.9250 -0.2975 -0.2401
 2227TIP3    H130876   0.739   6.554  18.894  1.0451  0.4039  4.3083
 2227TIP3    H230877   0.617   6.466  18.891  1.5041 -0.5061 -1.8418
 2228TIP3   OH230878   2.536   0.620  16.937  0.0813  0.2164 -0.0666
 2228TIP3    H130879   2.618   0.664  16.916 -1.1739  2.1993 -1.0902
 2228TIP3    H230880   2.559   0.560  17.008  2.3177  0.9508 -0.0762
 2229TIP3   OH230881   1.979   1.893  18.940  0.3188  0.0926  0.1895
 2229TIP3    H130882   1.894   1.848  18.942  1.4025 -2.1344 -0.0820
 2229TIP3    H230883   1.998   1.903  18.847  0.0590  1.2325  0.2524
 2230TIP3   OH230884   3.318   4.567  17.614  0.0070  0.6750  0.0268
 2230TIP3    H130885   3.249   4.545  17.550 -0.5726  3.0086 -0.2391
 2230TIP3    H230886   3.397   4.578  17.561 -0.1201  1.0364 -0.0935
 2231TIP3   OH230887   2.500   5.297  17.880  0.4463  0.1207 -0.0352
 2231TIP3    H130888   2.438   5.305  17.808 -1.4587 -0.2067  1.4755
 2231TIP3    H230889   2.496   5.382  17.924  3.0367  1.0103 -1.3228
 2232TIP3   OH230890   0.325   4.229  17.378  0.3049 -0.1254 -0.1229
 2232TIP3    H130891   0.230   4.239  17.377  0.4554  1.3727 -0.3348
 2232TIP3    H230892   0.353   4.270  17.460  0.7546 -0.8344  0.0921
 2233TIP3   OH230893   4.241   5.450  19.474  0.9701 -0.1951  0.5975
 2233TIP3    H130894   4.197   5.523  19.518  1.0176  0.2938 -0.1476
 2233TIP3    H230895   4.180   5.377  19.484 -0.3637  0.6285 -0.9586
 2234TIP3   OH230896   0.406   6.088  16.671 -0.0925 -0.3481  0.2863
 2234TIP3    H130897   0.324   6.092  16.620  0.6769  1.1865 -0.9408
 2234TIP3    H230898   0.412   5.997  16.699 -1.6018 -0.7886 -0.6507
 2235TIP3   OH230899   0.043   4.268  17.425 -0.0045 -0.1469 -0.0482
 2235TIP3    H130900   0.050   4.173  17.437  1.0046  0.1349  1.9594
 2235TIP3    H230901  -0.044   4.289  17.459 -0.0220 -0.2802 -0.0081
 2236TIP3   OH230902   5.067   4.860  18.817  0.3121  0.4333 -0.5837
 2236TIP3    H130903   5.059   4.775  18.774  0.1874  0.9899 -1.7221
 2236TIP3    H230904   5.159   4.883  18.809  0.6650 -0.2621  1.1028
 2237TIP3   OH230905   0.854   6.276  18.964 -0.1699  0.1554  0.1776
 2237TIP3    H130906   0.821   6.350  19.015 -2.1123  0.3012 -1.2034
 2237TIP3    H230907   0.793   6.205  18.983  0.0801 -0.2844 -0.6276
 2238TIP3   OH230908   0.922   2.750  17.728 -0.2515  0.1455 -0.1521
 2238TIP3    H130909   0.944   2.732  17.637 -0.8845  0.1168 -0.2998
 2238TIP3    H230910   0.860   2.682  17.752 -1.4665  1.1738 -0.2512
 2239TIP3   OH230911   5.688   0.040  19.625  0.0900 -0.3733  0.0581
 2239TIP3    H130912   5.726   0.082  19.548  0.0671 -0.3450  0.0619
 2239TIP3    H230913   5.612   0.094  19.646  0.4225 -0.0482  0.4437
 2240TIP3   OH230914   4.476   3.252  17.383 -0.7264  0.2343 -0.3747
 2240TIP3    H130915   4.534   3.240  17.309  0.0789 -0.5793  0.3630
 2240TIP3    H230916   4.470   3.347  17.394  2.0080  0.3834  0.6540
 2241TIP3   OH230917   2.310   0.634  18.182  0.1666  0.3485 -0.1491
 2241TIP3    H130918   2.340   0.544  18.167 -0.0360  0.2711 -0.1019
 2241TIP3    H230919   2.361   0.687  18.121 -0.9790 -0.0172 -1.4750
 2242TIP3   OH230920   5.643   5.945  17.948  0.0950 -0.0514 -0.1567
 2242TIP3    H130921   5.683   5.864  17.917  2.9267  1.6455 -1.3047
 2242TIP3    H230922   5.593   5.977  17.873 -1.9135 -1.1560  0.6325
 2243TIP3   OH230923   2.242   3.050  19.820 -0.7647 -0.3501 -0.6203
 2243TIP3    H130924   2.156   3.015  19.800 -0.0641 -1.1863 -2.4772
 2243TIP3    H230925   2.279   3.073  19.734 -0.1929  2.6319  0.3154
 2244TIP3   OH230926   6.052   0.589  18.453 -0.4947 -0.3010  0.6202
 2244TIP3    H130927   6.026   0.600  18.362  0.4046  0.2774  0.4166
 2244TIP3    H230928   6.136   0.543  18.449  1.0517  2.3086  0.9741
 2245TIP3   OH230929   4.364   4.155  18.016 -0.4374 -0.0188  0.5327
 2245TIP3    H130930   4.318   4.121  18.092 -0.2721  0.3330  0.7936
 2245TIP3    H230931   4.304   4.221  17.979  0.3063  1.2591  1.5322
 2246TIP3   OH230932   1.858   2.128  18.564 -0.1049 -0.1133 -0.1127
 2246TIP3    H130933   1.920   2.058  18.587 -0.5811 -0.5046 -0.0116
 2246TIP3    H230934   1.856   2.183  18.642 -0.8543 -0.8133  0.3760
 2247TIP3   OH230935   0.559   0.312  17.551 -0.1470  0.0773  0.0008
 2247TIP3    H130936   0.503   0.388  17.532 -0.5264  0.1148  1.2200
 2247TIP3    H230937   0.537   0.288  17.641 -0.8091 -2.1562 -0.6964
 2248TIP3   OH230938   1.394   0.690  18.090  0.1363 -0.3932  0.2316
 2248TIP3    H130939   1.321   0.665  18.034  0.2297  1.0034 -0.5430
 2248TIP3    H230940   1.447   0.610  18.098  0.2086 -0.6041 -1.8014
 2249TIP3   OH230941   3.241   1.477  16.872  0.3154  0.0487  0.7923
 2249TIP3    H130942   3.171   1.415  16.851  0.4880  0.3427 -0.8377
 2249TIP3    H230943   3.315   1.421  16.897  0.5907 -0.4862 -1.0371
 2250TIP3   OH230944   0.996   3.858  19.715 -0.1932  0.0492  0.9589
 2250TIP3    H130945   0.962   3.946  19.730 -1.6064 -0.3138  0.0832
 2250TIP3    H230946   1.088   3.871  19.693 -0.9866  1.6234 -1.9968
 2251TIP3   OH230947   0.007   1.432  16.462  0.7142 -0.2056  0.3008
 2251TIP3    H130948  -0.081   1.449  16.495  1.1418  0.7241  0.9959
 2251TIP3    H230949  -0.004   1.362  16.398 -0.4585 -0.4433  0.7523
 2252TIP3   OH230950   4.913   1.253  18.100  0.2282  0.0648 -0.1408
 2252TIP3    H130951   4.949   1.172  18.136 -0.8343 -0.6340 -0.5995
 2252TIP3    H230952   4.970   1.322  18.134 -0.1291 -0.6507  2.0476
 2253TIP3   OH230953   4.835   2.625  19.524  0.2131  0.3609 -0.2103
 2253TIP3    H130954   4.847   2.716  19.552 -0.4494 -0.1292  1.8527
 2253TIP3    H230955   4.914   2.581  19.553 -0.6056 -0.2149  1.2487
 2254TIP3   OH230956   5.401   4.949  19.601 -0.0093  0.5320 -0.5365
 2254TIP3    H130957   5.394   4.988  19.513 -2.2970  3.6474  0.8397
 2254TIP3    H230958   5.326   4.985  19.648  0.0430 -2.5608  2.1995
 2255TIP3   OH230959   0.712   0.322  18.290  0.2410  0.1156 -0.2877
 2255TIP3    H130960   0.677   0.401  18.332 -0.7750 -1.0881  1.3057
 2255TIP3    H230961   0.780   0.292  18.350 -0.3868 -0.9805 -0.0988
 2256TIP3   OH230962   6.222   5.634  16.706  0.4904  0.4895 -0.2450
 2256TIP3    H130963   6.235   5.584  16.625 -0.4095 -0.4783  0.1830
 2256TIP3    H230964   6.138   5.604  16.740  2.2491 -1.6809  2.7944
 2257TIP3   OH230965   0.925   1.252  16.116  0.4674 -0.1440  0.4030
 2257TIP3    H130966   0.919   1.256  16.211  0.8692  0.7629  0.3938
 2257TIP3    H230967   1.019   1.256  16.097  0.3961 -0.3874 -0.0330
 2258TIP3   OH230968   5.235   4.293  18.623 -0.0497  0.4704  0.2530
 2258TIP3    H130969   5.243   4.382  18.588 -1.7185  0.6236  0.1790
 2258TIP3    H230970   5.141   4.277  18.626  0.1810 -0.8529  1.4155
 2259TIP3   OH230971   0.545   0.804  19.700 -0.2365 -0.0689 -0.3706
 2259TIP3    H130972   0.622   0.843  19.741 -0.6501  0.0656  0.2998
 2259TIP3    H230973   0.579   0.728  19.652  0.4664  0.6456 -1.0473
 2260TIP3   OH230974   0.482   2.231  18.260  0.1467 -0.3056  0.0583
 2260TIP3    H130975   0.432   2.149  18.262  1.2289 -1.0257 -0.9310
 2260TIP3    H230976   0.555   2.213  18.201  0.4614  1.3607 -0.1065
 2261TIP3   OH230977   2.291   0.826  19.160  0.3184 -0.0798  0.4553
 2261TIP3    H130978   2.236   0.884  19.107 -0.8604 -0.0348  1.6843
 2261TIP3    H230979   2.355   0.885  19.200  0.2292  0.1069  0.3253
 2262TIP3   OH230980   2.372   3.602  17.471 -0.8697  0.1749 -0.1823
 2262TIP3    H130981   2.457   3.559  17.474 -0.3734  1.1424 -0.0121
 2262TIP3    H230982   2.309   3.533  17.495  0.1979  0.3376  3.7226
 2263TIP3   OH230983   2.697   0.398  18.010 -0.1906  0.0498 -0.6960
 2263TIP3    H130984   2.700   0.412  17.916 -0.9104  0.4173 -0.6686
 2263TIP3    H230985   2.788   0.386  18.036 -0.0763 -1.3678 -1.6278
 2264TIP3   OH230986   5.808   6.566  19.439 -0.2887  0.1405  0.6052
 2264TIP3    H130987   5.834   6.550  19.529  0.1256  0.1128  0.4837
 2264TIP3    H230988   5.888   6.596  19.396  0.2261 -2.3756 -0.3843
 2265TIP3   OH230989   5.498   6.055  16.450  0.1439  0.1848 -0.0109
 2265TIP3    H130990   5.580   6.009  16.464  0.9874  1.1427 -1.5179
 2265TIP3    H230991   5.524   6.143  16.423 -1.3602  0.2739 -1.3076
 2266TIP3   OH230992   2.168   3.581  19.896  0.1156 -0.4919  0.0603
 2266TIP3    H130993   2.186   3.531  19.975 -0.8735  0.8579  1.1788
 2266TIP3    H230994   2.193   3.522  19.824  1.5651 -1.5274  1.3569
 2267TIP3   OH230995   1.042   3.583  19.075 -0.3391  0.5251  0.2361
 2267TIP3    H130996   1.087   3.504  19.105 -1.0128  0.0155 -0.0570
 2267TIP3    H230997   1.027   3.568  18.981 -0.5715  0.9530  0.2013
 2268TIP3   OH230998   3.116   2.789  17.892 -0.3869 -0.6672 -0.3983
 2268TIP3    H130999   3.130   2.806  17.799  1.7772 -0.3908 -0.0743
 2268TIP3    H231000   3.096   2.695  17.897  0.8537 -0.9819 -1.0419
 2269TIP3   OH231001   6.436   1.246  16.070  0.9504  0.4313 -0.0596
 2269TIP3    H131002   6.516   1.228  16.020  1.4445 -1.8639  1.4049
 2269TIP3    H231003   6.409   1.161  16.104 -1.2094  1.4061  0.8635
 2270TIP3   OH231004   5.931   0.658  17.713  0.4948 -0.0382 -0.1934
 2270TIP3    H131005   5.995   0.721  17.747 -0.4508 -0.3499  2.3676
 2270TIP3    H231006   5.856   0.712  17.688  0.7881  0.0955 -0.8061
 2271TIP3   OH231007   0.140   2.653  19.458 -0.1056 -0.0848  0.3262
 2271TIP3    H131008   0.173   2.697  19.536  0.2606 -0.3753  0.3395
 2271TIP3    H231009   0.167   2.709  19.385  0.9158 -0.6049  0.2944
 2272TIP3   OH231010   5.608   2.086  18.192  0.2646  0.4850  0.0830
 2272TIP3    H131011   5.527   2.037  18.197  1.0901 -1.1162 -1.1090
 2272TIP3    H231012   5.661   2.038  18.128  2.4198  1.0542  1.3377
 2273TIP3   OH231013   2.170   1.536  19.583 -0.5824  0.4355  0.1317
 2273TIP3    H131014   2.096   1.551  19.642 -0.2397 -0.2692  0.7443
 2273TIP3    H231015   2.155   1.448  19.548  0.7274 -0.3326  1.3966
 2274TIP3   OH231016   3.721   1.717  19.155 -0.1412 -0.0905 -0.0439
 2274TIP3    H131017   3.663   1.768  19.212  0.7882  0.5952  0.3084
 2274TIP3    H231018   3.694   1.741  19.066  0.5118  1.3264  0.1074
 2275TIP3   OH231019   5.963   2.232  17.111 -0.4404 -0.6040  0.0908
 2275TIP3    H131020   6.055   2.207  17.119 -0.7111 -1.6283  0.1415
 2275TIP3    H231021   5.957   2.317  17.154  0.3145 -0.9316  0.8705
 2276TIP3   OH231022   3.677   3.202  18.870  0.9973  0.1333 -0.3694
 2276TIP3    H131023   3.630   3.230  18.949 -0.2300 -0.3866 -0.8939
 2276TIP3    H231024   3.643   3.259  18.801 -0.1899 -1.4180 -1.1017
 2277TIP3   OH231025   3.676   1.255  19.618 -0.5879 -0.7011  0.1990
 2277TIP3    H131026   3.589   1.221  19.595  0.4172 -2.5344 -1.1307
 2277TIP3    H231027   3.673   1.347  19.591 -2.4170 -0.4231  1.1451
 2278TIP3   OH231028   2.252   3.297  18.046 -0.2013 -0.1604  0.1555
 2278TIP3    H131029   2.244   3.203  18.027 -2.7211 -0.5904  2.5462
 2278TIP3    H231030   2.238   3.340  17.962 -0.5459 -1.9026 -0.7331
 2279TIP3   OH231031   6.231   2.979  19.444  0.0858 -0.2076 -0.4450
 2279TIP3    H131032   6.285   2.923  19.389 -1.1527  0.5577 -2.5751
 2279TIP3    H231033   6.143   2.943  19.437 -0.5995  1.4977 -1.2548
 2280TIP3   OH231034   1.802   2.679  18.844  0.6550  0.0549  0.0771
 2280TIP3    H131035   1.825   2.749  18.784  2.2374  0.0862  0.6702
 2280TIP3    H231036   1.882   2.664  18.895 -0.0685 -1.2460  0.8825
 2281TIP3   OH231037   4.337   4.266  19.229 -0.6709  0.4819 -0.6884
 2281TIP3    H131038   4.372   4.242  19.143 -0.7306  0.1126 -0.6113
 2281TIP3    H231039   4.267   4.204  19.245  2.0941 -2.4024  1.5466
 2282TIP3   OH231040   6.219   5.730  19.368 -0.1941 -0.3476  0.6137
 2282TIP3    H131041   6.195   5.779  19.289  0.8548  0.4793  0.7925
 2282TIP3    H231042   6.247   5.797  19.431  1.8560 -1.1611  0.6612
 2283TIP3   OH231043   5.982   5.605  19.135 -0.0056  0.3464  0.1553
 2283TIP3    H131044   5.929   5.666  19.186  0.3713  0.5005  0.3696
 2283TIP3    H231045   6.061   5.656  19.112  0.1960  0.0193  0.1178
 2284TIP3   OH231046   4.123   2.238  18.971 -0.1886  0.2360 -0.0701
 2284TIP3    H131047   4.075   2.184  19.034  0.0946 -0.9410 -0.8264
 2284TIP3    H231048   4.067   2.313  18.955 -2.5016 -1.7277 -1.9632
 2285TIP3   OH231049   0.809   2.063  18.920 -0.5403 -0.0481 -0.1944
 2285TIP3    H131050   0.801   2.008  18.998  1.6340 -0.5834 -0.2793
 2285TIP3    H231051   0.809   2.153  18.953 -0.6659 -0.2381  0.3227
 2286TIP3   OH231052   5.601   2.264  17.933  0.5717  0.1998  0.7990
 2286TIP3    H131053   5.617   2.225  17.847  2.5724  0.1039  1.1712
 2286TIP3    H231054   5.613   2.192  17.995 -0.6145  0.3229  1.1969
 2287TIP3   OH231055   6.462   1.862  18.195 -0.1438 -0.3279  0.4987
 2287TIP3    H131056   6.388   1.919  18.214  0.1081 -0.3971  1.7348
 2287TIP3    H231057   6.422   1.781  18.164 -0.5396  0.0734 -0.0512
 2288TIP3   OH231058   6.431   4.006  17.294  0.1211  0.0307  0.2665
 2288TIP3    H131059   6.359   4.046  17.342 -0.2550 -0.3917  0.0686
 2288TIP3    H231060   6.466   4.076  17.239  0.0173  0.2988  0.5429
 2289TIP3   OH231061   5.212   4.690  17.388 -0.4149 -0.4652 -0.4401
 2289TIP3    H131062   5.242   4.705  17.478 -0.6657 -0.7215 -0.3126
 2289TIP3    H231063   5.119   4.713  17.390 -0.1401  0.8001 -0.9454
 2290TIP3   OH231064   6.533   1.634  17.599  1.2337 -0.5495 -0.2842
 2290TIP3    H131065   6.503   1.725  17.607  0.5647 -0.6942 -0.9799
 2290TIP3    H231066   6.612   1.630  17.652  0.7986  0.2230  0.4576
 2291TIP3   OH231067   0.638   4.153  17.711  0.3273  0.0004 -0.0052
 2291TIP3    H131068   0.679   4.238  17.727  0.8887  0.2202 -2.2615
 2291TIP3    H231069   0.617   4.154  17.617  0.2585 -2.3039 -0.0683
 2292TIP3   OH231070   0.879   4.989  19.520 -0.8220  0.0657 -0.0988
 2292TIP3    H131071   0.960   4.955  19.559  1.2201  0.8047 -3.2786
 2292TIP3    H231072   0.869   4.941  19.438 -2.7086  1.1191 -0.5545
 2293TIP3   OH231073   0.133   5.519  17.662 -0.1037  0.0533  0.1691
 2293TIP3    H131074   0.048   5.507  17.704 -0.4726  0.7223 -0.3767
 2293TIP3    H231075   0.161   5.430  17.641 -0.6848 -0.1715  0.3100
 2294TIP3   OH231076   3.378   3.968  20.194  0.5952 -0.0982 -0.8253
 2294TIP3    H131077   3.433   3.889  20.194  2.1649  0.9413 -1.1803
 2294TIP3    H231078   3.362   3.986  20.102 -0.6129 -0.5348 -0.7197
 2295TIP3   OH231079   6.540   2.456  19.257 -0.2733  0.1324 -0.1134
 2295TIP3    H131080   6.463   2.442  19.201 -0.7875  0.1779  0.5740
 2295TIP3    H231081   6.592   2.376  19.247 -1.1429 -0.5403  0.5541
 2296TIP3   OH231082   1.114   1.417  17.628 -0.3200 -0.3758 -0.5021
 2296TIP3    H131083   1.053   1.485  17.599 -0.7881  0.1034  1.4570
 2296TIP3    H231084   1.198   1.462  17.637 -0.9854  0.4555  2.4363
 2297TIP3   OH231085   6.052   1.111  19.254  0.5170  0.1952  0.1924
 2297TIP3    H131086   5.980   1.073  19.204  0.2438  2.5402 -1.3719
 2297TIP3    H231087   6.129   1.101  19.198  1.1455 -1.0096  1.2304
 2298TIP3   OH231088   6.194   5.045  16.231 -0.1642 -0.0593 -0.2287
 2298TIP3    H131089   6.164   4.966  16.185 -0.7004  0.7507 -1.3122
 2298TIP3    H231090   6.121   5.070  16.287 -0.1754 -0.0728 -0.2372
 2299TIP3   OH231091   5.872   1.820  19.263 -0.0139 -0.0044 -0.3784
 2299TIP3    H131092   5.887   1.772  19.344 -0.3365 -1.6001 -1.2325
 2299TIP3    H231093   5.887   1.756  19.194 -0.9235  1.0094 -1.5564
 2300TIP3   OH231094   2.506   5.694  19.187 -0.2435  0.1173 -0.5869
 2300TIP3    H131095   2.427   5.641  19.193 -0.7164  0.9340  1.0551
 2300TIP3    H231096   2.565   5.656  19.253  1.1220 -1.0125 -2.3581
 2301TIP3   OH231097   6.304   0.983  16.139  0.1933 -0.2401 -0.1715
 2301TIP3    H131098   6.249   0.910  16.166 -0.9735  0.7946  0.3869
 2301TIP3    H231099   6.393   0.957  16.163 -0.2803 -1.1757  0.6568
 2302TIP3   OH231100   4.484   2.252  18.217  0.2910 -0.3675  1.0252
 2302TIP3    H131101   4.489   2.157  18.209 -0.5017 -0.3267 -0.3214
 2302TIP3    H231102   4.431   2.267  18.295  0.4918 -1.0284  1.2949
 2303TIP3   OH231103   6.222   4.529  17.052  0.1683 -0.1850 -0.0532
 2303TIP3    H131104   6.180   4.613  17.033 -1.0862 -0.8210 -0.1621
 2303TIP3    H231105   6.284   4.517  16.979 -0.9298 -0.1876 -1.0080
 2304TIP3   OH231106   5.076   2.455  19.265 -0.1616 -0.0381 -0.3373
 2304TIP3    H131107   5.011   2.398  19.224  1.5482 -0.4145 -2.7930
 2304TIP3    H231108   5.101   2.410  19.346 -1.1558 -1.1246 -0.6179
 2305TIP3   OH231109   5.853   0.485  19.121  0.4429 -0.6726  0.4473
 2305TIP3    H131110   5.814   0.484  19.034  0.2831 -1.1563  0.5188
 2305TIP3    H231111   5.934   0.535  19.111  0.7161 -1.2105 -0.1105
 2306TIP3   OH231112   6.309   0.234  19.834  0.1225 -0.1636  0.4127
 2306TIP3    H131113   6.335   0.318  19.798  0.2412 -0.4701 -0.2265
 2306TIP3    H231114   6.228   0.212  19.787  0.1134 -0.4276  0.5495
 2307TIP3   OH231115   4.627   4.474  17.565  0.3350 -0.6026  0.2896
 2307TIP3    H131116   4.623   4.550  17.623 -2.1570 -1.0678  0.8850
 2307TIP3    H231117   4.649   4.401  17.623  0.8798 -0.6196  0.0665
 2308TIP3   OH231118   5.758   4.176  17.497 -0.0059  0.1757  0.4376
 2308TIP3    H131119   5.800   4.111  17.442 -0.7940 -0.2095  0.2811
 2308TIP3    H231120   5.829   4.211  17.551  1.1296  1.7551 -1.9160
 2309TIP3   OH231121   3.568   5.907  17.112  0.2551 -0.3633  0.3771
 2309TIP3    H131122   3.522   5.946  17.038 -1.3192 -3.5919 -0.5540
 2309TIP3    H231123   3.655   5.888  17.079 -0.2714 -1.2895 -0.5560
 2310TIP3   OH231124   3.238   5.226  17.491 -0.4652 -0.1043 -0.0440
 2310TIP3    H131125   3.204   5.309  17.459 -0.6089 -0.7633 -1.7217
 2310TIP3    H231126   3.194   5.160  17.438  1.8782 -1.0969 -0.8987
 2311TIP3   OH231127   5.565   5.952  18.657 -0.1512  0.4980 -0.0486
 2311TIP3    H131128   5.471   5.965  18.670 -0.1939 -1.0246  1.4159
 2311TIP3    H231129   5.571   5.898  18.578 -0.5210  0.1232  0.1833
 2312TIP3   OH231130   5.765   3.883  17.144 -0.7026 -0.2232  0.0269
 2312TIP3    H131131   5.749   3.949  17.076 -1.9744  0.8179  1.2597
 2312TIP3    H231132   5.857   3.894  17.167 -0.4946  0.0273 -0.8872
 2313TIP3   OH231133   0.738   2.274  17.508 -0.6318 -0.0925 -0.0440
 2313TIP3    H131134   0.674   2.251  17.441 -0.9668  0.3724  0.1049
 2313TIP3    H231135   0.791   2.195  17.519 -0.3433 -0.0640 -1.1015
 2314TIP3   OH231136   6.616   4.593  18.529  0.4439  0.0195 -0.7499
 2314TIP3    H131137   6.598   4.522  18.591  0.2793 -0.7081 -1.6002
 2314TIP3    H231138   6.549   4.583  18.462  0.9108  0.4886 -1.2971
 2315TIP3   OH231139   1.298   1.750  19.937 -0.0753 -0.1041 -0.3160
 2315TIP3    H131140   1.354   1.720  19.865  0.8101  0.4831  0.1198
 2315TIP3    H231141   1.230   1.802  19.894  1.5103  1.8377 -0.6118
 2316TIP3   OH231142   5.101   0.978  18.641 -0.2434  0.6624  0.2079
 2316TIP3    H131143   5.033   0.918  18.609  0.0756 -0.4391  1.5180
 2316TIP3    H231144   5.183   0.934  18.619  0.0028  0.8750  0.6941
 2317TIP3   OH231145   2.308   1.000  17.986 -0.6342 -0.4972 -0.1139
 2317TIP3    H131146   2.230   0.974  17.938  0.4464  0.2481 -2.4008
 2317TIP3    H231147   2.299   1.095  17.999 -0.9429 -0.6950  1.2708
 2318TIP3   OH231148   1.143   4.879  16.900 -0.4762 -0.2699 -0.1012
 2318TIP3    H131149   1.085   4.805  16.882 -0.6217 -0.1680 -0.0456
 2318TIP3    H231150   1.230   4.840  16.905 -0.2613 -0.1770 -2.1506
 2319TIP3   OH231151   5.775   5.110  18.712 -0.5119  0.0251 -0.5060
 2319TIP3    H131152   5.797   5.139  18.800 -1.1144 -0.0508 -0.3308
 2319TIP3    H231153   5.734   5.025  18.723 -0.9062  0.1669 -0.8264
 2320TIP3   OH231154   6.105   3.095  17.042 -0.8594  0.4834 -0.1028
 2320TIP3    H131155   6.144   3.168  16.993 -0.2246  1.1966  1.3797
 2320TIP3    H231156   6.082   3.031  16.975 -2.8722  2.6477 -1.6737
 2321TIP3   OH231157   1.595   4.639  17.339  0.3707  0.2112  0.6252
 2321TIP3    H131158   1.596   4.733  17.356  0.3518  0.1129  1.1743
 2321TIP3    H231159   1.632   4.600  17.418  0.5507 -0.2327  0.3249
 2322TIP3   OH231160   3.218   2.854  18.146 -0.6267 -0.1453 -0.2237
 2322TIP3    H131161   3.288   2.904  18.104 -2.5256  1.7780 -1.2956
 2322TIP3    H231162   3.184   2.798  18.077  1.5608 -3.2194  1.0019
 2323TIP3   OH231163   2.558   3.844  17.406 -0.2589  0.0871  0.0553
 2323TIP3    H131164   2.483   3.806  17.452  0.4723 -1.6422 -0.1222
 2323TIP3    H231165   2.528   3.853  17.315 -0.4539 -0.0441  0.1056
 2324TIP3   OH231166   2.302   1.401  18.138  0.6618  0.0019 -0.6452
 2324TIP3    H131167   2.255   1.328  18.097  0.2119 -0.1528  0.1055
 2324TIP3    H231168   2.391   1.368  18.152  0.5413 -0.3005 -0.5798
 2325TIP3   OH231169   5.879   4.114  18.603  0.4997 -0.2443  0.5370
 2325TIP3    H131170   5.931   4.112  18.523 -0.2185  0.3802  0.0504
 2325TIP3    H231171   5.873   4.207  18.626 -0.0307 -0.3471  0.8360
 2326TIP3   OH231172   5.146   1.441  19.402 -0.4145 -0.4042 -0.3028
 2326TIP3    H131173   5.151   1.490  19.319  2.4108  0.0567  0.0345
 2326TIP3    H231174   5.073   1.481  19.449  0.8969  2.6427 -0.6257
 2327TIP3   OH231175   1.581   3.380  19.620  0.4398  0.3821 -0.0577
 2327TIP3    H131176   1.664   3.400  19.662  0.4091 -1.2160  0.8712
 2327TIP3    H231177   1.600   3.381  19.526  1.4032  0.4599  0.1354
 2328TIP3   OH231178   1.150   4.260  19.733  0.0711  0.1921 -0.8050
 2328TIP3    H131179   1.090   4.198  19.775 -0.2060  1.4255  0.7562
 2328TIP3    H231180   1.100   4.342  19.729  1.3495  1.0354 -0.2337
 2329TIP3   OH231181   5.573   0.214  18.251  0.5805 -0.6341 -0.4004
 2329TIP3    H131182   5.647   0.266  18.220 -0.2050 -0.0822 -1.3919
 2329TIP3    H231183   5.570   0.231  18.345 -0.1050  1.7449 -0.7912
 2330TIP3   OH231184   5.346   2.943  18.299 -0.0674 -0.2100 -0.1833
 2330TIP3    H131185   5.397   3.006  18.351 -1.5634  1.4478 -0.6245
 2330TIP3    H231186   5.257   2.978  18.299 -0.8986 -2.1663 -0.7735
 2331TIP3   OH231187   2.185   0.254  17.678  0.4150 -0.3422 -0.4571
 2331TIP3    H131188   2.155   0.174  17.721 -0.3595  0.0974 -0.1450
 2331TIP3    H231189   2.224   0.225  17.596 -0.8980 -0.9605 -0.8879
 2332TIP3   OH231190   6.458   6.318  18.491 -0.2184 -0.0161  0.9196
 2332TIP3    H131191   6.525   6.322  18.423 -0.4197  1.2250  0.7799
 2332TIP3    H231192   6.506   6.323  18.573 -0.1105  0.4715  0.8278
 2333TIP3   OH231193   2.148   5.738  19.001  0.2313 -0.0927  0.4415
 2333TIP3    H131194   2.200   5.816  18.984  0.1513  0.0820  0.9795
 2333TIP3    H231195   2.076   5.743  18.938  1.1905 -0.6671 -0.7453
 2334TIP3   OH231196   0.096   6.150  19.688 -0.6199 -0.8691  0.3529
 2334TIP3    H131197   0.040   6.157  19.765 -0.8801 -0.0307  0.0980
 2334TIP3    H231198   0.046   6.191  19.617 -0.6916 -2.2731 -0.4389
 2335TIP3   OH231199   6.678   2.967  16.235  0.0243 -0.4166  1.0281
 2335TIP3    H131200   6.642   3.055  16.225  0.0299 -0.4996  0.2650
 2335TIP3    H231201   6.739   2.957  16.162  1.4380 -0.3685  2.1686
 2336TIP3   OH231202   3.834   2.622  17.797 -0.6781 -0.2655  0.1543
 2336TIP3    H131203   3.767   2.628  17.728 -0.7572  0.1134  0.2634
 2336TIP3    H231204   3.917   2.622  17.749 -0.7120  0.6291  0.0883
 2337TIP3   OH231205   4.900   5.227  17.991 -0.3604 -0.3986 -0.1850
 2337TIP3    H131206   4.967   5.275  18.040 -2.3135  2.6366 -0.2670
 2337TIP3    H231207   4.926   5.237  17.899  0.3893 -1.4755 -0.1196
 2338TIP3   OH231208   0.121   1.562  16.925  0.4112 -0.1942 -0.0159
 2338TIP3    H131209   0.136   1.656  16.938 -0.8226 -0.0916  0.8520
 2338TIP3    H231210   0.026   1.554  16.914  0.5483 -1.2931 -0.5611
 2339TIP3   OH231211   5.325   5.136  19.407  0.3035  0.4460 -0.0352
 2339TIP3    H131212   5.299   5.219  19.448 -0.7618  0.2179 -0.2138
 2339TIP3    H231213   5.368   5.162  19.326 -2.5680  0.8496 -1.5860
 2340TIP3   OH231214   5.227   0.331  18.536 -0.3806 -0.7624  0.1900
 2340TIP3    H131215   5.262   0.340  18.448  1.2980 -1.1668  0.7790
 2340TIP3    H231216   5.199   0.239  18.542  0.3039 -0.9644  0.3461
 2341TIP3   OH231217   2.286   2.834  17.790 -0.4782 -0.1324 -0.0440
 2341TIP3    H131218   2.224   2.769  17.755  1.3080 -1.9471 -0.0447
 2341TIP3    H231219   2.304   2.803  17.879  1.5740 -0.5913 -0.5678
 2342TIP3   OH231220   3.354   1.782  19.599 -0.2562 -0.3094 -0.3106
 2342TIP3    H131221   3.435   1.803  19.646 -0.1820 -1.5895  0.1767
 2342TIP3    H231222   3.298   1.858  19.612  0.9208  0.6638 -0.7883
 2343TIP3   OH231223   4.782   1.877  19.511  0.2170  0.3863 -0.0235
 2343TIP3    H131224   4.706   1.910  19.559 -1.2650  0.9515 -2.5324
 2343TIP3    H231225   4.779   1.782  19.523 -0.6551  0.4422  0.2777
 2344TIP3   OH231226   4.879   2.858  18.518  0.0868  0.6055  0.5768
 2344TIP3    H131227   4.910   2.945  18.544  0.3679  0.7593 -0.2668
 2344TIP3    H231228   4.867   2.812  18.601  3.3985  0.2359  0.9812
 2345TIP3   OH231229   2.906   0.461  18.313 -0.3051  0.3723 -0.5832
 2345TIP3    H131230   2.950   0.471  18.229 -1.0694 -1.8373 -1.2881
 2345TIP3    H231231   2.925   0.371  18.340 -0.9420  0.7110  1.1279
 2346TIP3   OH231232   2.129   2.038  19.866  0.1264 -0.0725  0.3575
 2346TIP3    H131233   2.154   2.130  19.856 -2.6761  0.5827 -1.9768
 2346TIP3    H231234   2.093   2.013  19.781 -1.1062 -2.7260  1.5268
 2347TIP3   OH231235   5.163   4.145  18.910  0.1259 -0.0800  0.2379
 2347TIP3    H131236   5.137   4.201  18.983 -1.4890  0.9197 -1.0266
 2347TIP3    H231237   5.251   4.176  18.887 -0.0974  0.8533  0.5903
 2348TIP3   OH231238   3.313   5.178  19.597 -0.0519 -0.0438  0.2171
 2348TIP3    H131239   3.396   5.151  19.635 -0.0153  0.1685  0.2893
 2348TIP3    H231240   3.260   5.205  19.672  0.0232  0.3813  0.1187
 2349TIP3   OH231241   1.007   2.260  18.351  0.4621  0.6972 -0.6230
 2349TIP3    H131242   0.934   2.297  18.401  0.8400  3.9587 -2.2442
 2349TIP3    H231243   1.081   2.259  18.412 -0.3629 -0.7233  0.4265
 2350TIP3   OH231244   2.811   3.408  18.707 -0.3932  0.0284  0.1597
 2350TIP3    H131245   2.825   3.368  18.621 -0.9384 -0.5523  0.3292
 2350TIP3    H231246   2.716   3.414  18.715 -0.6159 -3.6159  2.3037
 2351TIP3   OH231247   4.297   4.495  18.762  0.4077 -0.0947 -0.3281
 2351TIP3    H131248   4.348   4.559  18.812  2.9074 -2.3096  0.1802
 2351TIP3    H231249   4.288   4.534  18.675  0.0868  1.7731  0.4817
 2352TIP3   OH231250   0.671   3.489  20.205  0.0297  0.8215 -0.0898
 2352TIP3    H131251   0.718   3.535  20.275  0.6972 -0.9383  0.6811
 2352TIP3    H231252   0.706   3.399  20.208 -1.2803  0.2286 -1.4612
 2353TIP3   OH231253   3.452   2.807  18.375 -0.0537 -0.6352  0.1623
 2353TIP3    H131254   3.375   2.816  18.319  1.2313 -0.7355 -1.7257
 2353TIP3    H231255   3.439   2.723  18.420 -1.9217  0.2461  1.4074
 2354TIP3   OH231256   4.867   1.327  16.992  0.0382 -0.3396  0.4358
 2354TIP3    H131257   4.829   1.318  16.905  0.0498  0.7159  0.2999
 2354TIP3    H231258   4.792   1.323  17.051 -0.1631  0.5044  0.2540
 2355TIP3   OH231259   5.435   1.983  19.012  0.3685 -0.2051  0.1070
 2355TIP3    H131260   5.491   2.059  18.994 -0.7754  0.9327  1.1156
 2355TIP3    H231261   5.465   1.916  18.951  0.0911  1.7205 -2.3114
 2356TIP3   OH231262   4.933   3.169  17.456 -0.3068 -0.3439 -0.2817
 2356TIP3    H131263   4.871   3.111  17.412 -0.8499  0.8627 -1.1458
 2356TIP3    H231264   4.892   3.189  17.540 -0.0622 -1.2549  0.0810
 2357TIP3   OH231265   0.130   5.582  16.054 -0.2122 -0.1046 -0.0866
 2357TIP3    H131266   0.039   5.612  16.062 -0.1223  0.1882 -0.1466
 2357TIP3    H231267   0.123   5.490  16.029 -0.4958 -0.5751  1.6223
 2358TIP3   OH231268   0.462   2.763  18.147 -0.2437 -0.5505 -0.2684
 2358TIP3    H131269   0.488   2.671  18.155 -0.3088 -0.4252  2.0848
 2358TIP3    H231270   0.542   2.812  18.165 -0.8740 -0.1880  1.8424
 2359TIP3   OH231271   1.593   5.278  19.378  0.0236  0.0191 -0.0931
 2359TIP3    H131272   1.526   5.346  19.382 -1.0566 -1.0752  1.5303
 2359TIP3    H231273   1.581   5.238  19.291 -1.3421 -0.0505  0.1103
 2360TIP3   OH231274   5.288   4.271  17.732  0.4663 -0.4787 -0.1757
 2360TIP3    H131275   5.241   4.235  17.656 -0.9899  0.0613  0.4357
 2360TIP3    H231276   5.229   4.257  17.806  1.3204  0.1411  0.6548
 2361TIP3   OH231277   1.020   5.243  18.157  0.0352 -0.5714 -0.1390
 2361TIP3    H131278   0.952   5.288  18.207  0.5318  0.3735 -0.2908
 2361TIP3    H231279   0.972   5.200  18.086 -0.4444 -0.2294 -0.0303
 2362TIP3   OH231280   3.702   3.563  18.192  0.1936  0.0887 -0.8665
 2362TIP3    H131281   3.668   3.528  18.110  0.1365  0.7277 -1.1271
 2362TIP3    H231282   3.741   3.488  18.237 -0.1901 -0.3534 -1.2645
 2363TIP3   OH231283   6.740   3.019  19.563  0.8321 -0.3548  0.5439
 2363TIP3    H131284   6.738   3.102  19.514  1.4462 -1.3021 -1.1539
 2363TIP3    H231285   6.833   3.003  19.580  0.6392 -0.1463  1.8825
 2364TIP3   OH231286   0.128   4.169  18.970 -0.1789  0.2566 -0.2093
 2364TIP3    H131287   0.149   4.262  18.955  0.4019  0.1310 -0.2020
 2364TIP3    H231288   0.105   4.136  18.883 -1.2724  0.6192 -0.0666
 2365TIP3   OH231289   4.123   2.284  19.706 -0.0102  0.6861  0.4664
 2365TIP3    H131290   4.118   2.259  19.614  2.7736  1.4481  0.0155
 2365TIP3    H231291   4.093   2.207  19.753 -1.2815  0.2007 -1.0512
 2366TIP3   OH231292   4.315   4.024  16.849  0.2053 -0.1596 -0.1489
 2366TIP3    H131293   4.372   3.976  16.788 -0.3170 -0.8478 -0.1075
 2366TIP3    H231294   4.328   4.116  16.826  0.4882 -0.3744 -0.8862
 2367TIP3   OH231295   3.480   5.353  20.147 -0.0354 -0.0596 -0.2127
 2367TIP3    H131296   3.428   5.421  20.102  0.9041  0.7428 -0.1111
 2367TIP3    H231297   3.416   5.284  20.166 -1.3845  1.4592  1.1067
 2368TIP3   OH231298   6.466   5.568  17.384  0.0965  0.5334 -0.1110
 2368TIP3    H131299   6.400   5.543  17.320  0.4777  0.2418 -0.3918
 2368TIP3    H231300   6.544   5.589  17.332  0.7008 -0.6147  0.3028
 2369TIP3   OH231301   2.699   4.740  18.928  0.5473 -0.0695  0.0138
 2369TIP3    H131302   2.648   4.819  18.912  0.8678  0.5787  1.9548
 2369TIP3    H231303   2.660   4.701  19.006  1.3296 -1.0206 -0.0456
 2370TIP3   OH231304   3.767   0.020  17.069  0.4203 -0.0060 -0.0984
 2370TIP3    H131305   3.731  -0.039  17.002  0.7302  0.5908 -0.8120
 2370TIP3    H231306   3.724  -0.006  17.150 -1.0715  0.2006 -0.7975
 2371TIP3   OH231307   5.114   6.613  17.175  0.2485 -0.3022  0.1916
 2371TIP3    H131308   5.120   6.518  17.187  2.1817 -0.1613  0.6562
 2371TIP3    H231309   5.063   6.624  17.095  0.8919 -1.7577 -0.4419
 2372TIP3   OH231310   3.392   1.659  17.485  0.1960 -0.1193 -0.3190
 2372TIP3    H131311   3.403   1.735  17.542 -2.0770  0.8052 -1.0099
 2372TIP3    H231312   3.424   1.688  17.400 -0.2395 -0.1045 -0.4764
 2373TIP3   OH231313   3.557   2.065  17.365  0.0104 -0.4052 -0.2114
 2373TIP3    H131314   3.602   1.988  17.330  1.7047  0.0153  0.9202
 2373TIP3    H231315   3.477   2.030  17.405 -0.2094 -1.3091 -1.3796
 2374TIP3   OH231316   0.099   1.830  19.674 -0.0170 -0.5854  0.7736
 2374TIP3    H131317   0.056   1.747  19.651 -0.7135  0.0015 -0.1096
 2374TIP3    H231318   0.072   1.846  19.765 -1.0917 -0.6038  0.4732
 2375TIP3   OH231319   4.800   5.174  18.705  0.1058  0.4800 -0.2341
 2375TIP3    H131320   4.782   5.112  18.635  0.2807  1.0570 -0.7982
 2375TIP3    H231321   4.721   5.174  18.759  0.5200 -1.0668  0.4237
 2376TIP3   OH231322   4.306   4.754  17.878  0.0457  0.0669 -0.7978
 2376TIP3    H131323   4.345   4.697  17.944 -1.4543  0.9626  0.9467
 2376TIP3    H231324   4.226   4.710  17.851  0.5217 -0.1758 -1.9008
 2377TIP3   OH231325   3.707   2.238  17.208  0.5841 -0.5580 -0.7239
 2377TIP3    H131326   3.624   2.287  17.209  1.7495  1.5460  1.0459
 2377TIP3    H231327   3.685   2.154  17.248 -0.7033 -0.0148 -0.2153
 2378TIP3   OH231328   0.761   6.784  19.035 -0.1500 -0.0155 -0.1175
 2378TIP3    H131329   0.752   6.728  19.112 -0.6974  1.3193  0.8217
 2378TIP3    H231330   0.810   6.731  18.973  1.1031 -0.8291  1.4787
 2379TIP3   OH231331   5.727   3.010  16.691  0.4246 -0.7214 -0.0856
 2379TIP3    H131332   5.685   3.090  16.658 -1.0580 -1.6208 -0.4865
 2379TIP3    H231333   5.817   3.015  16.660  0.0520  0.2589 -1.0597
 2380TIP3   OH231334   3.240   1.913  19.172  0.3027 -0.1546 -0.2913
 2380TIP3    H131335   3.259   1.829  19.131  0.4192  0.2265 -1.0335
 2380TIP3    H231336   3.286   1.910  19.256  0.4866 -0.7379 -0.4060
 2381TIP3   OH231337   3.964   4.689  16.802  0.8354  0.8086  0.1290
 2381TIP3    H131338   3.962   4.782  16.783  0.3263  0.4229 -1.9954
 2381TIP3    H231339   4.035   4.654  16.748  0.3418 -0.1615  0.0735
 2382TIP3   OH231340   2.738   0.099  16.502  0.8958 -0.1619 -0.4835
 2382TIP3    H131341   2.784   0.016  16.495 -1.1713 -1.3677 -0.5959
 2382TIP3    H231342   2.727   0.113  16.596 -4.2836 -3.4756 -0.1739
 2383TIP3   OH231343   1.318   1.589  17.628 -0.1604  0.5541  0.5258
 2383TIP3    H131344   1.364   1.568  17.709 -1.6000 -0.1330  1.2061
 2383TIP3    H231345   1.343   1.679  17.608  2.0794 -0.0233  0.4029
 2384TIP3   OH231346   2.416   0.574  19.132 -0.9238  0.0377  1.1656
 2384TIP3    H131347   2.336   0.625  19.143 -0.1701  1.1530  1.6150
 2384TIP3    H231348   2.459   0.612  19.055 -1.0316 -0.8501  0.6507
 2385TIP3   OH231349   5.825   6.564  18.706  0.2664 -0.3112 -0.5351
 2385TIP3    H131350   5.820   6.532  18.616 -1.1587  3.3321 -1.9456
 2385TIP3    H231351   5.750   6.525  18.750 -1.3624  0.8245 -2.1433
 2386TIP3   OH231352   4.072   2.755  16.947  0.0738 -0.1499  0.1685
 2386TIP3    H131353   4.152   2.773  16.897 -0.7502  0.8538 -0.8350
 2386TIP3    H231354   4.039   2.673  16.910  0.7333 -0.6799  0.7294
 2387TIP3   OH231355   0.704   5.329  17.822  0.5230 -0.4029 -0.0821
 2387TIP3    H131356   0.734   5.413  17.856 -0.8041  0.4699 -1.0146
 2387TIP3    H231357   0.770   5.305  17.757  0.1672  0.6401 -0.8546
 2388TIP3   OH231358   1.446   6.151  17.454 -0.0422  0.8114  0.1969
 2388TIP3    H131359   1.407   6.064  17.455 -1.9026  1.5965 -0.4828
 2388TIP3    H231360   1.454   6.176  17.546  1.6941 -0.5335  0.4646
 2389TIP3   OH231361   5.068   5.162  18.816 -0.4477 -0.4140 -0.1747
 2389TIP3    H131362   5.067   5.068  18.830 -0.0428 -0.4930 -0.6423
 2389TIP3    H231363   4.998   5.177  18.752 -1.0071 -0.2981  0.4547
 2390TIP3   OH231364   3.257   2.586  19.772 -0.2588 -0.2896 -0.0588
 2390TIP3    H131365   3.261   2.674  19.809  1.3120 -0.1882 -0.3907
 2390TIP3    H231366   3.170   2.554  19.793 -0.9686  1.4709 -0.2176
 2391TIP3   OH231367   6.007   0.431  18.692 -0.2204 -0.8774 -0.3298
 2391TIP3    H131368   6.012   0.488  18.615 -2.1023  0.1317  0.2394
 2391TIP3    H231369   6.074   0.465  18.751 -1.3467  0.8066  0.0163
 2392TIP3   OH231370   3.602   3.864  17.784 -0.0784 -0.5491 -0.0416
 2392TIP3    H131371   3.671   3.908  17.834 -2.0755  1.0864  1.4257
 2392TIP3    H231372   3.637   3.776  17.768  2.3577  0.2267  0.5465
 2393TIP3   OH231373   0.027   2.717  16.233 -0.2713 -0.3902 -0.0209
 2393TIP3    H131374   0.004   2.788  16.172 -0.4487 -0.9703 -0.6422
 2393TIP3    H231375   0.122   2.714  16.232 -0.2888 -1.8554 -2.0173
 2394TIP3   OH231376   6.766   0.377  18.274 -0.0205  0.2234  0.1424
 2394TIP3    H131377   6.799   0.301  18.226  0.1959  0.2927  0.1820
 2394TIP3    H231378   6.809   0.372  18.360 -0.3512  0.1397  0.3038
 2395TIP3   OH231379   6.173   2.051  18.172 -0.2330  0.1270  0.4447
 2395TIP3    H131380   6.183   2.083  18.261 -1.7290  0.1351  0.6403
 2395TIP3    H231381   6.098   2.100  18.137 -0.8364 -1.1798 -0.1760
 2396TIP3   OH231382   2.069   3.139  17.717  0.2348 -0.4793  0.2552
 2396TIP3    H131383   2.044   3.231  17.722  1.3252 -0.1444 -0.2972
 2396TIP3    H231384   2.077   3.111  17.808  0.2593  0.0741  0.4248
 2397TIP3   OH231385   0.091   2.178  17.332 -0.5225 -0.4073 -0.3971
 2397TIP3    H131386   0.105   2.086  17.353  1.7560  0.1917  1.1009
 2397TIP3    H231387   0.113   2.184  17.239 -1.3115 -1.4441 -0.6768
 2398TIP3   OH231388   5.291   0.794  18.600 -0.2628  0.0212  0.0246
 2398TIP3    H131389   5.256   0.720  18.650 -0.2235  0.8935  1.3747
 2398TIP3    H231390   5.383   0.799  18.625 -0.0563  0.0102 -0.7149
 2399TIP3   OH231391   0.093   4.529  19.820  0.1801  0.7133 -0.7925
 2399TIP3    H131392   0.149   4.598  19.786  0.3154  0.6864 -0.6219
 2399TIP3    H231393   0.146   4.450  19.815  0.3679  0.7870 -0.0816
 2400TIP3   OH231394   0.091   2.129  18.315 -0.1706 -0.2501  0.2983
 2400TIP3    H131395   0.112   2.155  18.225 -0.7575  3.2307  1.0222
 2400TIP3    H231396  -0.003   2.112  18.313 -0.1651 -0.2726  0.2256
 2401TIP3   OH231397   4.170   6.483  17.123  0.6317 -0.1941 -0.1086
 2401TIP3    H131398   4.145   6.469  17.032  0.6655  0.4836 -0.2268
 2401TIP3    H231399   4.168   6.578  17.135 -3.1169 -0.3150  1.6319
 2402TIP3   OH231400   6.314   2.474  16.970 -0.0354 -0.0139 -0.4102
 2402TIP3    H131401   6.240   2.425  16.932  0.0351 -0.2363 -0.2638
 2402TIP3    H231402   6.300   2.564  16.941 -1.3314  0.3078  1.0440
 2403TIP3   OH231403   2.329   3.487  18.648 -0.1854 -0.1282 -0.0916
 2403TIP3    H131404   2.299   3.549  18.581 -0.7951  0.3485  0.6073
 2403TIP3    H231405   2.264   3.418  18.648  0.0769 -0.3754 -0.3289
 2404TIP3   OH231406   0.633   6.383  18.644 -0.0105  0.0179  0.0352
 2404TIP3    H131407   0.556   6.361  18.591 -0.2875  0.5161  0.2198
 2404TIP3    H231408   0.696   6.314  18.625 -0.8417 -0.9166  0.5944
 2405TIP3   OH231409   1.007   4.715  19.756  0.2084  0.0712 -0.0712
 2405TIP3    H131410   1.000   4.728  19.661  1.3223  1.0464 -0.0465
 2405TIP3    H231411   1.089   4.758  19.780 -0.2564  0.1847  1.4059
 2406TIP3   OH231412   3.619   5.757  17.431  0.0801  0.1629  0.1434
 2406TIP3    H131413   3.647   5.803  17.352 -0.9796  0.2464 -0.1959
 2406TIP3    H231414   3.672   5.795  17.501 -0.6437  1.7855 -0.1453
 2407TIP3   OH231415   0.052   0.599  18.760  0.4210 -0.0654  0.6423
 2407TIP3    H131416   0.008   0.677  18.796 -1.4938 -0.4940 -0.5896
 2407TIP3    H231417   0.007   0.525  18.802 -0.4989 -0.5283 -1.0644
 2408TIP3   OH231418   2.169   4.479  19.895  0.4280 -0.2259 -0.4637
 2408TIP3    H131419   2.129   4.424  19.828 -1.4350  1.5618 -0.9488
 2408TIP3    H231420   2.108   4.473  19.969  0.9157  0.0935 -0.0328
 2409TIP3   OH231421   5.373   2.790  19.104 -0.3937  0.0855 -0.0301
 2409TIP3    H131422   5.413   2.825  19.024 -0.0933 -0.9324 -0.3395
 2409TIP3    H231423   5.359   2.697  19.085 -1.1163  0.0174  0.7919
 2410TIP3   OH231424   6.345   4.917  16.478  0.0148 -0.0165  0.0865
 2410TIP3    H131425   6.379   4.908  16.389  1.6505 -2.0797  0.8234
 2410TIP3    H231426   6.264   4.866  16.478 -0.2453  0.3879 -0.3190
 2411TIP3   OH231427   4.519   2.555  16.919  0.3286  0.0168  0.5466
 2411TIP3    H131428   4.612   2.568  16.933  0.3147 -1.3136  2.1095
 2411TIP3    H231429   4.497   2.478  16.971 -1.3459 -0.5992 -0.9703
 2412TIP3   OH231430   6.543   5.084  19.696  0.1020 -0.4263  0.1212
 2412TIP3    H131431   6.537   5.155  19.760  1.1429  1.1211 -1.4255
 2412TIP3    H231432   6.456   5.082  19.656 -0.5565 -1.4032  1.5259
 2413TIP3   OH231433   0.294   3.324  18.608 -0.0538 -0.5833  0.2107
 2413TIP3    H131434   0.205   3.345  18.581  0.1953 -0.5084 -0.5814
 2413TIP3    H231435   0.335   3.409  18.622  0.0678 -0.6084  0.0002
 2414TIP3   OH231436   2.895   1.197  17.825  0.1422 -0.0528  0.0772
 2414TIP3    H131437   2.871   1.268  17.765  3.9145  0.3160 -1.2705
 2414TIP3    H231438   2.969   1.154  17.783  0.3650 -2.4645  2.6413
 2415TIP3   OH231439   3.868   0.633  17.921 -0.4674  0.0794  0.5420
 2415TIP3    H131440   3.823   0.704  17.875 -1.8100 -0.7040  0.5781
 2415TIP3    H231441   3.959   0.640  17.894 -0.7887  1.1218 -0.3294
 2416TIP3   OH231442   3.355   3.059  18.599  0.0908  0.2062  0.2967
 2416TIP3    H131443   3.304   3.028  18.674  2.1668 -0.4021  1.5508
 2416TIP3    H231444   3.368   2.981  18.545 -0.7409  0.4770 -0.3104
 2417TIP3   OH231445   5.699   6.296  19.721 -0.1499 -0.5408 -0.6495
 2417TIP3    H131446   5.661   6.384  19.720  0.8574  0.0355  2.0540
 2417TIP3    H231447   5.641   6.246  19.779  0.7087 -0.9070 -0.0842
 2418TIP3   OH231448   5.402   4.713  16.929 -0.5484  0.4821 -0.4333
 2418TIP3    H131449   5.450   4.675  16.855 -1.6438 -1.7909 -0.0743
 2418TIP3    H231450   5.330   4.652  16.944 -0.5674  1.0562  2.3119
 2419TIP3   OH231451   0.999   5.471  19.790  0.1959  0.0100  0.3689
 2419TIP3    H131452   1.026   5.562  19.807 -1.5943  0.8184 -0.8540
 2419TIP3    H231453   1.082   5.422  19.787  1.5238  2.1256 -1.9727
 2420TIP3   OH231454   6.048   4.829  18.711 -0.3566  0.4513 -0.0438
 2420TIP3    H131455   6.123   4.855  18.764  1.0056 -0.7703 -1.2852
 2420TIP3    H231456   6.038   4.899  18.646  1.7402 -0.7712 -1.8249
 2421TIP3   OH231457   1.129   2.804  18.320 -0.3256 -0.4704 -0.7371
 2421TIP3    H131458   1.206   2.768  18.365 -1.5530  0.4182  2.3860
 2421TIP3    H231459   1.072   2.729  18.305 -0.2728 -0.6895  0.0952
 2422TIP3   OH231460   0.895   6.507  17.163  0.2560 -0.4479  0.0910
 2422TIP3    H131461   0.947   6.567  17.110  1.3229 -0.5079  1.0269
 2422TIP3    H231462   0.822   6.481  17.106  0.8371  0.2176 -0.9907
 2423TIP3   OH231463   0.486   4.287  18.208  0.1020 -0.1881 -0.1426
 2423TIP3    H131464   0.402   4.264  18.248 -0.4549  2.5490  0.4374
 2423TIP3    H231465   0.481   4.253  18.119 -1.1844 -0.9818  0.2109
 2424TIP3   OH231466   0.951   6.159  17.893  0.1154  0.4156  0.7494
 2424TIP3    H131467   0.923   6.203  17.813  0.9574  1.7990  1.1840
 2424TIP3    H231468   0.897   6.080  17.896 -0.8857  0.9997 -0.4765
 2425TIP3   OH231469   0.169   3.527  19.172 -0.1546 -0.3050  0.2171
 2425TIP3    H131470   0.259   3.542  19.199  0.2054  0.6885 -1.4094
 2425TIP3    H231471   0.170   3.440  19.132  0.2741 -0.0025 -0.4550
 2426TIP3   OH231472   2.710   2.349  19.484  0.7917 -0.1160 -0.3636
 2426TIP3    H131473   2.781   2.341  19.547 -0.1661 -0.3179  0.7160
 2426TIP3    H231474   2.633   2.314  19.529  0.0541 -0.1529 -1.6001
 2427TIP3   OH231475   5.827   5.719  17.487  0.5926 -0.1561  0.0638
 2427TIP3    H131476   5.803   5.643  17.540 -2.9528 -1.0815 -2.4871
 2427TIP3    H231477   5.794   5.794  17.536 -0.4073 -0.7498  0.3286
 2428TIP3   OH231478   3.632   6.178  17.832 -0.1251 -0.4378  0.2758
 2428TIP3    H131479   3.611   6.259  17.878  0.7597  0.1742 -0.3712
 2428TIP3    H231480   3.641   6.113  17.902 -0.3736  0.1247  0.8385
 2429TIP3   OH231481   0.138   5.035  19.684  0.1667  0.4085 -0.2296
 2429TIP3    H131482   0.107   5.118  19.720 -0.4111  0.5316 -0.9708
 2429TIP3    H231483   0.228   5.027  19.714  0.7514  2.0764 -1.4036
 2430TIP3   OH231484   1.585   0.450  19.140  0.3984 -0.6201  0.2406
 2430TIP3    H131485   1.608   0.428  19.050  0.8858 -0.5009  0.3316
 2430TIP3    H231486   1.540   0.533  19.134  0.3610 -0.6512  0.0972
 2431TIP3   OH231487   1.612   3.768  16.278  0.1635  0.2085 -0.3127
 2431TIP3    H131488   1.615   3.844  16.336  0.4854  1.0270 -1.3666
 2431TIP3    H231489   1.538   3.716  16.310  1.6990 -0.5646  2.2481
 2432TIP3   OH231490   1.594   1.083  17.608 -0.3301 -0.1086 -0.0482
 2432TIP3    H131491   1.666   1.113  17.553  0.2405 -1.4675 -0.0728
 2432TIP3    H231492   1.567   1.000  17.570 -1.8490  0.3191  0.0359
 2433TIP3   OH231493   3.341   3.960  18.852  0.0993  0.0374 -0.5442
 2433TIP3    H131494   3.409   3.953  18.919 -0.3051 -0.2130 -0.1496
 2433TIP3    H231495   3.307   4.049  18.861  0.4389  0.1970 -0.8118
 2434TIP3   OH231496   4.902   5.402  17.100 -0.4415  0.4537 -0.1690
 2434TIP3    H131497   4.885   5.308  17.101  0.2024  0.3268  1.0726
 2434TIP3    H231498   4.819   5.441  17.073 -0.1683 -0.5347 -2.6864
 2435TIP3   OH231499   2.591   2.430  18.364  1.0431  0.6653  0.3345
 2435TIP3    H131500   2.589   2.523  18.385 -0.3598  1.1251 -1.5322
 2435TIP3    H231501   2.630   2.426  18.276  0.4308 -0.4221  0.0919
 2436TIP3   OH231502   5.019   6.597  18.908  0.2400 -0.3253  0.3351
 2436TIP3    H131503   5.078   6.529  18.940  0.4359  0.6311  2.1546
 2436TIP3    H231504   4.942   6.591  18.966 -0.3246  0.1193 -0.3509
 2437TIP3   OH231505   0.234   3.758  17.959  0.8487  0.1520 -0.2273
 2437TIP3    H131506   0.273   3.695  18.019 -0.3602  0.0067  0.4407
 2437TIP3    H231507   0.221   3.710  17.878 -0.4219 -0.6096  0.3946
 2438TIP3   OH231508   2.624   1.654  19.165  0.3321 -0.0466 -0.5481
 2438TIP3    H131509   2.599   1.563  19.150 -1.7270  0.3438  0.1851
 2438TIP3    H231510   2.550   1.705  19.132  1.7006  1.4383 -1.5272
 2439TIP3   OH231511   5.269   2.458  19.981 -0.1298  0.0307 -0.2521
 2439TIP3    H131512   5.256   2.552  19.994 -0.7079 -0.0887  0.0652
 2439TIP3    H231513   5.362   2.449  19.962  0.1620  0.5444  0.8601
 2440TIP3   OH231514   4.309   3.866  18.206 -0.1319  1.1313 -0.2528
 2440TIP3    H131515   4.245   3.925  18.247  0.5056  0.3986  1.9398
 2440TIP3    H231516   4.391   3.883  18.252  0.6396  0.2267 -1.2366
 2441TIP3   OH231517   0.157   2.300  18.964  0.6155  0.3181  0.5993
 2441TIP3    H131518   0.166   2.341  19.050  1.5560  0.6755  0.3469
 2441TIP3    H231519   0.077   2.338  18.927  0.7342  0.8875  0.9235
 2442TIP3   OH231520   2.284   2.266  19.841  0.1910 -0.1564  0.5241
 2442TIP3    H131521   2.326   2.269  19.755 -2.1781 -0.8411 -0.7467
 2442TIP3    H231522   2.321   2.341  19.889  0.9824  0.7079 -1.3541
 2443TIP3   OH231523   2.301   1.611  17.623  0.2642 -0.7312  0.1515
 2443TIP3    H131524   2.281   1.534  17.570 -0.0726 -0.2367 -0.4544
 2443TIP3    H231525   2.318   1.576  17.711 -0.2404 -1.4559 -0.0317
 2444TIP3   OH231526   0.186   1.111  16.667 -0.5919 -0.0136 -0.0490
 2444TIP3    H131527   0.163   1.188  16.719 -2.1697 -0.5223  0.0660
 2444TIP3    H231528   0.108   1.094  16.614  0.3397 -0.5702 -1.2834
 2445TIP3   OH231529   5.890   4.365  18.668  0.3425 -0.4470 -0.2828
 2445TIP3    H131530   5.872   4.376  18.762 -0.5952 -1.2580 -0.3484
 2445TIP3    H231531   5.852   4.443  18.627 -1.0019 -1.0212 -0.1699
 2446TIP3   OH231532   1.691   3.910  17.798 -0.4490  0.6901  0.5654
 2446TIP3    H131533   1.649   3.996  17.797 -0.5246  0.7819  3.2291
 2446TIP3    H231534   1.764   3.920  17.860 -0.0202 -0.9838  0.3914
 2447TIP3   OH231535   1.368   5.477  17.138 -0.5270  0.9081  0.4587
 2447TIP3    H131536   1.311   5.425  17.081  0.5504 -0.5401  0.6635
 2447TIP3    H231537   1.432   5.517  17.079  0.1184  0.0311  0.5538
 2448TIP3   OH231538   3.093   1.544  17.104  0.3531 -0.6388 -0.0080
 2448TIP3    H131539   3.071   1.527  17.013 -0.9799  0.2700  0.1129
 2448TIP3    H231540   3.138   1.628  17.102 -0.4116 -0.2094  0.2328
 2449TIP3   OH231541   3.924   4.727  18.764 -0.0044 -0.4129 -0.0447
 2449TIP3    H131542   3.960   4.645  18.731  0.8871  0.4235 -1.2114
 2449TIP3    H231543   3.999   4.785  18.774 -0.5240  0.0643  1.4715
 2450TIP3   OH231544   5.276   4.826  17.160 -0.1610 -0.2676 -0.2824
 2450TIP3    H131545   5.291   4.768  17.086  2.6277 -0.2848  0.1850
 2450TIP3    H231546   5.268   4.767  17.235 -1.4336 -0.1827 -0.3342
 2451TIP3   OH231547   3.522   4.036  18.089 -0.7212  0.0999  0.0031
 2451TIP3    H131548   3.573   3.997  18.018  0.9454  1.2324  0.5188
 2451TIP3    H231549   3.472   4.106  18.046 -0.1339  0.4266 -0.1580
 2452TIP3   OH231550   5.111   3.511  19.203 -0.3247 -0.3342  0.0817
 2452TIP3    H131551   5.079   3.430  19.163 -0.3865  0.0667 -0.6790
 2452TIP3    H231552   5.087   3.580  19.142 -0.1699  0.2543  0.6765
 2453TIP3   OH231553   2.350   1.543  18.388 -0.2118 -0.3418  0.1324
 2453TIP3    H131554   2.429   1.568  18.339 -1.1305  1.5962 -0.4602
 2453TIP3    H231555   2.287   1.520  18.320 -1.2011  1.4578  0.3801
 2454TIP3   OH231556   0.229   4.217  19.789  0.0790  0.6817  0.1733
 2454TIP3    H131557   0.170   4.224  19.714  0.7697 -1.3557 -0.6155
 2454TIP3    H231558   0.218   4.127  19.820  1.9974  0.5735  0.6514
 2455TIP3   OH231559   2.181   0.371  19.662  0.6536 -0.1204 -0.3091
 2455TIP3    H131560   2.247   0.305  19.640  0.5891 -1.1294  2.2779
 2455TIP3    H231561   2.097   0.330  19.641  0.6849 -0.2239 -0.2316
 2456TIP3   OH231562   4.309   5.941  18.225  1.2851 -0.6465 -0.2557
 2456TIP3    H131563   4.234   5.914  18.279  1.8302 -0.5888  0.5524
 2456TIP3    H231564   4.284   5.918  18.136 -0.7470  1.6256 -0.3618
 2457TIP3   OH231565   0.546   4.138  18.991  0.8039 -0.5253  0.6580
 2457TIP3    H131566   0.511   4.196  18.924  1.3670 -2.2518 -1.2056
 2457TIP3    H231567   0.605   4.194  19.042 -0.8093  1.1935  0.7497
 2458TIP3   OH231568   3.634   6.114  18.159  0.0869 -0.4343 -0.5239
 2458TIP3    H131569   3.605   6.119  18.250  0.0795 -1.8782 -0.4327
 2458TIP3    H231570   3.686   6.194  18.146  0.5614 -0.4912  0.9160
 2459TIP3   OH231571   3.838   2.929  17.603 -0.0358  0.4233  0.8531
 2459TIP3    H131572   3.797   2.896  17.684 -0.8203 -0.1209  0.2467
 2459TIP3    H231573   3.932   2.919  17.619 -0.2119 -1.4827  0.9809
 2460TIP3   OH231574   2.786   2.043  16.846 -0.5089  0.0769 -0.3863
 2460TIP3    H131575   2.731   1.973  16.881 -1.0611 -0.0226 -1.4228
 2460TIP3    H231576   2.733   2.122  16.854 -0.0563  0.3192  0.3674
 2461TIP3   OH231577   6.782   2.879  17.287 -0.0455  0.9324 -0.3066
 2461TIP3    H131578   6.796   2.788  17.264  0.4172  1.2969 -1.5641
 2461TIP3    H231579   6.864   2.908  17.327 -0.4730  0.5919  0.8422
 2462TIP3   OH231580   3.979   2.912  18.496 -0.0610 -0.3337 -0.4231
 2462TIP3    H131581   3.885   2.927  18.486 -0.1362  0.1569  0.7804
 2462TIP3    H231582   3.988   2.817  18.495 -0.7454 -0.4333  0.6352
 2463TIP3   OH231583   1.836   2.893  18.653  0.0487 -0.0543 -0.1332
 2463TIP3    H131584   1.899   2.942  18.601  0.4682  0.5617  0.9105
 2463TIP3    H231585   1.808   2.954  18.721  2.5326 -1.9064  2.8144
 2464TIP3   OH231586   5.190   0.064  18.499 -0.9175  0.5287 -0.4211
 2464TIP3    H131587   5.239   0.058  18.417  0.9145  0.1738  0.6475
 2464TIP3    H231588   5.197  -0.023  18.538 -0.0387  1.2117  1.0251
 2465TIP3   OH231589   0.839   4.055  18.236 -0.3817  0.2807  1.0005
 2465TIP3    H131590   0.836   4.139  18.282 -2.1483  0.9038 -0.1761
 2465TIP3    H231591   0.859   4.077  18.146  1.1141 -0.7774  1.0207
 2466TIP3   OH231592   3.378   5.685  19.457  0.2896 -0.6990  0.1122
 2466TIP3    H131593   3.402   5.757  19.514 -0.8709  1.5776 -2.0812
 2466TIP3    H231594   3.455   5.672  19.400  0.2509 -0.7563  0.0721
 2467TIP3   OH231595   3.803   4.382  17.103 -0.1284 -0.3545 -0.2665
 2467TIP3    H131596   3.722   4.393  17.153  0.1958 -0.2803  0.2496
 2467TIP3    H231597   3.869   4.360  17.168 -0.0531 -2.0767 -0.8720
 2468TIP3   OH231598   1.185   3.381  19.190 -0.0275  0.2199 -0.0972
 2468TIP3    H131599   1.205   3.344  19.104  2.2889  1.4113 -0.1350
 2468TIP3    H231600   1.207   3.313  19.252 -1.6847 -0.6372 -0.3879
 2469TIP3   OH231601   5.090   5.203  17.507 -0.0550  0.6541 -0.1503
 2469TIP3    H131602   5.018   5.265  17.519  0.0823  0.5557  1.3431
 2469TIP3    H231603   5.048   5.126  17.468 -1.5088 -0.6925  3.6604
 2470TIP3   OH231604   3.255   3.019  17.813  0.7173 -0.3473  0.1123
 2470TIP3    H131605   3.225   2.938  17.854  1.2072  0.3115  1.8330
 2470TIP3    H231606   3.335   2.994  17.766 -0.5068 -1.3601 -1.5482
 2471TIP3   OH231607   0.663   5.683  16.618  0.0712  0.5948 -0.2176
 2471TIP3    H131608   0.625   5.611  16.567 -1.7428  1.6070 -0.3791
 2471TIP3    H231609   0.709   5.640  16.690 -1.2264 -0.7141 -0.1428
 2472TIP3   OH231610   4.596   0.107  18.187  0.3769 -0.2425  0.3538
 2472TIP3    H131611   4.660   0.137  18.123 -0.6507 -1.7040 -1.4752
 2472TIP3    H231612   4.567   0.022  18.154 -3.6332  0.9595  0.1431
 2473TIP3   OH231613   5.326   0.755  17.900 -0.1339 -0.5203 -0.0999
 2473TIP3    H131614   5.312   0.735  17.807 -0.7216 -2.0599  0.2884
 2473TIP3    H231615   5.406   0.707  17.922  0.8881  1.0826 -0.1516
 2474TIP3   OH231616   0.788   4.130  17.991 -0.3614 -0.2926 -0.2515
 2474TIP3    H131617   0.704   4.141  18.035 -1.1106  1.1740 -1.9093
 2474TIP3    H231618   0.765   4.122  17.898  1.3562  0.7504 -0.8084
 2475TIP3   OH231619   4.491   4.633  18.909  0.1838  0.0290  0.1026
 2475TIP3    H131620   4.462   4.725  18.904 -0.1841  0.0080  1.3845
 2475TIP3    H231621   4.461   4.604  18.995 -0.6614 -1.6420 -0.7123
 2476TIP3   OH231622   1.627   1.838  16.391 -0.4181 -0.2789 -0.2008
 2476TIP3    H131623   1.563   1.779  16.352  0.2987  0.1410 -2.0992
 2476TIP3    H231624   1.616   1.921  16.344  2.5713 -0.6559 -1.7875
 2477TIP3   OH231625   4.217   3.945  19.959 -0.2408  0.6726  0.2578
 2477TIP3    H131626   4.209   3.890  20.037  0.9969  0.2532  0.1227
 2477TIP3    H231627   4.141   4.002  19.962 -0.0869  0.8567  1.9281
 2478TIP3   OH231628   3.109   5.663  18.502  0.4813  0.1553  0.0769
 2478TIP3    H131629   3.046   5.591  18.488  1.7577 -1.3854  1.8423
 2478TIP3    H231630   3.081   5.703  18.584  1.0752  0.2497  0.2334
 2479TIP3   OH231631   3.875   5.018  19.047  0.2732  0.0812 -0.4324
 2479TIP3    H131632   3.783   4.994  19.036 -0.2140  1.4597  0.3866
 2479TIP3    H231633   3.899   5.063  18.966  0.2603 -0.3710 -0.6882
 2480TIP3   OH231634   6.694   0.558  18.084 -0.0919 -0.5965  0.1318
 2480TIP3    H131635   6.710   0.502  18.160 -0.2974 -0.2566  0.4299
 2480TIP3    H231636   6.725   0.644  18.111 -1.4995 -0.1305  0.3919
 2481TIP3   OH231637   2.977   3.854  19.441  0.7167 -0.5073 -0.1348
 2481TIP3    H131638   2.975   3.821  19.531 -1.7979 -2.2434 -0.7179
 2481TIP3    H231639   2.918   3.929  19.442  0.3523 -0.7865 -0.3969
 2482TIP3   OH231640   2.730   0.068  17.730  0.4276  0.7115 -0.5831
 2482TIP3    H131641   2.769  -0.013  17.699  0.2878  0.8498 -1.1262
 2482TIP3    H231642   2.650   0.040  17.776 -0.6782  0.6469 -2.4331
 2483TIP3   OH231643   1.740   0.622  16.050  0.5187  0.0499 -0.3853
 2483TIP3    H131644   1.705   0.568  15.979  1.7910 -2.0310  0.4728
 2483TIP3    H231645   1.742   0.710  16.013 -1.0093 -0.5458 -2.1074
 2484TIP3   OH231646   0.455   0.836  19.112  0.1124  0.1206 -0.3489
 2484TIP3    H131647   0.431   0.787  19.191  0.4481  1.3935  0.5732
 2484TIP3    H231648   0.385   0.817  19.050 -1.2075  0.6145  0.9202
 2485TIP3   OH231649   1.823   3.684  19.210  0.1592  0.1893  0.5879
 2485TIP3    H131650   1.813   3.591  19.230  0.8080 -0.5846 -2.1775
 2485TIP3    H231651   1.733   3.716  19.197  0.0036 -0.7673 -1.0015
 2486TIP3   OH231652   5.008   3.433  19.731 -0.1793  0.5190 -0.6622
 2486TIP3    H131653   5.012   3.364  19.665 -0.6118 -0.3215  0.1624
 2486TIP3    H231654   5.063   3.503  19.696  1.2624 -0.7208 -0.9946
 2487TIP3   OH231655   3.731   3.096  17.416  0.4611 -0.3344  0.9284
 2487TIP3    H131656   3.760   3.047  17.493 -2.5240 -0.8728  1.8668
 2487TIP3    H231657   3.656   3.147  17.447  0.0076  0.5072 -1.3240
 2488TIP3   OH231658   4.117   4.557  19.504 -0.4691  0.6187  0.4354
 2488TIP3    H131659   4.209   4.572  19.481 -0.7077  0.1496 -0.9121
 2488TIP3    H231660   4.111   4.584  19.595  1.4289 -1.0408  1.1299
 2489TIP3   OH231661   5.850   5.931  18.153  0.3847 -0.1421  0.1874
 2489TIP3    H131662   5.775   5.973  18.195 -0.4738 -0.1980 -1.2221
 2489TIP3    H231663   5.835   5.943  18.059  2.5718  0.5629 -0.1185
 2490TIP3   OH231664   4.791   6.655  19.781 -0.2882  0.1230 -0.4737
 2490TIP3    H131665   4.859   6.634  19.717 -1.3315  0.4071 -1.7230
 2490TIP3    H231666   4.709   6.628  19.739 -0.9970  0.2189  0.7909
 2491TIP3   OH231667   4.719   5.214  17.347  0.2207 -0.2278 -0.1761
 2491TIP3    H131668   4.673   5.269  17.285 -1.5598 -3.0140 -1.5168
 2491TIP3    H231669   4.772   5.155  17.293  0.9204 -0.8288  1.1009
 2492TIP3   OH231670   3.990   6.138  19.500 -0.0797  0.0591 -0.1819
 2492TIP3    H131671   4.067   6.132  19.442  2.1342 -4.0296  2.6463
 2492TIP3    H231672   3.917   6.157  19.441  2.4861  0.0964 -3.6863
 2493TIP3   OH231673   3.754   2.031  19.184  0.6445 -0.2811 -0.1349
 2493TIP3    H131674   3.759   1.972  19.109 -1.3955 -2.4547  1.2842
 2493TIP3    H231675   3.693   2.099  19.157  2.1936  0.6588 -1.4192
 2494TIP3   OH231676   0.340   6.368  19.560  0.4232 -0.1395 -0.0554
 2494TIP3    H131677   0.278   6.401  19.494  0.0672  0.8339  0.7371
 2494TIP3    H231678   0.287   6.312  19.616 -0.2162  2.0250  1.6440
 2495TIP3   OH231679   3.054   2.531  17.890 -0.0623 -0.3389  0.2942
 2495TIP3    H131680   3.033   2.471  17.961  0.3048 -1.0500 -0.1878
 2495TIP3    H231681   2.979   2.526  17.831 -0.9207  1.1659  1.2091
 2496TIP3   OH231682   2.333   1.934  19.480  0.8163  0.2298  0.3567
 2496TIP3    H131683   2.384   1.854  19.464 -0.9837 -0.6072 -1.7339
 2496TIP3    H231684   2.352   1.957  19.571  1.8480 -2.2618  0.8480
 2497TIP3   OH231685   4.768   2.503  18.624 -0.1776  0.6813  0.0079
 2497TIP3    H131686   4.774   2.491  18.529  0.5908  1.4912 -0.0532
 2497TIP3    H231687   4.721   2.425  18.655 -0.7595  0.5857 -1.0754
 2498TIP3   OH231688   3.689   2.898  18.496 -0.3127  0.6019 -0.1703
 2498TIP3    H131689   3.610   2.875  18.448  0.4437 -0.0461 -1.1299
 2498TIP3    H231690   3.681   2.992  18.511 -2.4862  0.1933  2.0508
 2499TIP3   OH231691   6.757   5.840  18.769  0.0073  0.2288  0.0450
 2499TIP3    H131692   6.757   5.751  18.805 -0.2560  0.2352  0.0608
 2499TIP3    H231693   6.739   5.896  18.844  1.5397  0.4126  0.3140
 2500TIP3   OH231694   0.675   2.556  17.486  0.4384 -0.3167  0.2709
 2500TIP3    H131695   0.629   2.474  17.506  1.4602 -0.6441  1.4309
 2500TIP3    H231696   0.616   2.624  17.517  0.4298 -0.7100  1.1820
 2501TIP3   OH231697   4.818   6.301  18.721 -0.1139  0.1996  0.0692
 2501TIP3    H131698   4.883   6.367  18.699  0.6387  1.0957  4.2830
 2501TIP3    H231699   4.869   6.227  18.755 -1.1685 -0.8230 -0.4927
 2502TIP3   OH231700   4.067   2.025  18.670 -0.0004  0.1838  0.0278
 2502TIP3    H131701   4.040   1.948  18.620 -1.9288  0.5153  0.5044
 2502TIP3    H231702   4.082   1.992  18.759 -1.9763  0.5158  0.5181
 2503TIP3   OH231703   5.692   5.629  19.257  0.1385  0.0130 -0.1175
 2503TIP3    H131704   5.663   5.563  19.194 -0.0092 -0.5359  0.5132
 2503TIP3    H231705   5.721   5.579  19.333  0.1463  0.6678  0.3237
 2504TIP3   OH231706   5.148   3.908  19.124  0.5509 -0.3454  0.2219
 2504TIP3    H131707   5.193   3.845  19.067  1.0979 -0.0420  0.3116
 2504TIP3    H231708   5.113   3.974  19.064 -1.3488 -1.5056 -0.0292
 2505TIP3   OH231709   2.421   5.188  18.279 -0.1911  0.0329  0.1760
 2505TIP3    H131710   2.508   5.213  18.310 -0.6347  1.0262  0.6436
 2505TIP3    H231711   2.376   5.155  18.358 -0.2202 -0.5460 -0.0771
 2506TIP3   OH231712   4.457   1.217  17.171  0.4207 -0.7541 -0.1275
 2506TIP3    H131713   4.543   1.239  17.205 -0.6719 -0.8673  3.0216
 2506TIP3    H231714   4.406   1.298  17.181  0.4542 -0.1821 -3.4498
 2507TIP3   OH231715   0.614   1.956  18.730  0.7691 -0.6656 -0.9491
 2507TIP3    H131716   0.692   1.987  18.776  0.4072  0.0420 -0.7833
 2507TIP3    H231717   0.583   1.882  18.781  0.1554  0.3446  0.2037
 2508TIP3   OH231718   1.374   3.717  18.895  0.2053 -0.3188 -0.4172
 2508TIP3    H131719   1.447   3.765  18.935  1.1497 -1.1925 -1.0202
 2508TIP3    H231720   1.297   3.769  18.915  0.8827  0.1961  0.9760
 2509TIP3   OH231721   3.164   2.251  18.059  0.9233 -0.6932 -0.4514
 2509TIP3    H131722   3.110   2.281  18.132  1.5511  0.9881 -0.6425
 2509TIP3    H231723   3.253   2.248  18.094  1.0860 -0.8857 -0.8688
 2510TIP3   OH231724   3.108   3.732  17.771  0.6169 -0.8376  0.4528
 2510TIP3    H131725   3.149   3.737  17.857  1.0530 -3.3586  0.4824
 2510TIP3    H231726   3.014   3.734  17.789  0.7051 -1.3871  1.0223
 2511TIP3   OH231727   6.718   2.414  20.226 -0.1145 -0.0247 -0.1623
 2511TIP3    H131728   6.670   2.352  20.281  0.4841 -2.1474 -1.9098
 2511TIP3    H231729   6.651   2.449  20.166 -0.2844  0.3767  0.2555
 2512TIP3   OH231730   2.814   0.362  19.959 -0.4096 -0.1236  0.0975
 2512TIP3    H131731   2.778   0.434  20.011 -1.2930  1.0900 -2.0890
 2512TIP3    H231732   2.772   0.283  19.995 -0.7626  0.6327  1.3961
 2513TIP3   OH231733   6.336   1.155  19.090  0.2019 -0.1116 -0.3731
 2513TIP3    H131734   6.362   1.140  19.181 -2.2691 -0.3148  0.3820
 2513TIP3    H231735   6.335   1.251  19.081  1.6589 -0.0971 -0.6113
 2514TIP3   OH231736   6.176   1.762  18.383  0.0308 -0.1321  0.4791
 2514TIP3    H131737   6.116   1.789  18.452 -0.2912 -1.1764  0.6329
 2514TIP3    H231738   6.254   1.732  18.430 -0.4512 -1.4911  0.4474
 2515TIP3   OH231739   3.953   1.359  18.763 -0.1294 -0.6147 -0.1772
 2515TIP3    H131740   3.910   1.285  18.719  1.7495  0.1036 -3.5176
 2515TIP3    H231741   4.045   1.335  18.766  0.1114  0.3312  1.5968
 2516TIP3   OH231742   0.921   6.700  17.565 -0.2980 -0.0209 -0.2299
 2516TIP3    H131743   0.860   6.766  17.600  0.6425  0.2435  0.9552
 2516TIP3    H231744   0.986   6.751  17.516  1.2295  0.1364  1.8356
 2517TIP3   OH231745   4.015   0.405  18.894 -0.2382  0.4992 -0.0113
 2517TIP3    H131746   4.085   0.370  18.837 -1.4397 -1.2237 -0.5235
 2517TIP3    H231747   3.971   0.470  18.840 -0.4094 -0.0307 -0.5275
 2518TIP3   OH231748   4.910   5.967  19.575 -1.2130 -0.4064  0.0826
 2518TIP3    H131749   4.822   5.931  19.565 -1.6531  0.9567 -1.5343
 2518TIP3    H231750   4.911   6.003  19.664 -2.8847  0.9327 -0.3704
 2519TIP3   OH231751   3.129   6.010  17.017 -0.1141 -0.1054  0.1841
 2519TIP3    H131752   3.038   6.022  17.043 -0.0888  0.1738  0.1411
 2519TIP3    H231753   3.156   6.095  16.982 -0.4807 -0.7114 -1.7396
 2520TIP3   OH231754   3.912   5.588  17.981  0.8446  0.8721 -0.3118
 2520TIP3    H131755   3.887   5.600  18.073 -1.2553  0.9470 -0.8402
 2520TIP3    H231756   3.985   5.526  17.984 -0.5429 -0.8429  1.3318
 2521TIP3   OH231757   4.121   3.523  17.828  1.0603  0.0061  0.2867
 2521TIP3    H131758   4.163   3.501  17.745 -0.1144  0.1306 -0.3645
 2521TIP3    H231759   4.168   3.601  17.858  3.6894 -1.8747  1.4398
 2522TIP3   OH231760   3.390   6.626  16.811  0.0298  0.6095 -0.9408
 2522TIP3    H131761   3.354   6.707  16.774 -1.6888 -0.4047 -1.6347
 2522TIP3    H231762   3.482   6.645  16.825 -0.0933  2.3374 -2.1088
 2523TIP3   OH231763   3.091   3.573  19.169 -0.1060  0.3169  0.1303
 2523TIP3    H131764   3.102   3.666  19.152  0.8834  0.5192  1.7140
 2523TIP3    H231765   3.039   3.541  19.095 -0.1145  2.0294 -0.6417
 2524TIP3   OH231766   1.158   5.516  17.581  0.0680  0.1071  0.2302
 2524TIP3    H131767   1.191   5.499  17.669 -0.6503  0.2396  0.5317
 2524TIP3    H231768   1.065   5.537  17.593 -0.2493 -0.7232 -0.6408
 2525TIP3   OH231769   5.973   2.546  18.534  0.5317  0.1485  0.1217
 2525TIP3    H131770   5.966   2.466  18.482  1.3304 -0.2851  0.6585
 2525TIP3    H231771   5.995   2.614  18.470 -0.9630  0.1314 -0.4687
 2526TIP3   OH231772   6.141   4.518  19.776  0.6528  0.4565 -0.8482
 2526TIP3    H131773   6.058   4.478  19.804  1.3466 -0.6074 -0.2478
 2526TIP3    H231774   6.157   4.587  19.841 -1.0463  2.4887 -2.4464
 2527TIP3   OH231775   4.120   6.430  19.600  0.7460  0.5348  0.6473
 2527TIP3    H131776   4.104   6.344  19.561  0.3343 -0.5467  2.9717
 2527TIP3    H231777   4.210   6.450  19.578  0.1400  0.6732 -1.9407
 2528TIP3   OH231778   3.589   0.771  18.170 -0.1536  0.4381 -0.4476
 2528TIP3    H131779   3.566   0.796  18.259  0.8235  0.8213 -0.2842
 2528TIP3    H231780   3.558   0.682  18.160 -2.9744  1.3500 -0.7406
 2529TIP3   OH231781   2.578   4.359  17.525  1.0948  0.1690  0.2008
 2529TIP3    H131782   2.513   4.385  17.459  1.2434  2.8449  0.9549
 2529TIP3    H231783   2.600   4.269  17.504 -1.7672 -0.3626 -0.9843
 2530TIP3   OH231784   1.184   4.825  17.710  0.3081 -0.6174  0.0223
 2530TIP3    H131785   1.275   4.833  17.680  0.0076  0.8450 -0.5769
 2530TIP3    H231786   1.179   4.886  17.784  0.2265 -1.9086  1.1160
 2531TIP3   OH231787   4.742   1.548  18.207 -0.5371  0.5474  0.1492
 2531TIP3    H131788   4.721   1.522  18.117 -0.6066  0.2841  0.2413
 2531TIP3    H231789   4.702   1.635  18.217  0.2951  1.0059 -0.3840
 2532TIP3   OH231790   5.229   1.171  19.057  0.0227  0.0293 -0.4368
 2532TIP3    H131791   5.278   1.166  18.975 -0.1365  1.2280 -0.6316
 2532TIP3    H231792   5.296   1.179  19.125  0.2328 -2.7130 -0.2216
 2533TIP3   OH231793   5.251   6.355  19.368  0.3610 -0.4781 -0.2560
 2533TIP3    H131794   5.316   6.391  19.428  0.5904 -2.2057  0.6009
 2533TIP3    H231795   5.243   6.263  19.394 -2.1482 -0.4174 -0.5731
 2534TIP3   OH231796   2.560   1.514  19.643 -0.3451  0.4221  0.0428
 2534TIP3    H131797   2.544   1.443  19.581  0.0429  2.3143 -2.3658
 2534TIP3    H231798   2.481   1.517  19.698 -0.7644 -1.2189 -0.4404
 2535TIP3   OH231799   6.349   3.509  17.685 -0.2509  0.5385 -0.4723
 2535TIP3    H131800   6.392   3.434  17.726 -1.0057  0.7250  0.6793
 2535TIP3    H231801   6.404   3.584  17.708 -1.4096  0.8513  1.4196
 2536TIP3   OH231802   2.074   3.082  19.279  0.2753  0.5586  0.2797
 2536TIP3    H131803   2.031   3.018  19.223  1.7437 -0.9405  0.8061
 2536TIP3    H231804   2.058   3.166  19.236 -1.6727 -0.1207 -0.4434
 2537TIP3   OH231805   6.077   3.278  18.904  0.1582  0.1126  0.2187
 2537TIP3    H131806   6.080   3.217  18.978 -1.6920  0.4203  0.5892
 2537TIP3    H231807   5.984   3.290  18.886  0.4918  2.0641 -0.4836
 2538TIP3   OH231808   5.786   4.650  17.522  0.0809  0.5930 -0.0964
 2538TIP3    H131809   5.764   4.574  17.469 -0.4424 -0.6782  1.8728
 2538TIP3    H231810   5.715   4.658  17.585  0.5342  2.2332  0.2577
 2539TIP3   OH231811   3.950   4.289  16.879 -0.2534  0.3341  0.6465
 2539TIP3    H131812   3.992   4.219  16.928 -0.0837 -0.5568 -0.7445
 2539TIP3    H231813   3.889   4.329  16.942 -0.6771 -1.3261  1.3500
 2540TIP3   OH231814   2.856   2.842  17.678 -0.3889  0.2033 -0.3182
 2540TIP3    H131815   2.913   2.864  17.605 -0.4366  0.7242 -0.2054
 2540TIP3    H231816   2.871   2.912  17.742  1.8968 -1.7854  1.4956
 2541TIP3   OH231817   1.994   5.648  19.242 -0.0818  0.1782 -0.7048
 2541TIP3    H131818   1.909   5.648  19.286  1.0061 -1.1771  1.5976
 2541TIP3    H231819   1.994   5.728  19.189 -2.9093  0.0061 -1.1245
 2542TIP3   OH231820   5.775   6.136  17.281 -0.1694 -0.2087 -0.0406
 2542TIP3    H131821   5.698   6.110  17.333 -0.3193  1.1111  0.4306
 2542TIP3    H231822   5.817   6.204  17.333  0.4387  0.1975 -1.0411
 2543TIP3   OH231823   6.150   0.569  19.117  0.7743 -0.5493 -0.1874
 2543TIP3    H131824   6.185   0.480  19.116  0.1643 -0.8172  0.9883
 2543TIP3    H231825   6.136   0.590  19.025  0.0048 -2.0473 -0.4452
 2544TIP3   OH231826   1.812   0.282  18.667  1.0489 -0.0740 -0.1732
 2544TIP3    H131827   1.747   0.334  18.715 -0.0121 -0.8498 -0.7053
 2544TIP3    H231828   1.804   0.312  18.577  0.2285 -1.2861 -0.5395
 2545TIP3   OH231829   5.548   0.200  17.456  0.3092 -0.1367 -0.0218
 2545TIP3    H131830   5.456   0.196  17.483  0.3931 -0.7634  0.1954
 2545TIP3    H231831   5.549   0.160  17.370 -0.1812  3.0803 -1.6880
 2546TIP3   OH231832   5.236   5.444  18.854  0.1627 -0.1376 -0.9890
 2546TIP3    H131833   5.161   5.453  18.912  1.0706  0.5180  0.1318
 2546TIP3    H231834   5.241   5.350  18.836 -2.0817  0.0005 -2.7387
 2547TIP3   OH231835   2.018   4.222  19.002 -0.5641  0.0260  0.1530
 2547TIP3    H131836   2.089   4.285  19.015 -1.7386  0.8909  3.2048
 2547TIP3    H231837   2.062   4.139  18.986  1.0363  1.2400 -2.3972
 2548TIP3   OH231838   4.982   2.209  18.109  0.0837 -0.0797  0.1892
 2548TIP3    H131839   4.904   2.260  18.132  0.1923  0.0681  0.2330
 2548TIP3    H231840   4.983   2.136  18.170  0.9282  0.8547  1.3372
 2549TIP3   OH231841   4.570   6.640  17.563 -0.3346 -0.0918  0.1341
 2549TIP3    H131842   4.504   6.709  17.558 -0.2529  0.0339  0.7233
 2549TIP3    H231843   4.650   6.682  17.531 -1.1398 -1.1223 -3.8207
 2550TIP3   OH231844   3.519   1.774  18.967  0.2712 -0.2638 -0.4294
 2550TIP3    H131845   3.496   1.865  18.950  0.3848 -0.1905 -0.1949
 2550TIP3    H231846   3.478   1.725  18.896 -0.6538 -0.1441  0.0096
 2551TIP3   OH231847   4.416   3.990  18.412 -0.2401  0.5625  0.1433
 2551TIP3    H131848   4.510   4.007  18.423 -0.4150  1.8280 -0.1574
 2551TIP3    H231849   4.402   3.905  18.452  1.4237 -0.6103 -1.5645
 2552TIP3   OH231850   2.266   3.173  18.552  0.0975 -0.1231 -0.4746
 2552TIP3    H131851   2.234   3.233  18.485 -1.4338 -2.2494 -1.7979
 2552TIP3    H231852   2.343   3.131  18.512  0.2196 -0.1527 -0.2106
 2553TIP3   OH231853   0.488   6.384  19.185 -0.5891  0.0399  0.3337
 2553TIP3    H131854   0.477   6.479  19.189 -2.1861 -0.1170  0.3140
 2553TIP3    H231855   0.480   6.364  19.092  1.4201  0.0382  0.1358
 2554TIP3   OH231856   0.092   4.960  19.403 -0.3782 -0.0207 -0.0956
 2554TIP3    H131857  -0.003   4.952  19.396 -0.3367  0.4066 -1.3215
 2554TIP3    H231858   0.108   4.980  19.496 -1.3512 -1.5709  0.4372
 2555TIP3   OH231859   3.505   2.621  17.153 -1.1545 -0.2125  0.2963
 2555TIP3    H131860   3.481   2.632  17.061 -1.2930  0.4696  0.4069
 2555TIP3    H231861   3.472   2.534  17.176  0.8520 -1.3805 -0.9075
 2556TIP3   OH231862   1.295   0.763  19.282 -0.6199 -0.2783 -0.1616
 2556TIP3    H131863   1.204   0.793  19.282 -0.8028 -0.8101 -0.9384
 2556TIP3    H231864   1.288   0.668  19.273 -0.0741 -0.6774  2.6525
 2557TIP3   OH231865   1.030   4.280  18.025  0.4703 -0.1963 -0.0323
 2557TIP3    H131866   1.009   4.372  18.041  0.0175 -0.0278 -1.4946
 2557TIP3    H231867   0.945   4.236  18.019  0.5471 -1.5377  4.4695
 2558TIP3   OH231868   5.674   5.155  16.710  0.4656 -0.6525 -0.4699
 2558TIP3    H131869   5.655   5.178  16.619  2.1976  1.4402 -0.3904
 2558TIP3    H231870   5.701   5.063  16.707  1.6564 -0.2833 -2.2816
 2559TIP3   OH231871   2.600   3.536  17.884 -0.3319 -0.1697 -0.0952
 2559TIP3    H131872   2.696   3.527  17.884 -0.3553 -0.5078 -0.8520
 2559TIP3    H231873   2.585   3.623  17.847 -0.3429 -0.7993 -1.6767
 2560TIP3   OH231874   2.693   4.174  19.018  0.2451 -0.2247 -0.2852
 2560TIP3    H131875   2.770   4.120  19.001  0.0052 -1.1896  1.4021
 2560TIP3    H231876   2.683   4.171  19.114 -2.0271 -0.3548 -0.4613
 2561TIP3   OH231877   2.226   2.419  18.044 -0.2714 -0.6033 -0.0433
 2561TIP3    H131878   2.241   2.414  18.138 -1.8021  1.6350  0.3779
 2561TIP3    H231879   2.215   2.512  18.025 -0.0008 -0.9800 -2.4553
 2562TIP3   OH231880   4.683   4.519  18.713 -0.0941 -0.7849  0.4702
 2562TIP3    H131881   4.696   4.551  18.624  4.3336 -2.2374  0.3599
 2562TIP3    H231882   4.665   4.598  18.764  2.8829  0.9735 -0.9362
 2563TIP3   OH231883   5.257   4.103  19.689  0.4672  0.6362  0.5891
 2563TIP3    H131884   5.190   4.086  19.624 -1.6784  0.9725  2.5642
 2563TIP3    H231885   5.235   4.045  19.762  3.2729 -0.3551  0.7469
 2564TIP3   OH231886   1.193   1.075  19.323  0.2740 -0.2174  0.2213
 2564TIP3    H131887   1.130   1.145  19.341  0.9823  0.1207  1.4734
 2564TIP3    H231888   1.139   0.996  19.319 -0.2452  0.0775  1.1960
 2565TIP3   OH231889   6.767   0.834  18.103 -0.4832 -0.1975 -0.9704
 2565TIP3    H131890   6.785   0.851  18.195 -1.5005  1.0733 -0.9764
 2565TIP3    H231891   6.774   0.920  18.061 -1.0301 -0.5896 -1.8945
 2566TIP3   OH231892   2.222   1.352  19.222 -0.1099  0.2399  0.3054
 2566TIP3    H131893   2.234   1.263  19.189 -0.3370  0.2955  0.0738
 2566TIP3    H231894   2.244   1.346  19.315  3.1294  0.6115 -0.3177
 2567TIP3   OH231895   6.201   2.521  19.954  0.5697 -0.2766  0.5457
 2567TIP3    H131896   6.169   2.570  20.029 -0.2567  0.8309 -0.4817
 2567TIP3    H231897   6.275   2.470  19.987  1.3745  1.5567  1.7110
 2568TIP3   OH231898   3.564   3.172  17.740 -0.2862 -0.1861 -0.1871
 2568TIP3    H131899   3.525   3.220  17.667 -1.6781  0.3334  0.8658
 2568TIP3    H231900   3.557   3.080  17.715 -3.4146 -0.2120  0.4868
 2569TIP3   OH231901   0.183   4.956  19.149 -0.0015  0.3407 -0.2149
 2569TIP3    H131902   0.139   4.965  19.233  0.4445 -2.9904  0.4929
 2569TIP3    H231903   0.273   4.983  19.165  0.3589 -1.3202  0.7301
 2570TIP3   OH231904   3.862   3.101  19.404  0.3073  0.2851 -0.7189
 2570TIP3    H131905   3.833   3.138  19.487 -2.2779 -1.6727 -0.5984
 2570TIP3    H231906   3.806   3.143  19.339 -0.8875 -1.4083 -0.8580
 2571TIP3   OH231907   2.658   2.864  19.277 -0.2406  0.1568 -0.2623
 2571TIP3    H131908   2.643   2.856  19.183 -0.6853  0.2499 -0.2007
 2571TIP3    H231909   2.657   2.774  19.310  2.5827 -0.1439 -0.7320
 2572TIP3   OH231910   5.063   4.207  17.182 -0.3780  0.4396  0.3398
 2572TIP3    H131911   4.971   4.228  17.199  0.2506  1.4903  3.1121
 2572TIP3    H231912   5.084   4.251  17.100 -1.7969  2.1324  0.8253
 2573TIP3   OH231913   0.374   4.070  19.535 -0.3637  0.0552  0.3211
 2573TIP3    H131914   0.349   3.977  19.537 -0.7593  0.1569  0.0173
 2573TIP3    H231915   0.294   4.116  19.511  0.3926  0.2720 -2.0405
 2574TIP3   OH231916   3.529   1.541  19.888 -0.0749 -0.2256  0.0270
 2574TIP3    H131917   3.590   1.468  19.875  1.0218  0.7289 -0.2702
 2574TIP3    H231918   3.455   1.520  19.831 -0.0928 -1.4576  0.4750
 2575TIP3   OH231919   4.301   0.028  18.907  0.4552 -0.5596 -0.0199
 2575TIP3    H131920   4.272   0.118  18.896  1.9696  0.2322  2.0140
 2575TIP3    H231921   4.358   0.012  18.831 -0.3708 -0.0929 -0.7651
 2576TIP3   OH231922   0.371   6.250  16.121  0.6693  0.1761  0.0002
 2576TIP3    H131923   0.368   6.295  16.036  1.2364 -0.4845 -0.3806
 2576TIP3    H231924   0.279   6.240  16.146  0.4031 -1.1591 -1.3702
 2577TIP3   OH231925   3.230   6.256  19.680  0.3264  0.1536 -0.0504
 2577TIP3    H131926   3.197   6.277  19.768  0.2213  0.1804 -0.0949
 2577TIP3    H231927   3.318   6.222  19.694  0.2086 -0.0940  0.0859
 2578TIP3   OH231928   6.759   6.130  17.747 -0.2266  0.5863  0.7288
 2578TIP3    H131929   6.705   6.187  17.692 -0.1521  1.3782  1.4674
 2578TIP3    H231930   6.733   6.151  17.837 -0.4738 -0.8113  1.0220
 2579TIP3   OH231931   0.405   5.981  19.477 -0.0367 -0.2410  0.4118
 2579TIP3    H131932   0.362   5.963  19.560  0.6820 -0.1691  0.8034
 2579TIP3    H231933   0.461   6.057  19.494  1.4443 -1.2716  0.3451
 2580TIP3   OH231934   0.774   4.012  19.108 -0.3393  0.2325 -0.4700
 2580TIP3    H131935   0.693   4.024  19.058 -0.6952 -0.1132  0.0143
 2580TIP3    H231936   0.761   3.929  19.154  0.0590  0.4581  0.0471
 2581TIP3   OH231937   3.093   0.771  17.587 -0.0886 -0.1496  0.1403
 2581TIP3    H131938   3.079   0.757  17.681 -1.3697  0.7822  0.1070
 2581TIP3    H231939   3.188   0.778  17.578  0.0174  0.4527  1.4822
 2582TIP3   OH231940   4.402   5.563  19.244 -0.3206 -0.1506 -0.6200
 2582TIP3    H131941   4.427   5.480  19.203  0.6537 -0.2080  0.0576
 2582TIP3    H231942   4.326   5.541  19.299 -1.5409 -0.1041 -2.2158
 2583TIP3   OH231943   5.791   2.282  18.295  0.0546  0.1542 -0.0861
 2583TIP3    H131944   5.760   2.372  18.280 -1.7869 -0.4824 -0.3771
 2583TIP3    H231945   5.714   2.227  18.277  1.1173 -1.4805  0.1753
 2584TIP3   OH231946   0.428   6.177  16.370  0.2083  0.0308  0.2464
 2584TIP3    H131947   0.338   6.158  16.396  0.2592 -0.2372  0.2320
 2584TIP3    H231948   0.420   6.236  16.295  0.0671  1.4869  1.3634
 2585TIP3   OH231949   3.452   5.685  18.004 -0.3207  0.4428 -0.4563
 2585TIP3    H131950   3.525   5.644  17.958  0.0127  0.5564 -0.0268
 2585TIP3    H231951   3.462   5.657  18.095  0.2448  1.9250 -0.0272
 2586TIP3   OH231952   6.601   1.305  18.567 -0.0506  0.3772  0.0429
 2586TIP3    H131953   6.628   1.357  18.491 -1.0694 -1.4860 -1.6763
 2586TIP3    H231954   6.512   1.335  18.587  0.3731  1.1736  0.8491
 2587TIP3   OH231955   0.326   3.540  18.108  0.1115 -0.1041  0.1033
 2587TIP3    H131956   0.280   3.456  18.108  0.2552 -0.2327  1.9305
 2587TIP3    H231957   0.414   3.519  18.078  0.0614 -0.5745  0.2731
 2588TIP3   OH231958   2.269   3.066  19.523 -0.9762  0.1973  0.5323
 2588TIP3    H131959   2.255   3.154  19.489 -0.9491  0.0184  0.0517
 2588TIP3    H231960   2.205   3.012  19.476 -0.2184 -0.2355 -0.0137
 2589TIP3   OH231961   3.070   1.037  18.352  0.0064  0.4933  0.2325
 2589TIP3    H131962   2.995   0.990  18.315  1.4472 -1.8310  0.0622
 2589TIP3    H231963   3.063   1.023  18.446  0.0222  0.6058  0.2514
 2590TIP3   OH231964   2.652   0.291  19.534 -0.5624 -0.3786  0.0831
 2590TIP3    H131965   2.576   0.239  19.507 -1.5007  1.2189 -0.4682
 2590TIP3    H231966   2.627   0.381  19.517  0.6665  0.3591  1.8793
 2591TIP3   OH231967   0.755   4.594  19.838 -0.1231 -0.3336 -0.6035
 2591TIP3    H131968   0.844   4.616  19.812  0.0928 -2.4369 -1.8758
 2591TIP3    H231969   0.723   4.672  19.884  2.1252  0.6974 -0.6746
 2592TIP3   OH231970   1.514   2.939  19.355  0.1574 -0.4729  0.5613
 2592TIP3    H131971   1.533   2.903  19.269 -1.0104 -0.6547  0.3729
 2592TIP3    H231972   1.586   2.907  19.410  1.2914  0.2046 -0.4610
 2593TIP3   OH231973   2.116   2.608  17.749  0.0288  0.0006 -1.0861
 2593TIP3    H131974   2.147   2.527  17.708 -1.0456  0.3315 -2.6376
 2593TIP3    H231975   2.043   2.580  17.804  1.0784 -0.3663  0.1432
 2594TIP3   OH231976   2.389   6.640  18.477 -0.2468 -0.2124  0.0088
 2594TIP3    H131977   2.354   6.729  18.470  2.2569  0.8760  0.1365
 2594TIP3    H231978   2.447   6.632  18.401 -0.9980 -2.0460 -0.4134
 2595TIP3   OH231979   4.407   1.487  18.669 -0.6153 -0.4553  0.4354
 2595TIP3    H131980   4.363   1.455  18.590 -0.3276 -0.1117  0.1313
 2595TIP3    H231981   4.368   1.573  18.685 -0.2616 -0.2744  0.3316
 2596TIP3   OH231982   2.303   5.018  19.996 -0.6660  0.0372 -0.6724
 2596TIP3    H131983   2.366   5.023  20.067  0.2081  0.1248 -1.4451
 2596TIP3    H231984   2.283   4.925  19.988 -0.6469  0.0107 -0.4243
 2597TIP3   OH231985   3.728   5.721  19.538  0.1044 -0.3492 -0.0296
 2597TIP3    H131986   3.696   5.746  19.624  2.4446  0.9810  0.5469
 2597TIP3    H231987   3.727   5.625  19.539 -3.5357 -0.4532 -0.0742
 2598TIP3   OH231988   6.546   6.059  20.136  0.3845 -0.8356 -0.2639
 2598TIP3    H131989   6.454   6.084  20.138  0.7208  0.4493  0.0297
 2598TIP3    H231990   6.573   6.059  20.228  1.2189  0.9836 -0.4732
 2599TIP3   OH231991   3.562   1.781  19.387  0.3830  0.2352  0.3479
 2599TIP3    H131992   3.476   1.744  19.406 -0.2279  0.7374 -1.2694
 2599TIP3    H231993   3.560   1.869  19.424  0.3635  0.1037  0.6648
 2600TIP3   OH231994   2.085   0.361  18.684  0.5046  0.0088  0.7048
 2600TIP3    H131995   1.995   0.327  18.685  0.1973  0.8047  1.3092
 2600TIP3    H231996   2.075   0.456  18.688  1.3809  0.1075  0.7810
 2601TIP3   OH231997   3.092   6.474  19.068 -0.0186 -0.1579  0.2778
 2601TIP3    H131998   3.160   6.533  19.102 -0.0844  0.0846 -0.0060
 2601TIP3    H231999   3.079   6.503  18.978  0.8602 -1.4284 -0.2781
 2602TIP3   OH232000   2.693   4.269  18.565 -0.1927  0.3175  0.0649
 2602TIP3    H132001   2.672   4.283  18.658 -0.5362 -0.1668  0.0698
 2602TIP3    H232002   2.686   4.355  18.525  0.8890  0.6912  0.6644
 2603TIP3   OH232003   5.246   2.528  16.749 -0.0898 -0.4037  0.1682
 2603TIP3    H132004   5.165   2.541  16.799  0.7523  0.1081  1.4373
 2603TIP3    H232005   5.315   2.563  16.805  0.7472  1.7374 -2.0169
 2604TIP3   OH232006   3.270   1.526  19.746  0.0705 -0.6955  0.7484
 2604TIP3    H132007   3.208   1.467  19.703 -0.4190  0.1486  0.2854
 2604TIP3    H232008   3.230   1.612  19.739  1.1636 -0.1804  0.7186
 2605TIP3   OH232009   4.419   0.036  18.662 -0.3294  0.3169  0.1870
 2605TIP3    H132010   4.385   0.005  18.578 -0.4593 -1.1803  0.7753
 2605TIP3    H232011   4.491  -0.024  18.683  1.8832  2.5906 -0.3642
 2606TIP3   OH232012   0.066   5.536  16.806 -0.1484  0.4994 -0.1982
 2606TIP3    H132013  -0.016   5.526  16.757  0.0153 -2.3686 -0.0493
 2606TIP3    H232014   0.045   5.506  16.894  0.6495  1.4935  0.3480
 2607TIP3   OH232015   2.315   0.653  18.579  0.7724 -0.0879  0.5594
 2607TIP3    H132016   2.325   0.726  18.518  1.2749 -0.3278  0.3460
 2607TIP3    H232017   2.314   0.575  18.523 -0.3255 -0.2110  0.7386
 2608TIP3   OH232018   3.369   1.762  20.004 -0.4377  0.0167  0.4241
 2608TIP3    H132019   3.366   1.669  20.025  2.3992 -0.6189 -1.4308
 2608TIP3    H232020   3.316   1.770  19.925 -1.9606  0.3277  1.4398
 2609TIP3   OH232021   5.018   5.833  17.031  0.4211  0.5200  0.7917
 2609TIP3    H132022   5.091   5.787  17.072 -0.9574 -1.2672  1.3801
 2609TIP3    H232023   4.955   5.763  17.010 -0.4634  1.8124 -1.1042
 2610TIP3   OH232024   4.308   3.615  19.726 -0.3789 -0.2635  0.3166
 2610TIP3    H132025   4.213   3.600  19.729 -0.4330 -0.9782 -2.2986
 2610TIP3    H232026   4.317   3.710  19.725 -1.0117 -0.1793  1.0619
 2611TIP3   OH232027   2.512   5.720  18.680  0.8380  0.5728 -0.0476
 2611TIP3    H132028   2.544   5.652  18.738  1.1626  1.8072  1.2928
 2611TIP3    H232029   2.418   5.725  18.697  0.4139 -0.9369 -1.7032
 2612TIP3   OH232030   6.387   5.092  17.859 -0.2878 -0.2933 -0.0009
 2612TIP3    H132031   6.462   5.082  17.801 -0.0071  0.9056  0.1161
 2612TIP3    H232032   6.332   5.015  17.843  0.6419 -0.8510 -0.5627
 2613TIP3   OH232033   0.809   1.245  18.618  0.1989  0.6505  0.3167
 2613TIP3    H132034   0.797   1.218  18.528 -0.3377  1.0337  0.2712
 2613TIP3    H232035   0.861   1.326  18.612  1.1752  0.0522  0.4177
 2614TIP3   OH232036   0.973   1.411  19.867 -0.1228 -0.2918 -0.1901
 2614TIP3    H132037   1.001   1.354  19.796 -0.5827  0.5382 -1.0627
 2614TIP3    H232038   0.893   1.371  19.900  0.4992 -1.0973  0.3920
 2615TIP3   OH232039   5.395   1.620  18.986 -0.3705 -0.6718  0.2837
 2615TIP3    H132040   5.369   1.554  18.921  1.3681  0.0466 -1.2344
 2615TIP3    H232041   5.490   1.610  18.992 -0.4632 -0.6232  2.6887
 2616TIP3   OH232042   0.650   1.035  16.203 -0.1373  0.3087 -0.1378
 2616TIP3    H132043   0.577   0.980  16.176 -0.2571 -0.0644  0.9072
 2616TIP3    H232044   0.662   1.097  16.131 -0.6349 -0.4594 -0.8899
 2617TIP3   OH232045   6.160   6.027  16.818  0.4166 -0.3726  0.1560
 2617TIP3    H132046   6.209   5.959  16.864  0.2195 -1.3050 -0.9657
 2617TIP3    H232047   6.201   6.032  16.732 -0.1633  0.3006 -0.0895
 2618TIP3   OH232048   0.866   1.662  19.329  0.6047 -0.0887 -0.1453
 2618TIP3    H132049   0.854   1.575  19.369  1.3876  0.0868  0.4877
 2618TIP3    H232050   0.957   1.685  19.348 -0.0698  1.6501  1.2645
 2619TIP3   OH232051   1.915   0.561  17.577  0.1298  0.5450 -0.1287
 2619TIP3    H132052   1.889   0.642  17.532 -0.9850  0.7570  0.8446
 2619TIP3    H232053   1.897   0.579  17.669 -0.6839 -1.0143  0.0414
 2620TIP3   OH232054   4.888   0.092  18.657 -0.4992  0.6692 -0.7416
 2620TIP3    H132055   4.967   0.079  18.710  0.7255  1.2057 -2.3602
 2620TIP3    H232056   4.868   0.005  18.622 -1.2113  0.3475  0.4073
 2621TIP3   OH232057   5.127   0.785  16.165  0.1138 -0.2557 -0.0465
 2621TIP3    H132058   5.163   0.845  16.100 -0.5703 -0.1051 -0.2928
 2621TIP3    H232059   5.182   0.707  16.158 -0.4220 -0.5352 -1.3485
 2622TIP3   OH232060   0.334   2.635  16.809  0.0339 -0.1977  0.2836
 2622TIP3    H132061   0.285   2.713  16.782  0.8185  0.2217  0.0437
 2622TIP3    H232062   0.421   2.647  16.771 -0.1066 -1.6511 -0.5705
 2623TIP3   OH232063   0.584   0.943  18.516  0.4120 -0.1303  0.3660
 2623TIP3    H132064   0.618   1.016  18.567 -0.3106 -0.7906  1.8813
 2623TIP3    H232065   0.563   0.877  18.582 -2.1680 -0.3967 -0.6443
 2624TIP3   OH232066   5.392   3.737  18.570  0.1376  0.8196 -0.5174
 2624TIP3    H132067   5.311   3.688  18.556  0.6799 -0.1519 -0.3534
 2624TIP3    H232068   5.365   3.814  18.620 -0.4898 -0.3128  0.9911
 2625TIP3   OH232069   1.290   2.133  18.806  0.5324 -0.6348  0.0366
 2625TIP3    H132070   1.380   2.154  18.830  0.9680 -0.5297 -1.6053
 2625TIP3    H232071   1.241   2.142  18.888  2.0802 -1.1550  1.0542
 2626TIP3   OH232072   3.289   1.630  19.170  0.0082  0.3989 -0.2666
 2626TIP3    H132073   3.365   1.626  19.112  0.8769 -1.0697  0.8832
 2626TIP3    H232074   3.325   1.616  19.257 -1.5082  0.3502  0.3837
 2627TIP3   OH232075   0.223   0.550  18.094  0.5316 -0.5732  0.4095
 2627TIP3    H132076   0.216   0.559  18.189 -0.0204 -2.8118  0.6492
 2627TIP3    H232077   0.312   0.578  18.073  0.7883 -0.4382  1.6353
 2628TIP3   OH232078   6.337   1.342  18.321  0.0912  0.2699  0.0248
 2628TIP3    H132079   6.372   1.253  18.312  1.0462  0.4690  1.4649
 2628TIP3    H232080   6.272   1.335  18.391 -1.2919  0.3400 -1.1990
 2629TIP3   OH232081   3.104   4.812  19.884 -0.2249  0.1836 -0.4684
 2629TIP3    H132082   3.099   4.718  19.868  0.1163 -0.3963  2.2288
 2629TIP3    H232083   3.144   4.849  19.806  2.3722 -2.3211 -0.4708
 2630TIP3   OH232084   3.799   2.784  19.564 -0.5067  0.1511  0.0420
 2630TIP3    H132085   3.867   2.810  19.502 -2.3255  1.1544 -1.6587
 2630TIP3    H232086   3.797   2.688  19.559  0.5862  0.1222 -0.0753
 2631TIP3   OH232087   2.529   1.996  18.432  0.1752  0.2886  0.5520
 2631TIP3    H132088   2.554   1.936  18.362 -1.1250 -0.0626  0.3534
 2631TIP3    H232089   2.601   2.059  18.437  0.6736 -0.1670 -0.5346
 2632TIP3   OH232090   0.260   3.467  19.595 -0.3891  0.4905  0.1558
 2632TIP3    H132091   0.287   3.558  19.578  2.2653 -0.4388 -1.2265
 2632TIP3    H232092   0.322   3.437  19.662 -1.0480 -0.3998  0.3759
 2633TIP3   OH232093   0.716   3.319  17.150  0.5947 -0.4861  0.1570
 2633TIP3    H132094   0.622   3.312  17.137  0.6277 -2.3656  0.6306
 2633TIP3    H232095   0.744   3.386  17.087 -1.0542  0.2636  0.1604
 2634TIP3   OH232096   0.140   6.105  16.869  0.3610 -0.0130 -0.1577
 2634TIP3    H132097   0.127   6.021  16.826 -0.3977 -0.6326  1.2524
 2634TIP3    H232098   0.063   6.157  16.845  0.1762 -0.1889  0.0548
 2635TIP3   OH232099   1.557   3.130  18.892 -0.1751 -0.2621 -0.3623
 2635TIP3    H132100   1.470   3.167  18.904  0.4858  1.7710 -1.3144
 2635TIP3    H232101   1.585   3.163  18.806  1.6182 -0.6639  0.0311
 2636TIP3   OH232102   3.501   3.228  17.476 -0.1142 -0.4030  0.0348
 2636TIP3    H132103   3.415   3.192  17.452 -0.1457 -0.2649 -0.0555
 2636TIP3    H232104   3.485   3.321  17.490 -0.4118 -0.6879  1.9779
 2637TIP3   OH232105   2.077   5.258  17.783  0.5136  0.1389  0.3278
 2637TIP3    H132106   1.993   5.303  17.771  0.5230  0.0759  0.0229
 2637TIP3    H232107   2.069   5.216  17.868  0.9425  1.6798  1.1662
 2638TIP3   OH232108   5.945   2.199  18.686  0.0247  0.4602  0.3228
 2638TIP3    H132109   5.872   2.168  18.633  0.9354  1.6426 -1.7405
 2638TIP3    H232110   5.908   2.208  18.774 -1.4691 -1.8715  0.0255
 2639TIP3   OH232111   3.146   6.297  18.753 -0.1118  0.1645  0.2357
 2639TIP3    H132112   3.241   6.285  18.744 -0.2229 -0.6819  0.1550
 2639TIP3    H232113   3.111   6.209  18.760 -0.8779  0.4846  0.5148
 2640TIP3   OH232114   1.604   4.732  18.552  0.4500  0.4045  0.3254
 2640TIP3    H132115   1.516   4.706  18.577  0.9201 -1.5462  0.0961
 2640TIP3    H232116   1.657   4.653  18.562  1.6776  0.8570 -1.8808
 2641TIP3   OH232117   0.457   3.026  16.970 -0.0180  0.2297 -0.2488
 2641TIP3    H132118   0.394   2.974  17.019  1.1211  0.0515  1.1008
 2641TIP3    H232119   0.435   3.117  16.991 -0.2038  0.1920 -0.2787
 2642TIP3   OH232120   2.070   4.885  17.778 -0.7136  0.1242 -0.3193
 2642TIP3    H132121   2.035   4.922  17.859  0.5039 -0.3990  0.4673
 2642TIP3    H232122   2.076   4.791  17.795 -0.6183 -0.0163 -1.0836
 2643TIP3   OH232123   5.096   0.863  19.017  0.3504 -0.6540  0.2991
 2643TIP3    H132124   5.136   0.860  19.104  1.2225 -0.2463 -0.0708
 2643TIP3    H232125   5.095   0.955  18.994 -0.4312 -0.7038  0.1139
 2644TIP3   OH232126   2.498   6.311  17.608  0.1424  0.2418  0.1189
 2644TIP3    H132127   2.541   6.338  17.690 -1.7577  2.3031  0.5394
 2644TIP3    H232128   2.528   6.375  17.544  0.5463 -0.5473 -0.4980
 2645TIP3   OH232129   3.142   5.724  20.041  0.4835  0.3696 -0.7182
 2645TIP3    H132130   3.174   5.773  20.116 -0.5247 -0.8760  0.5706
 2645TIP3    H232131   3.209   5.658  20.025  0.0053 -0.3358  0.0892
 2646TIP3   OH232132   5.845   4.362  18.929 -0.3926  0.0226  0.4101
 2646TIP3    H132133   5.766   4.402  18.966 -0.9893 -0.7044 -0.0591
 2646TIP3    H232134   5.917   4.398  18.982 -1.0921  0.1856  1.2699
 2647TIP3   OH232135   5.259   3.459  19.868 -0.3076 -0.4791 -0.2324
 2647TIP3    H132136   5.167   3.448  19.891 -0.1350  1.4485  1.6583
 2647TIP3    H232137   5.288   3.371  19.843 -2.0538 -1.6083  1.4285
 2648TIP3   OH232138   3.014   2.075  18.920  0.5259  0.4228 -0.2632
 2648TIP3    H132139   2.923   2.094  18.897  0.5339 -1.3164 -2.0264
 2648TIP3    H232140   3.008   2.018  18.997  0.0497 -0.3829 -0.8790
 2649TIP3   OH232141   1.264   5.566  18.976 -0.2436 -0.2658  0.0987
 2649TIP3    H132142   1.279   5.534  19.065 -0.0787  1.9263  0.9240
 2649TIP3    H232143   1.346   5.608  18.951 -0.3198 -0.7713 -1.0852
 2650TIP3   OH232144   2.734   3.381  19.810 -0.3582 -0.0969 -0.4033
 2650TIP3    H132145   2.679   3.453  19.779 -0.5145  0.2292  0.5980
 2650TIP3    H232146   2.706   3.306  19.757  0.5429  0.7748 -2.2026
 2651TIP3   OH232147   4.390   1.003  17.327 -0.2073 -0.0189 -0.3294
 2651TIP3    H132148   4.417   1.081  17.278 -2.6608  0.3764 -1.1940
 2651TIP3    H232149   4.339   0.951  17.264 -1.2678 -0.7705  1.0799
 2652TIP3   OH232150   4.965   4.627  19.518 -0.4450 -0.8830  0.1118
 2652TIP3    H132151   5.031   4.694  19.500 -0.0590 -1.1891  0.3611
 2652TIP3    H232152   4.985   4.597  19.607 -0.7032 -1.2299  0.0579
 2653TIP3   OH232153   4.236   2.470  18.619 -0.2259  0.5973  0.6149
 2653TIP3    H132154   4.263   2.427  18.538 -0.5504  0.6208  0.4927
 2653TIP3    H232155   4.306   2.450  18.681 -0.7648 -0.8154  0.8098
 2654TIP3   OH232156   2.150   4.381  19.201 -0.0280 -0.3536  0.0313
 2654TIP3    H132157   2.089   4.455  19.209  1.0943  0.7258 -0.9013
 2654TIP3    H232158   2.237   4.422  19.201  0.5810 -1.5040 -2.2758
 2655TIP3   OH232159   3.914   5.170  18.804  0.6322 -0.0008 -0.3068
 2655TIP3    H132160   3.876   5.169  18.717  1.2118  0.2409 -0.5737
 2655TIP3    H232161   3.932   5.263  18.821 -2.4049  0.3768  1.4072
 2656TIP3   OH232162   5.157   0.555  18.663  0.2673 -0.0558  0.0464
 2656TIP3    H132163   5.123   0.549  18.753  2.9829  2.2126  1.3794
 2656TIP3    H232164   5.188   0.467  18.644 -1.6317 -0.9325  0.7300
 2657TIP3   OH232165   6.476   1.566  18.209 -0.6659  0.5477  0.2288
 2657TIP3    H132166   6.412   1.508  18.251 -0.3330 -0.9610 -1.2155
 2657TIP3    H232167   6.541   1.583  18.277  1.0843 -3.6599 -0.0304
 2658TIP3   OH232168   5.818   3.471  18.731  0.3438  0.2280 -0.2265
 2658TIP3    H132169   5.858   3.502  18.812  0.5678  1.3137 -0.7334
 2658TIP3    H232170   5.768   3.546  18.699  1.8829  0.5385 -2.1161
 2659TIP3   OH232171   1.475   2.214  18.372  0.1131 -0.2109  0.0893
 2659TIP3    H132172   1.386   2.206  18.340  0.4232  0.3280 -0.9648
 2659TIP3    H232173   1.530   2.212  18.293  0.9168  0.9067  0.5798
 2660TIP3   OH232174   0.109   0.803  16.467  0.1862  0.1622 -0.5043
 2660TIP3    H132175   0.065   0.887  16.482 -0.8907 -0.3761 -0.5846
 2660TIP3    H232176   0.187   0.826  16.416  0.0920  1.1495 -0.2328
 2661TIP3   OH232177   1.046   5.526  19.438 -0.5724 -0.1780  0.0951
 2661TIP3    H132178   1.115   5.587  19.464  1.8001 -1.9992 -1.5376
 2661TIP3    H232179   1.027   5.477  19.518 -0.9191  1.1864  0.8756
 2662TIP3   OH232180   6.417   6.312  17.973  0.7744  0.4464 -0.1450
 2662TIP3    H132181   6.507   6.321  18.003 -0.0441 -0.2653  2.9180
 2662TIP3    H232182   6.415   6.228  17.927  1.2665 -0.7327  1.8591
 2663TIP3   OH232183   0.183   2.873  16.775 -0.5899 -0.6186 -0.2580
 2663TIP3    H132184   0.254   2.922  16.735 -1.2116 -0.0187 -0.6561
 2663TIP3    H232185   0.181   2.904  16.866 -1.8133  1.1177 -0.8235
 2664TIP3   OH232186   4.652   1.910  19.011  0.2101  0.3340  0.0531
 2664TIP3    H132187   4.597   1.926  19.088  0.8231 -0.9219  0.7997
 2664TIP3    H232188   4.696   1.827  19.031  0.3487 -0.0390 -1.6967
 2665TIP3   OH232189   4.536   4.449  18.205 -0.0955 -0.1838 -0.2856
 2665TIP3    H132190   4.514   4.517  18.142 -0.1679  1.5216  1.4603
 2665TIP3    H232191   4.577   4.380  18.154  0.9889  1.6520 -2.0333
 2666TIP3   OH232192   5.392   6.309  18.718  0.2888 -1.0206 -0.5331
 2666TIP3    H132193   5.458   6.241  18.705  2.5699  0.8315  0.6084
 2666TIP3    H232194   5.409   6.373  18.648 -0.1450 -0.4372 -0.1148
 2667TIP3   OH232195   6.206   4.955  19.843  0.1490 -0.4674 -0.0474
 2667TIP3    H132196   6.232   4.934  19.753  0.6061  1.2006 -0.3446
 2667TIP3    H232197   6.182   5.048  19.839 -0.4092 -0.5282  1.4385
 2668TIP3   OH232198   3.074   2.462  18.570  0.2199 -0.4490 -0.0980
 2668TIP3    H132199   3.062   2.368  18.573  1.3313 -0.5949  0.1697
 2668TIP3    H232200   2.989   2.498  18.595 -0.2515 -1.3716 -0.3424
 2669TIP3   OH232201   4.954   3.837  19.309 -0.5779  0.1073  0.1872
 2669TIP3    H132202   4.897   3.787  19.250 -2.4315  2.4109 -0.1018
 2669TIP3    H232203   5.014   3.883  19.250  0.0096 -0.4059  0.3651
 2670TIP3   OH232204   0.988   4.018  17.568  0.0805 -0.0999 -0.1001
 2670TIP3    H132205   0.897   4.000  17.545  0.4190 -1.5528 -0.3869
 2670TIP3    H232206   1.031   3.933  17.564  1.4308  0.5470  0.1620
 2671TIP3   OH232207   5.918   0.963  15.999 -0.3179 -0.1406  0.1781
 2671TIP3    H132208   5.861   0.944  15.924 -0.7144  0.1786  0.3890
 2671TIP3    H232209   5.945   0.877  16.032 -1.7869 -0.3608  0.9011
 2672TIP3   OH232210   1.103   6.692  19.760 -0.4178  0.0702  0.2423
 2672TIP3    H132211   1.190   6.680  19.798 -0.0951  0.0528 -0.4885
 2672TIP3    H232212   1.119   6.733  19.675 -1.0417 -0.8663 -0.3458
 2673TIP3   OH232213   5.243   4.106  18.374  0.1887 -0.1329  0.0552
 2673TIP3    H132214   5.185   4.037  18.342 -0.3308 -0.1599  0.9934
 2673TIP3    H232215   5.184   4.179  18.395  0.4038 -0.3202  1.4468
 2674TIP3   OH232216   6.185   2.157  18.443  0.3299 -0.3698  0.5667
 2674TIP3    H132217   6.116   2.189  18.502  0.2007  0.0930  0.1703
 2674TIP3    H232218   6.231   2.090  18.494 -0.0433 -0.2677  1.0450
 2675TIP3   OH232219   6.041   0.858  17.574 -0.9881  0.2040 -0.2511
 2675TIP3    H132220   5.999   0.784  17.529 -1.4984  0.8449 -0.8728
 2675TIP3    H232221   6.112   0.884  17.515 -0.5720 -0.0152  0.1461
 2676TIP3   OH232222   5.537   4.221  19.768  0.1435  0.3011  0.2225
 2676TIP3    H132223   5.521   4.315  19.761 -0.4541  0.1495 -0.5827
 2676TIP3    H232224   5.460   4.186  19.812 -1.1095 -0.2031 -2.1927
 2677TIP3   OH232225   6.004   1.294  16.780  0.2686  0.3083 -0.0700
 2677TIP3    H132226   5.920   1.256  16.806 -0.1328  0.7144 -0.7745
 2677TIP3    H232227   5.991   1.388  16.787  0.3595  0.4034 -1.0973
 2678TIP3   OH232228   5.262   4.342  19.424  0.0065 -0.5837 -0.8690
 2678TIP3    H132229   5.277   4.249  19.409 -2.2089 -1.5917  2.0364
 2678TIP3    H232230   5.169   4.355  19.405 -0.1430  0.5544  0.4184
 2679TIP3   OH232231   5.421   0.551  19.440  0.1850  0.0177 -0.1734
 2679TIP3    H132232   5.479   0.622  19.412 -0.0760 -0.4625 -2.1339
 2679TIP3    H232233   5.458   0.473  19.399  0.2019 -0.9250  1.5703
 2680TIP3   OH232234   5.857   4.956  17.922  0.2332 -0.1595  0.0657
 2680TIP3    H132235   5.852   4.902  17.843 -0.7177  1.5102 -1.0738
 2680TIP3    H232236   5.916   5.027  17.900 -0.4805  0.6431  0.6444
 2681TIP3   OH232237   4.408   2.293  17.441 -0.1582 -0.2118  0.2905
 2681TIP3    H132238   4.329   2.248  17.410  0.1453 -0.0096 -0.8022
 2681TIP3    H232239   4.462   2.304  17.363  1.2575 -0.9297  1.1358
 2682TIP3   OH232240   0.302   6.371  17.236 -0.1576 -0.0734  0.5836
 2682TIP3    H132241   0.227   6.428  17.223 -0.4687 -0.8179 -1.1303
 2682TIP3    H232242   0.352   6.413  17.306 -2.5907 -0.0474  2.4531
 2683TIP3   OH232243   5.613   5.908  19.256 -0.3474  0.2093  0.0108
 2683TIP3    H132244   5.565   5.896  19.175 -0.6338 -1.9162  0.4588
 2683TIP3    H232245   5.659   5.826  19.270  0.9066  1.0636  1.2417
 2684TIP3   OH232246   4.789   4.686  18.201  0.1309  0.1512 -0.4118
 2684TIP3    H132247   4.856   4.682  18.133  0.0643  4.2956 -1.0008
 2684TIP3    H232248   4.710   4.714  18.155 -1.3055 -1.8661  0.7066
 2685TIP3   OH232249   3.999   0.824  18.423  0.4675 -0.1594  0.2086
 2685TIP3    H132250   3.989   0.779  18.339  0.3639 -0.7026  0.5086
 2685TIP3    H232251   4.091   0.850  18.426 -0.0481  2.0793 -1.1714
 2686TIP3   OH232252   6.192   6.730  18.983  0.7573  0.1049 -0.3948
 2686TIP3    H132253   6.221   6.810  18.939  0.9789  0.0988 -0.2613
 2686TIP3    H232254   6.142   6.683  18.917  1.2317  0.0139 -0.6948
 2687TIP3   OH232255   5.459   5.419  17.813  0.2156  0.2324 -0.1722
 2687TIP3    H132256   5.446   5.513  17.803 -2.1284  0.0446  0.4695
 2687TIP3    H232257   5.443   5.383  17.725  2.4688  0.4785 -0.7515
 2688TIP3   OH232258   2.300   5.370  17.703 -0.0953  0.3662 -0.3206
 2688TIP3    H132259   2.222   5.328  17.740  0.3971 -0.5437 -0.3023
 2688TIP3    H232260   2.267   5.421  17.629 -0.6258 -0.5129 -0.7011
 2689TIP3   OH232261   1.163   1.428  17.980  0.5039 -0.2650  0.0650
 2689TIP3    H132262   1.229   1.454  18.044 -0.6366  0.0387  1.1566
 2689TIP3    H232263   1.165   1.333  17.980  1.8959 -0.2786 -0.9752
 2690TIP3   OH232264   0.480   2.793  18.778 -0.6110  0.7004  0.6648
 2690TIP3    H132265   0.478   2.884  18.808 -1.8687  0.8703  0.1490
 2690TIP3    H232266   0.513   2.798  18.688  1.2273  0.4116  1.2955
 2691TIP3   OH232267   5.148   1.372  19.831 -0.3185  0.1415  0.3054
 2691TIP3    H132268   5.193   1.403  19.752  2.5244  1.8964  2.4274
 2691TIP3    H232269   5.103   1.450  19.865 -0.7537 -0.3660  0.9161
 2692TIP3   OH232270   4.648   0.253  17.551 -0.0372  0.1202  0.2070
 2692TIP3    H132271   4.719   0.193  17.573 -0.5247 -0.9326 -0.9862
 2692TIP3    H232272   4.568   0.205  17.571 -0.4468  1.1550  1.1800
 2693TIP3   OH232273   0.900   3.780  19.477 -0.5280  0.1030 -0.2516
 2693TIP3    H132274   0.828   3.843  19.471  0.1011  0.9526  0.6593
 2693TIP3    H232275   0.935   3.793  19.565  2.2325  1.3891 -1.4330
 2694TIP3   OH232276   0.044   6.464  18.483 -0.4906  0.1387  0.0518
 2694TIP3    H132277   0.007   6.420  18.406  0.1883 -0.4360  0.0400
 2694TIP3    H232278   0.013   6.412  18.557 -1.2811  0.7891  0.1886
 2695TIP3   OH232279   2.102   1.276  19.510 -0.3061 -0.2262 -0.2627
 2695TIP3    H132280   2.041   1.261  19.583 -1.7452  2.0335 -0.9190
 2695TIP3    H232281   2.072   1.216  19.442 -0.1773 -0.9318  0.2793
 2696TIP3   OH232282   2.276   4.512  18.518  0.4488  0.2365  0.7464
 2696TIP3    H132283   2.300   4.596  18.480  0.3051 -0.2146 -0.3868
 2696TIP3    H232284   2.357   4.478  18.555  1.2894 -0.5391 -1.6168
 2697TIP3   OH232285   6.298   3.836  18.391  0.3015  0.0763 -0.1433
 2697TIP3    H132286   6.355   3.834  18.468 -0.4957 -0.3135  0.4470
 2697TIP3    H232287   6.229   3.773  18.410 -1.5231  2.0302  0.1080
 2698TIP3   OH232288   3.400   3.622  18.222 -0.9069  0.1804 -0.2120
 2698TIP3    H132289   3.370   3.713  18.227  0.3078  0.7606 -2.3610
 2698TIP3    H232290   3.489   3.628  18.186 -0.0929 -1.7717  1.2920
 2699TIP3   OH232291   0.159   2.130  19.766  0.0653 -0.6434 -0.0451
 2699TIP3    H132292   0.235   2.118  19.823  1.2080 -2.5220 -1.8286
 2699TIP3    H232293   0.134   2.042  19.741 -3.1646 -0.1218  0.9402
 2700TIP3   OH232294   4.171   6.323  18.633 -0.2565 -0.4391  0.4412
 2700TIP3    H132295   4.215   6.373  18.702  0.7976  0.1961 -0.6525
 2700TIP3    H232296   4.214   6.237  18.635  0.4948 -0.0854 -0.0868
 2701TIP3   OH232297   3.857   5.719  18.588 -0.2438 -0.2456  0.5373
 2701TIP3    H132298   3.888   5.680  18.669  0.2384  1.5906  1.2801
 2701TIP3    H232299   3.932   5.715  18.529 -0.0745 -0.0834  0.7404
 2702TIP3   OH232300   4.184   1.758  16.697  0.1513  0.0505  0.1430
 2702TIP3    H132301   4.227   1.796  16.620 -0.1577 -0.3930 -0.2548
 2702TIP3    H232302   4.099   1.803  16.702  0.2092  0.1463  0.2853
 2703TIP3   OH232303   6.331   0.358  17.336 -0.3655 -0.1957 -0.2510
 2703TIP3    H132304   6.387   0.342  17.411 -1.7718 -4.0716  0.2246
 2703TIP3    H232305   6.283   0.437  17.358  2.4118  1.3333  0.7928
 2704TIP3   OH232306   2.862   0.106  19.483  0.3126  0.7938  0.4896
 2704TIP3    H132307   2.816   0.190  19.482 -0.4968  0.4887  3.4811
 2704TIP3    H232308   2.797   0.042  19.454  0.1484  0.8789  0.6758
 2705TIP3   OH232309   4.399   1.217  17.839  0.0678 -0.3431  0.0574
 2705TIP3    H132310   4.335   1.284  17.815  0.1204 -0.4103 -0.2888
 2705TIP3    H232311   4.458   1.213  17.763  1.5177  0.9554  1.0749
 2706TIP3   OH232312   3.966   5.942  17.781 -0.5100  0.0993 -0.1061
 2706TIP3    H132313   4.026   5.996  17.730 -1.2641  2.0112  0.9186
 2706TIP3    H232314   4.019   5.906  17.852 -0.2168  0.4219 -0.1599
 2707TIP3   OH232315   3.517   5.344  18.011  0.3035  0.2833 -0.7939
 2707TIP3    H132316   3.526   5.412  17.945  3.4927  0.9114  0.1144
 2707TIP3    H232317   3.476   5.388  18.085 -2.5675 -0.2355 -1.9450
 2708TIP3   OH232318   6.371   1.988  16.936 -0.3477  0.4739 -0.4193
 2708TIP3    H132319   6.459   2.006  16.902 -0.3233 -0.0638 -0.6368
 2708TIP3    H232320   6.317   1.975  16.858 -0.1817 -1.2993 -0.2606
 2709TIP3   OH232321   1.641   2.333  20.006  0.0923  0.1020 -0.3360
 2709TIP3    H132322   1.638   2.240  20.028  1.4901  0.0926 -0.0857
 2709TIP3    H232323   1.552   2.355  19.982 -1.0074 -0.5578  2.7037
 2710TIP3   OH232324   3.741   5.433  19.514  0.4390  0.1336  0.0836
 2710TIP3    H132325   3.819   5.379  19.506 -0.0387 -0.3819 -1.3461
 2710TIP3    H232326   3.703   5.408  19.598  1.2097 -0.4153  0.2788
 2711TIP3   OH232327   6.793   1.725  18.645 -0.5086 -0.3801 -0.1872
 2711TIP3    H132328   6.745   1.794  18.690  0.1729 -0.5276  0.8110
 2711TIP3    H232329   6.815   1.662  18.714  0.2573 -0.7923 -0.7862
 2712TIP3   OH232330   4.052   4.977  19.820  0.1723 -0.1511  0.6574
 2712TIP3    H132331   4.081   5.054  19.870 -2.5157 -0.2706  2.5954
 2712TIP3    H232332   3.957   4.985  19.817 -0.1453 -3.0816  0.3668
 2713TIP3   OH232333   3.197   5.769  19.286 -0.2065  0.0049  0.5149
 2713TIP3    H132334   3.166   5.689  19.244  0.8083 -0.5973  0.8620
 2713TIP3    H232335   3.239   5.738  19.367  0.8196  0.8097  0.3086
 2714TIP3   OH232336   0.795   6.010  19.828 -0.2992  0.2292 -0.8239
 2714TIP3    H132337   0.872   5.994  19.773  0.8275  0.0619  0.7403
 2714TIP3    H232338   0.798   5.941  19.894 -0.7491  1.3056  0.3569
 2715TIP3   OH232339   3.928   0.370  17.403  0.0368 -0.6162 -0.2731
 2715TIP3    H132340   3.987   0.356  17.329  0.4012 -0.2573 -0.0559
 2715TIP3    H232341   3.972   0.436  17.457 -0.8132  0.0583 -0.3785
 2716TIP3   OH232342   1.437   5.860  17.013  0.0794 -0.3784 -0.0047
 2716TIP3    H132343   1.466   5.926  16.950 -0.1275  0.4578  0.7668
 2716TIP3    H232344   1.450   5.777  16.967 -0.2956  0.2257 -1.2428
 2717TIP3   OH232345   4.655   5.457  16.289 -0.3881  0.0399  0.1476
 2717TIP3    H132346   4.563   5.483  16.288 -0.0901  1.2908  1.3849
 2717TIP3    H232347   4.701   5.534  16.322  0.7475 -1.5039  2.4621
 2718TIP3   OH232348   3.836   5.348  16.530 -0.1773  0.2067 -0.4108
 2718TIP3    H132349   3.863   5.424  16.479 -1.9669  1.3941  0.3323
 2718TIP3    H232350   3.741   5.346  16.522 -0.3118 -0.8731  1.0727
 2719TIP3   OH232351   0.507   2.419  18.474 -0.3830 -0.3802 -1.1353
 2719TIP3    H132352   0.509   2.385  18.563 -0.8672 -0.4069 -1.1327
 2719TIP3    H232353   0.517   2.341  18.418  2.3732 -0.1600 -1.1152
 2720TIP3   OH232354   1.474   0.542  17.055  0.1994  0.3349  0.6080
 2720TIP3    H132355   1.459   0.550  16.961  0.5720  0.5025  0.5627
 2720TIP3    H232356   1.567   0.561  17.066  0.0105  0.9835  1.0905
 2721TIP3   OH232357   3.084   1.561  18.837 -0.1331  0.0312 -0.2478
 2721TIP3    H132358   3.016   1.522  18.782 -2.3489  2.3601  0.6291
 2721TIP3    H232359   3.133   1.618  18.777 -0.2988 -0.0783 -0.4877
 2722TIP3   OH232360   6.228   3.078  17.879  0.4633  0.2872  0.4174
 2722TIP3    H132361   6.188   3.120  17.955 -0.9726  2.0546 -1.2136
 2722TIP3    H232362   6.300   3.135  17.855  0.6152 -0.0029  0.1804
 2723TIP3   OH232363   3.618   3.739  18.445  1.0046 -0.0081 -0.1567
 2723TIP3    H132364   3.664   3.655  18.456 -0.6079 -0.7964  0.9484
 2723TIP3    H232365   3.531   3.724  18.483  0.6352  2.1495 -0.0335
 2724TIP3   OH232366   5.379   6.780  17.798  0.3790 -0.4404 -0.6162
 2724TIP3    H132367   5.328   6.860  17.784  1.8619  0.2184 -2.6720
 2724TIP3    H232368   5.464   6.810  17.828  0.7427 -1.2978 -0.7515
 2725TIP3   OH232369   6.081   3.245  18.069  0.3975  0.5546  0.3075
 2725TIP3    H132370   6.053   3.259  18.160  0.3440  0.0964  0.3678
 2725TIP3    H232371   6.001   3.254  18.018  0.4466  0.9214  0.2906
 2726TIP3   OH232372   0.286   3.616  18.385  0.2228 -0.3356  0.4140
 2726TIP3    H132373   0.193   3.637  18.371  0.6513  1.7619  0.3890
 2726TIP3    H232374   0.314   3.576  18.303 -0.3488  0.2622 -0.0846
 2727TIP3   OH232375   6.719   5.239  19.565  0.0062 -0.1011  0.1863
 2727TIP3    H132376   6.789   5.259  19.628 -0.6190 -0.5791  1.0481
 2727TIP3    H232377   6.670   5.168  19.605 -0.7164 -0.0730 -0.6203
 2728TIP3   OH232378   3.905   1.135  18.435  0.4104 -0.3426  0.4560
 2728TIP3    H132379   3.945   1.080  18.368  1.5041  0.3850  0.4814
 2728TIP3    H232380   3.979   1.177  18.479 -0.3520  0.3808  1.0954
 2729TIP3   OH232381   1.905   3.099  18.829  0.0829 -0.1421 -0.0836
 2729TIP3    H132382   1.902   3.134  18.919 -1.3910  0.5853 -0.3878
 2729TIP3    H232383   1.949   3.168  18.779 -1.4893  0.6726 -0.3996
 2730TIP3   OH232384   3.714   3.169  18.442  0.1707 -0.1959  0.3102
 2730TIP3    H132385   3.765   3.207  18.370 -2.1115  1.0891 -0.7152
 2730TIP3    H232386   3.628   3.153  18.405 -0.5542 -1.1856  2.3081
 2731TIP3   OH232387   6.545   0.689  19.765 -0.4303 -0.6618 -0.0348
 2731TIP3    H132388   6.473   0.742  19.798  0.1619  0.2500 -0.1886
 2731TIP3    H232389   6.585   0.743  19.697  0.1362 -1.3358 -0.2452
 2732TIP3   OH232390   1.017   0.940  16.330  0.2085  0.0597  0.1169
 2732TIP3    H132391   1.108   0.912  16.329 -0.0096 -0.7271 -1.4739
 2732TIP3    H232392   0.973   0.881  16.269 -1.2707  0.7659  0.4372
 2733TIP3   OH232393   3.030   6.163  19.170  0.1967  0.4874 -0.4871
 2733TIP3    H132394   2.997   6.158  19.259 -1.0306 -0.1053 -0.9443
 2733TIP3    H232395   3.056   6.254  19.158 -0.6711  0.8240  0.1206
 2734TIP3   OH232396   2.154   3.076  18.991  0.0135  0.2234  0.7390
 2734TIP3    H132397   2.135   3.167  19.015 -0.0353  0.6005 -0.6539
 2734TIP3    H232398   2.213   3.045  19.059  0.1608  1.3576  1.1411
 2735TIP3   OH232399   0.257   2.875  17.358 -0.4965 -0.1412 -0.7303
 2735TIP3    H132400   0.331   2.935  17.349  1.0492 -1.0711  3.3923
 2735TIP3    H232401   0.298   2.788  17.356 -1.5556 -0.7084  0.6253
 2736TIP3   OH232402   3.351   6.412  17.352 -0.0085 -0.0607  0.6964
 2736TIP3    H132403   3.292   6.342  17.324 -1.0527  0.5957  1.1838
 2736TIP3    H232404   3.400   6.374  17.425 -0.3785 -0.3756  0.7850
 2737TIP3   OH232405   4.131   2.734  18.250 -0.3749 -0.4847  0.0276
 2737TIP3    H132406   4.070   2.724  18.323 -0.6709  1.9761  0.1939
 2737TIP3    H232407   4.079   2.715  18.172 -0.9749  0.1650  0.2609
 2738TIP3   OH232408   0.388   1.786  19.840  0.2594 -0.0753 -0.0366
 2738TIP3    H132409   0.314   1.793  19.780  0.5317 -1.5532 -0.5857
 2738TIP3    H232410   0.418   1.695  19.831 -1.3393 -1.2605  4.3258
 2739TIP3   OH232411   4.898   1.012  17.723 -0.1917  0.0675 -0.3959
 2739TIP3    H132412   4.977   0.995  17.773 -1.2583  1.2240  1.8489
 2739TIP3    H232413   4.838   0.941  17.747 -0.8888  0.9064  0.4462
 2740TIP3   OH232414   3.019   0.113  17.787  0.4376  0.1559 -0.2543
 2740TIP3    H132415   2.923   0.104  17.783  0.6139 -1.6913 -1.9075
 2740TIP3    H232416   3.041   0.168  17.711  0.8188 -1.5570 -1.4538
 2741TIP3   OH232417   6.402   2.855  19.270  0.1524 -0.4046 -0.3009
 2741TIP3    H132418   6.450   2.820  19.345 -0.1411 -0.4695 -0.1415
 2741TIP3    H232419   6.464   2.848  19.197  0.9120  0.8674  0.1812
 2742TIP3   OH232420   0.448   6.042  16.974  0.3995  0.4276  0.7296
 2742TIP3    H132421   0.509   6.027  16.902  0.6618  1.5824  0.6892
 2742TIP3    H232422   0.369   5.994  16.950 -0.1075  2.0687 -1.1314
 2743TIP3   OH232423   0.546   6.231  19.426  0.2291  0.6215  0.2664
 2743TIP3    H132424   0.485   6.261  19.493 -3.1419 -0.9567 -1.7957
 2743TIP3    H232425   0.524   6.282  19.348 -0.8185 -2.1444 -1.3914
 2744TIP3   OH232426   3.679   3.552  17.684 -0.0720 -0.0239 -0.2765
 2744TIP3    H132427   3.722   3.469  17.701  0.3673  0.3392  0.4421
 2744TIP3    H232428   3.617   3.533  17.614 -0.2789 -1.0517  0.1666
 2745TIP3   OH232429   5.748   3.230  16.282  0.5540  0.0862  0.3778
 2745TIP3    H132430   5.742   3.322  16.310  0.3593  0.0890  0.3284
 2745TIP3    H232431   5.658   3.198  16.288  0.4840  0.1251 -0.3799
 2746TIP3   OH232432   0.739   6.607  18.566 -0.6811  0.0447 -0.2165
 2746TIP3    H132433   0.693   6.549  18.627 -1.7146  1.9109  0.9015
 2746TIP3    H232434   0.703   6.586  18.480 -1.2210 -0.7697  0.2008
 2747TIP3   OH232435   3.932   3.008  18.016 -0.1447 -0.2349  0.1260
 2747TIP3    H132436   3.955   3.100  18.000 -0.6649 -0.2441 -0.7028
 2747TIP3    H232437   3.984   2.960  17.952 -1.8526 -0.3130 -1.2769
 2748TIP3   OH232438   1.336   2.301  17.456 -0.5576 -0.8390 -0.2331
 2748TIP3    H132439   1.251   2.263  17.436 -1.2684  0.8650 -0.5997
 2748TIP3    H232440   1.394   2.267  17.388 -1.2872 -0.8722 -0.8508
 2749TIP3   OH232441   0.836   5.471  18.717 -0.6654  0.1734  0.2635
 2749TIP3    H132442   0.793   5.390  18.691 -0.6993 -0.2147  1.4448
 2749TIP3    H232443   0.919   5.444  18.755 -0.6825  0.6740  0.6848
 2750TIP3   OH232444   1.252   0.410  18.961  0.2274 -0.0703  0.3034
 2750TIP3    H132445   1.200   0.342  18.917 -0.8676  1.8744 -1.5689
 2750TIP3    H232446   1.336   0.409  18.915 -0.2743  0.7354 -0.6542
 2751TIP3   OH232447   3.310   3.311  19.773  0.5316  0.2267 -0.3950
 2751TIP3    H132448   3.260   3.392  19.786 -3.0032 -1.8685  0.3383
 2751TIP3    H232449   3.326   3.308  19.679  2.2823  2.4776 -0.2733
 2752TIP3   OH232450   3.828   0.279  17.103  0.2538  0.1255  0.5632
 2752TIP3    H132451   3.920   0.262  17.126 -0.0554 -0.8009  1.1794
 2752TIP3    H232452   3.794   0.194  17.078 -0.5413  0.4007  0.7003
 2753TIP3   OH232453   3.743   0.309  18.734  0.2597  0.2978 -0.3711
 2753TIP3    H132454   3.785   0.388  18.701  1.5800 -0.4557 -0.5938
 2753TIP3    H232455   3.684   0.340  18.803  1.1199  1.4402 -0.1118
 2754TIP3   OH232456   5.174   6.082  18.914  0.4317  0.7379 -0.5300
 2754TIP3    H132457   5.230   6.068  18.991  0.1013 -2.4784 -0.7635
 2754TIP3    H232458   5.102   6.136  18.948 -0.0282 -1.0777  1.6653
 2755TIP3   OH232459   1.345   0.045  17.575 -0.4156  0.3325  0.9282
 2755TIP3    H132460   1.343   0.047  17.479 -1.1940 -0.7987  0.9107
 2755TIP3    H232461   1.435   0.023  17.596 -0.8090 -2.0091  0.3761
 2756TIP3   OH232462   6.258   1.718  19.943 -0.6901  0.1665  0.3413
 2756TIP3    H132463   6.190   1.759  19.998 -0.7053 -1.0541  1.2730
 2756TIP3    H232464   6.215   1.641  19.906  0.1687 -0.6029  0.9127
 2757TIP3   OH232465   0.550   1.515  16.952 -0.5266  0.0746  0.1704
 2757TIP3    H132466   0.619   1.461  16.990  0.0766 -0.2577 -1.3376
 2757TIP3    H232467   0.469   1.470  16.974 -0.0444 -1.4589 -0.9845
 2758TIP3   OH232468   5.212   2.533  16.476 -0.2795 -0.1416 -0.3227
 2758TIP3    H132469   5.133   2.479  16.474  0.6631 -1.5879 -0.0207
 2758TIP3    H232470   5.248   2.518  16.563  0.3686  0.4779 -0.4764
 2759TIP3   OH232471   3.702   4.816  17.203  0.1466 -0.2098 -0.3238
 2759TIP3    H132472   3.678   4.726  17.177  1.7841 -0.0857 -2.5195
 2759TIP3    H232473   3.636   4.840  17.268 -0.8823 -2.6687 -0.3412
 2760TIP3   OH232474   5.866   4.557  18.174  0.3962 -0.2235  0.1740
 2760TIP3    H132475   5.859   4.616  18.249 -0.8161  1.0556 -0.8898
 2760TIP3    H232476   5.958   4.530  18.174  0.9789  1.5860  0.7663
 2761TIP3   OH232477   3.473   3.506  17.506 -0.3667 -0.2710 -0.0837
 2761TIP3    H132478   3.463   3.509  17.410 -0.5786  0.2989 -0.0473
 2761TIP3    H232479   3.404   3.564  17.539  0.1785  0.1234  0.3829
 2762TIP3   OH232480   2.244   2.106  17.092  0.1546  0.1604 -0.2696
 2762TIP3    H132481   2.244   2.073  17.002  1.9905  0.6708 -0.4874
 2762TIP3    H232482   2.265   2.029  17.146  0.8754  0.2150 -0.4587
 2763TIP3   OH232483   0.657   6.524  18.104 -0.5729  0.0594  0.1635
 2763TIP3    H132484   0.663   6.527  18.009 -0.3618  0.4488  0.1895
 2763TIP3    H232485   0.744   6.550  18.135 -0.1410 -1.5803  0.4511
 2764TIP3   OH232486   0.642   3.386  18.415 -0.1285 -0.0021 -0.3992
 2764TIP3    H132487   0.669   3.408  18.504 -1.9967  2.3834 -0.3089
 2764TIP3    H232488   0.679   3.454  18.360 -1.1230  0.0460 -1.0521
 2765TIP3   OH232489   3.089   2.124  19.214 -0.3594 -0.1477  0.4244
 2765TIP3    H132490   3.074   2.067  19.289 -0.6694 -0.4306  0.1514
 2765TIP3    H232491   3.147   2.073  19.157 -0.7511 -0.2533  0.1129
 2766TIP3   OH232492   5.438   4.860  19.325  0.0827 -0.3878  0.6063
 2766TIP3    H132493   5.470   4.821  19.244  2.0133 -0.8190  1.5174
 2766TIP3    H232494   5.386   4.791  19.366 -0.2842 -0.4221  0.0833
 2767TIP3   OH232495   4.483   3.218  17.817  0.3751 -0.3200 -0.3441
 2767TIP3    H132496   4.533   3.161  17.876  1.3192  0.4626 -0.3683
 2767TIP3    H232497   4.453   3.160  17.747  0.8138 -0.8987 -0.0557
 2768TIP3   OH232498   4.432   6.646  18.422  0.1436  0.3560  0.4335
 2768TIP3    H132499   4.437   6.551  18.429 -3.2799  0.1161  1.4039
 2768TIP3    H232500   4.381   6.662  18.342  0.9086  1.4291  0.1306
 2769TIP3   OH232501   6.308   0.898  17.750  0.7563  0.2115  0.4306
 2769TIP3    H132502   6.358   0.900  17.832 -0.2053  0.2557  1.0324
 2769TIP3    H232503   6.225   0.857  17.773 -0.1708  1.6815 -0.1419
 2770TIP3   OH232504   2.575   2.000  17.776 -0.4815  0.2126 -0.1416
 2770TIP3    H132505   2.508   2.015  17.710 -1.6962  1.0443  1.2213
 2770TIP3    H232506   2.527   1.978  17.855  0.8556  0.6230  0.8310
 2771TIP3   OH232507   6.422   3.974  18.075 -0.4212  0.3438  0.1814
 2771TIP3    H132508   6.348   4.025  18.108 -0.2172 -0.9176  2.8576
 2771TIP3    H232509   6.387   3.886  18.063  0.0311  0.3198 -1.2167
 2772TIP3   OH232510   2.765   4.606  17.087  0.0499  0.3960 -0.0410
 2772TIP3    H132511   2.785   4.539  17.152 -0.0529  1.8460  1.5265
 2772TIP3    H232512   2.849   4.648  17.070  0.2970 -0.6371 -1.7057
 2773TIP3   OH232513   4.642   0.480  19.259  0.2901 -0.1814 -0.6116
 2773TIP3    H132514   4.632   0.546  19.328  2.0562 -0.5038  0.0276
 2773TIP3    H232515   4.696   0.523  19.193 -0.3485 -0.2975 -1.2171
 2774TIP3   OH232516   3.502   4.527  17.981 -0.0042 -0.4522  0.5019
 2774TIP3    H132517   3.538   4.439  17.967  2.3383  0.4003  0.6419
 2774TIP3    H232518   3.490   4.533  18.076  0.1630 -0.5298  0.5293
 2775TIP3   OH232519   0.342   1.066  19.671 -0.1073  0.0285  1.0643
 2775TIP3    H132520   0.294   1.015  19.736  0.8836  0.2872  2.0229
 2775TIP3    H232521   0.330   1.017  19.589 -3.8969  1.2473  0.6783
 2776TIP3   OH232522   5.306   2.265  18.548  0.3891  0.0877  0.1134
 2776TIP3    H132523   5.262   2.245  18.465 -1.8928  0.6847  1.0925
 2776TIP3    H232524   5.375   2.199  18.556 -0.0410 -0.6284 -1.7416
 2777TIP3   OH232525   5.886   0.873  18.290 -0.3381 -0.3148 -0.0093
 2777TIP3    H132526   5.865   0.944  18.229  0.1762 -0.4193 -0.3142
 2777TIP3    H232527   5.982   0.867  18.289 -0.3877 -1.3590 -0.4039
 2778TIP3   OH232528   5.312   5.781  19.193  0.2425  0.0853 -0.2834
 2778TIP3    H132529   5.216   5.779  19.190  0.1567  1.1754  0.8624
 2778TIP3    H232530   5.334   5.874  19.193  1.3081 -0.1551 -0.5169
 2779TIP3   OH232531   6.523   0.121  16.199  0.3365  0.1000  0.2957
 2779TIP3    H132532   6.525   0.202  16.149  0.6961  0.7258  1.2855
 2779TIP3    H232533   6.452   0.134  16.262  1.3277  0.2557  1.4130
 2780TIP3   OH232534   0.569   1.146  17.294  0.3078 -0.5165 -0.1637
 2780TIP3    H132535   0.644   1.114  17.243  1.0268  0.2856  0.3649
 2780TIP3    H232536   0.493   1.123  17.240  1.0692  0.8248 -1.9355
 2781TIP3   OH232537   5.043   6.026  16.443  0.1102  0.2170 -0.7065
 2781TIP3    H132538   5.026   6.061  16.355  0.8766 -0.2002 -1.0276
 2781TIP3    H232539   5.112   6.082  16.478 -0.9575  1.0892  0.0884
 2782TIP3   OH232540   6.770   2.642  19.795 -0.8449  0.0430  0.4279
 2782TIP3    H132541   6.756   2.614  19.705  0.6668  0.6804 -0.0466
 2782TIP3    H232542   6.713   2.719  19.805 -0.9992 -0.0116  0.0089
 2783TIP3   OH232543   6.785   2.581  17.475 -0.4194  0.4154  0.1363
 2783TIP3    H132544   6.780   2.531  17.557 -0.3263  1.5239  0.8304
 2783TIP3    H232545   6.705   2.634  17.475  0.3964  1.6825  0.3558
 2784TIP3   OH232546   6.157   6.646  19.392  0.2675  0.1554  0.7317
 2784TIP3    H132547   6.229   6.696  19.351  1.2130 -1.8133 -0.1460
 2784TIP3    H232548   6.176   6.649  19.486  1.2048  0.1015  0.5513
 2785TIP3   OH232549   3.013   3.438  19.574 -0.1220  0.2770 -0.0433
 2785TIP3    H132550   3.037   3.502  19.643 -2.0700  0.5211  0.4576
 2785TIP3    H232551   2.984   3.492  19.501 -0.1484 -0.0223 -0.2534
 2786TIP3   OH232552   1.148   1.678  19.532 -0.2555 -0.2717 -0.6007
 2786TIP3    H132553   1.146   1.731  19.452  2.4424  1.6907  0.4696
 2786TIP3    H232554   1.237   1.644  19.536 -0.7923 -1.6474  0.8207
 2787TIP3   OH232555   1.785   6.750  18.473 -0.1046 -0.1702 -0.2879
 2787TIP3    H132556   1.809   6.662  18.446  1.7361  0.2728 -0.2446
 2787TIP3    H232557   1.842   6.768  18.548 -0.6991  0.9229 -0.0749
 2788TIP3   OH232558   0.570   5.392  17.159  0.6055  0.2632  0.2171
 2788TIP3    H132559   0.587   5.399  17.065 -1.3666  0.2780 -0.1827
 2788TIP3    H232560   0.596   5.303  17.182  0.0164 -0.1261 -0.5943
 2789TIP3   OH232561   0.027   3.357  19.493  0.6625 -0.6617  0.3970
 2789TIP3    H132562   0.121   3.347  19.478  0.7199  1.4052 -1.0959
 2789TIP3    H232563   0.017   3.350  19.588  2.2670 -1.2138  0.5515
 2790TIP3   OH232564   0.374   1.138  19.296 -0.5869  0.0245 -0.2469
 2790TIP3    H132565   0.287   1.129  19.334 -0.6111 -0.1529 -0.3477
 2790TIP3    H232566   0.423   1.062  19.329  0.0686  1.0653  1.2950
 2791TIP3   OH232567   4.226   1.425  18.441 -0.0282 -0.5239  0.1877
 2791TIP3    H132568   4.231   1.334  18.472 -0.0766 -1.1865 -1.6084
 2791TIP3    H232569   4.232   1.418  18.346  0.3178  1.4008  0.0197
 2792TIP3   OH232570   5.272   2.251  18.254 -0.2637 -0.5251 -0.2321
 2792TIP3    H132571   5.317   2.334  18.236 -1.0185  0.0853  0.6071
 2792TIP3    H232572   5.193   2.254  18.201  0.1909 -1.1706 -0.9664
 2793TIP3   OH232573   0.402   1.735  17.266 -0.5001 -0.1585  0.6277
 2793TIP3    H132574   0.413   1.641  17.282  1.1807 -0.5826 -2.3298
 2793TIP3    H232575   0.349   1.740  17.187 -0.6636  1.4403  0.8045
 2794TIP3   OH232576   3.571   4.647  17.497 -0.0845  0.3269 -0.6610
 2794TIP3    H132577   3.605   4.590  17.428 -1.1985  0.3185 -1.2277
 2794TIP3    H232578   3.501   4.696  17.455 -3.3887 -2.2986  1.2925
 2795TIP3   OH232579   0.530   2.785  16.273  0.2268 -0.0253 -0.6919
 2795TIP3    H132580   0.601   2.825  16.222 -0.3461  0.4452 -1.1318
 2795TIP3    H232581   0.500   2.855  16.331 -0.4588  0.0478 -1.1248
 2796TIP3   OH232582   5.861   1.627  18.559 -0.3292  0.2479  0.8522
 2796TIP3    H132583   5.951   1.661  18.557  0.2487 -1.2445  0.1833
 2796TIP3    H232584   5.837   1.617  18.467 -0.1253 -1.9706  0.9951
 2797TIP3   OH232585   3.198   1.761  16.819 -0.2052  0.6336 -0.5564
 2797TIP3    H132586   3.257   1.692  16.851 -0.8408  0.8372  1.1537
 2797TIP3    H232587   3.140   1.715  16.758  0.1341 -0.1034 -0.3463
 2798TIP3   OH232588   0.474   0.019  19.595  0.0939  0.5112  0.1733
 2798TIP3    H132589   0.557   0.057  19.621  0.8110  0.3116 -1.6468
 2798TIP3    H232590   0.496  -0.069  19.565 -0.3172  1.2676 -2.6200
 2799TIP3   OH232591   2.294   5.070  18.963  0.9751 -0.6368 -0.0798
 2799TIP3    H132592   2.283   5.136  19.032  0.8167 -1.3731  0.6100
 2799TIP3    H232593   2.207   5.057  18.927  0.8164 -1.2411  0.5117
 2800TIP3   OH232594   3.614   4.507  17.262  0.0330 -0.1535 -0.0578
 2800TIP3    H132595   3.578   4.426  17.298  1.0240 -1.3703 -1.6467
 2800TIP3    H232596   3.539   4.549  17.219  0.0995 -1.9053 -2.0411
 2801TIP3   OH232597   1.216   1.312  18.548  0.4944  0.3545 -0.6334
 2801TIP3    H132598   1.159   1.378  18.508  0.1077  1.5965  1.7713
 2801TIP3    H232599   1.158   1.263  18.607  1.2289 -0.6987 -0.7665
 2802TIP3   OH232600   4.337   1.425  17.356 -0.2756  0.6852  0.5939
 2802TIP3    H132601   4.319   1.346  17.408  0.0703  1.6611  2.2975
 2802TIP3    H232602   4.420   1.458  17.391  0.1624  1.1885 -0.8745
 2803TIP3   OH232603   2.131   5.483  17.510  0.1928  0.1085 -0.0762
 2803TIP3    H132604   2.041   5.462  17.537  0.3949 -0.5031  0.1453
 2803TIP3    H232605   2.121   5.554  17.447 -0.4279  0.2519  0.1727
 2804TIP3   OH232606   4.461   2.799  19.001  0.3370 -0.7987  0.1552
 2804TIP3    H132607   4.497   2.727  18.950 -0.8620 -2.2920  1.3289
 2804TIP3    H232608   4.502   2.792  19.087  0.9010  0.5068  0.0129
 2805TIP3   OH232609   3.051   1.517  19.483  0.2324  0.3336 -0.4193
 2805TIP3    H132610   3.047   1.438  19.537  0.7320 -0.6875 -1.8151
 2805TIP3    H232611   2.973   1.512  19.428  1.3074 -0.3095 -1.9515
 2806TIP3   OH232612   0.690   5.912  18.541 -0.3037  0.4355  0.3137
 2806TIP3    H132613   0.730   5.962  18.612  1.4271 -0.9409  0.3966
 2806TIP3    H232614   0.746   5.835  18.532 -0.1452  0.7822 -2.8551
 2807TIP3   OH232615   6.737   0.096  19.229  0.6300 -0.1436  0.0689
 2807TIP3    H132616   6.823   0.139  19.233  0.2741  0.5910  0.0194
 2807TIP3    H232617   6.754   0.006  19.256  1.6648 -0.3840 -1.2716
 2808TIP3   OH232618   2.211   4.052  19.599  0.2311  0.3774 -0.3609
 2808TIP3    H132619   2.180   4.087  19.516  1.1838  0.4504 -0.6971
 2808TIP3    H232620   2.157   3.974  19.614  0.9204 -0.4020 -1.7168
 2809TIP3   OH232621   1.784   2.261  17.802  0.2529 -0.0577 -0.6991
 2809TIP3    H132622   1.703   2.243  17.754 -0.1513  0.4285 -0.2055
 2809TIP3    H232623   1.802   2.354  17.783  0.6936 -0.1631 -0.8047
 2810TIP3   OH232624   6.065   2.871  17.873  0.6318  0.0684 -0.2591
 2810TIP3    H132625   6.120   2.950  17.873  1.3045 -0.3761 -1.2207
 2810TIP3    H232626   5.991   2.893  17.930 -0.9744  2.6231 -3.0547
 2811TIP3   OH232627   0.332   5.405  18.750  0.6986  0.0405  0.9479
 2811TIP3    H132628   0.379   5.322  18.741  1.5590  0.6289 -0.4246
 2811TIP3    H232629   0.240   5.383  18.735  0.7989 -0.8040  1.5315
 2812TIP3   OH232630   5.596   1.932  19.343 -0.2963  0.0544  0.1138
 2812TIP3    H132631   5.618   2.011  19.293  0.6305 -1.4135 -1.9288
 2812TIP3    H232632   5.652   1.864  19.305  0.4321 -1.1927  3.1798
 2813TIP3   OH232633   3.606   4.021  18.355 -0.4115  0.0521  0.2536
 2813TIP3    H132634   3.595   3.932  18.386 -0.5575 -0.0340 -0.0398
 2813TIP3    H232635   3.562   4.023  18.270 -0.4862  0.4240  0.2957
 2814TIP3   OH232636   5.183   1.554  17.408  0.2611  0.1090  0.0824
 2814TIP3    H132637   5.235   1.566  17.488 -1.0622 -0.7853  1.1410
 2814TIP3    H232638   5.211   1.469  17.374  0.2558  0.1161  0.0615
 2815TIP3   OH232639   0.035   6.538  19.848  0.0040  0.0540 -0.1782
 2815TIP3    H132640   0.015   6.631  19.836  1.3269  0.4897  0.7433
 2815TIP3    H232641   0.127   6.530  19.821  0.7178 -0.4455  2.1973
 2816TIP3   OH232642   1.406   2.433  18.568 -0.3513  0.2358 -0.1331
 2816TIP3    H132643   1.418   2.428  18.663  2.5567  0.8025 -0.3601
 2816TIP3    H232644   1.413   2.342  18.539 -1.3827  0.0445  0.1798
 2817TIP3   OH232645   2.327   2.635  19.514  0.1043  0.4988 -0.4086
 2817TIP3    H132646   2.399   2.649  19.575  0.1308  0.7298 -0.4908
 2817TIP3    H232647   2.263   2.584  19.563 -0.2006  1.3100  0.0559
 2818TIP3   OH232648   5.142   0.000  17.371 -0.3620  0.3433  0.4160
 2818TIP3    H132649   5.134  -0.074  17.311 -0.4772  0.3029  0.4810
 2818TIP3    H232650   5.074  -0.014  17.436 -0.6670  0.7320  0.1865
 2819TIP3   OH232651   0.532   3.085  19.638  0.5728 -0.5507  0.5023
 2819TIP3    H132652   0.569   3.172  19.622  0.3769 -0.4485  0.5999
 2819TIP3    H232653   0.453   3.102  19.689  0.2698 -0.7489  0.1059
 2820TIP3   OH232654   3.337   3.960  19.917 -0.9827 -0.3734 -0.3830
 2820TIP3    H132655   3.372   3.930  19.833  1.1514 -0.6742  0.5304
 2820TIP3    H232656   3.267   4.021  19.894  0.3049  0.4491 -2.4116
 2821TIP3   OH232657   6.554   1.084  17.478 -0.0750  0.0552  0.1646
 2821TIP3    H132658   6.560   1.178  17.461 -0.8804 -0.1423 -1.4427
 2821TIP3    H232659   6.639   1.060  17.515  0.6793  1.1695 -0.7866
 2822TIP3   OH232660   4.043   1.840  17.048 -0.6372 -0.4233  0.1422
 2822TIP3    H132661   3.994   1.876  16.975 -2.0599  1.7299  1.9949
 2822TIP3    H232662   4.017   1.748  17.052 -2.3487 -0.0058 -0.6422
 2823TIP3   OH232663   4.306   6.169  19.568  0.6035 -0.5989 -0.0168
 2823TIP3    H132664   4.365   6.236  19.603  0.0035  0.2942 -0.6633
 2823TIP3    H232665   4.224   6.182  19.616  0.2348 -0.3249 -0.7051
 2824TIP3   OH232666   5.458   4.639  19.810 -0.0950 -0.2035 -0.0741
 2824TIP3    H132667   5.449   4.616  19.903 -0.9031  0.3516 -0.0016
 2824TIP3    H232668   5.412   4.569  19.764 -1.8098  0.7675  0.0985
 2825TIP3   OH232669   3.476   1.925  18.504  0.5385  0.5104 -0.1209
 2825TIP3    H132670   3.457   2.009  18.546 -0.7410  0.4368 -0.4907
 2825TIP3    H232671   3.410   1.918  18.435  0.9548 -0.5616 -0.4224
 2826TIP3   OH232672   0.200   0.441  17.333  0.1335 -0.4419 -0.8403
 2826TIP3    H132673   0.256   0.465  17.407  0.4832 -0.4504 -1.0933
 2826TIP3    H232674   0.121   0.406  17.372  0.6751 -1.2765 -0.4747
 2827TIP3   OH232675   2.764   4.578  18.030 -0.2121 -0.7983  0.1050
 2827TIP3    H132676   2.714   4.527  18.093  0.5018 -0.0666  1.3173
 2827TIP3    H232677   2.853   4.543  18.036  0.0028 -0.2898 -0.0105
 2828TIP3   OH232678   2.844   4.464  19.950  0.3848 -0.2059  0.5018
 2828TIP3    H132679   2.788   4.541  19.962  0.9243  0.1825  0.5267
 2828TIP3    H232680   2.790   4.390  19.979 -0.8513 -0.0840 -1.3041
 2829TIP3   OH232681   4.315   4.292  18.374  0.1032  0.4513  0.0304
 2829TIP3    H132682   4.379   4.310  18.443 -0.3315 -1.7413  1.0893
 2829TIP3    H232683   4.355   4.224  18.320 -0.7104  0.1306 -0.1934
 2830TIP3   OH232684   5.293   6.298  16.223  0.2358  0.1563 -0.0141
 2830TIP3    H132685   5.388   6.293  16.230  0.1993 -0.3769  0.1530
 2830TIP3    H232686   5.264   6.207  16.223 -0.2559  0.3101 -0.3448
 2831TIP3   OH232687   3.510   1.005  18.778 -0.2215 -0.0437 -0.1707
 2831TIP3    H132688   3.437   1.005  18.840 -0.9436  1.3091 -0.9758
 2831TIP3    H232689   3.585   0.977  18.830 -0.7850  1.1344  1.3685
 2832TIP3   OH232690   3.705   3.884  19.844 -0.6111 -0.4867  0.0898
 2832TIP3    H132691   3.786   3.840  19.869 -0.2968 -1.3159 -2.1273
 2832TIP3    H232692   3.673   3.925  19.925  2.7501  1.1360  0.7537
 2833TIP3   OH232693   2.423   1.838  19.158  0.5018 -0.3179 -0.1957
 2833TIP3    H132694   2.366   1.809  19.088  1.1458 -0.8178 -0.5255
 2833TIP3    H232695   2.369   1.835  19.237 -0.2339  0.2691 -0.6599
 2834TIP3   OH232696   5.342   5.636  16.359  0.3294  0.2391 -0.1016
 2834TIP3    H132697   5.283   5.586  16.302  1.5803 -0.4410 -0.8392
 2834TIP3    H232698   5.408   5.672  16.300  1.0350  0.4400  0.7848
 2835TIP3   OH232699   3.946   0.638  19.444 -1.0433  0.5225 -0.1477
 2835TIP3    H132700   3.952   0.578  19.519 -1.9058  0.1760 -0.3427
 2835TIP3    H232701   3.901   0.588  19.377  0.7991  0.3984 -1.3701
 2836TIP3   OH232702   5.521   4.509  17.565  0.2654  0.0997  0.0161
 2836TIP3    H132703   5.430   4.492  17.543  0.1815 -0.3158  0.6622
 2836TIP3    H232704   5.569   4.488  17.485 -0.0723 -1.0360  0.0915
 2837TIP3   OH232705   2.263   5.557  19.161 -0.0320  0.1146  0.5402
 2837TIP3    H132706   2.244   5.584  19.072  0.2335 -0.0576  0.4316
 2837TIP3    H232707   2.203   5.608  19.215 -0.2515  0.1539  0.2573
 2838TIP3   OH232708   5.737   0.738  18.938 -0.4066 -0.5456  0.4143
 2838TIP3    H132709   5.701   0.651  18.922 -0.5069 -0.5498  0.6538
 2838TIP3    H232710   5.691   0.769  19.016  0.8516 -0.9820  1.3718
 2839TIP3   OH232711   4.671   4.058  16.952  0.3278  0.3061 -0.4514
 2839TIP3    H132712   4.614   4.075  16.877  0.4481  1.1910 -0.3472
 2839TIP3    H232713   4.739   4.124  16.946 -0.6084  1.5017  1.3964
 2840TIP3   OH232714   3.214   6.235  18.457  0.3941  0.2108  0.3868
 2840TIP3    H132715   3.189   6.263  18.545  0.9576  0.9252  0.3283
 2840TIP3    H232716   3.232   6.316  18.410 -1.6823 -0.0556 -0.9791
 2841TIP3   OH232717   2.794   5.829  18.373 -0.5780 -0.6981 -0.9352
 2841TIP3    H132718   2.783   5.816  18.279 -1.5178  1.9416 -1.2717
 2841TIP3    H232719   2.889   5.824  18.386 -0.4331 -1.1273 -2.0146
 2842TIP3   OH232720   2.775   2.848  18.793  0.4913 -0.1834 -0.5066
 2842TIP3    H132721   2.729   2.844  18.709 -0.9231  1.6428  0.0917
 2842TIP3    H232722   2.864   2.875  18.771  0.0410  0.6270 -1.4115
 2843TIP3   OH232723   3.047   2.115  16.803 -0.5623 -0.3444 -0.8192
 2843TIP3    H132724   3.052   2.178  16.874  3.7391 -1.7697  0.4898
 2843TIP3    H232725   2.954   2.094  16.794 -1.5041  1.5080  2.8967
 2844TIP3   OH232726   1.635   4.843  19.592  0.1964  0.1152 -0.0822
 2844TIP3    H132727   1.680   4.862  19.674  0.6053 -0.0833 -0.2537
 2844TIP3    H232728   1.577   4.918  19.578  1.6727  1.2131 -0.6692
 2845TIP3   OH232729   4.667   4.115  19.227 -0.0229 -0.2224 -0.0830
 2845TIP3    H132730   4.678   4.210  19.233  1.2084 -0.2443 -1.3749
 2845TIP3    H232731   4.578   4.103  19.195 -0.3840  0.4676  0.6372
 2846TIP3   OH232732   6.351   0.864  17.102 -0.4837 -0.6142  0.6994
 2846TIP3    H132733   6.430   0.840  17.151 -0.3812 -1.0976  0.3113
 2846TIP3    H232734   6.281   0.813  17.142 -0.6480  0.0160  1.2169
 2847TIP3   OH232735   0.198   1.244  17.224 -0.0194  0.0517  0.0898
 2847TIP3    H132736   0.227   1.238  17.315 -1.6902 -0.4624  0.6243
 2847TIP3    H232737   0.102   1.239  17.228 -0.2870  2.2586 -1.5354
 2848TIP3   OH232738   2.349   4.869  18.732 -0.3540 -0.2230  0.4639
 2848TIP3    H132739   2.259   4.868  18.701  0.1364  0.2936 -1.0574
 2848TIP3    H232740   2.342   4.884  18.826 -1.9261 -2.6145  0.7995
 2849TIP3   OH232741   3.774   0.392  17.730  0.3552  0.3578 -0.1982
 2849TIP3    H132742   3.780   0.460  17.798  0.3398  0.7479 -0.5799
 2849TIP3    H232743   3.848   0.411  17.672 -0.3638  0.8113 -0.9944
 2850TIP3   OH232744   2.857   1.369  19.218 -0.3634 -0.6845  0.0764
 2850TIP3    H132745   2.851   1.449  19.165  1.5244 -0.6768 -0.2305
 2850TIP3    H232746   2.830   1.396  19.305  1.3925  0.6711  0.2787
 2851TIP3   OH232747   4.344   3.834  19.006 -0.4921 -0.2618  0.2103
 2851TIP3    H132748   4.293   3.761  18.971 -0.4560  0.2533 -0.9766
 2851TIP3    H232749   4.324   3.908  18.949  0.2480  0.4006  0.7711
 2852TIP3   OH232750   0.552   5.246  19.673  0.5251 -0.4858  0.1867
 2852TIP3    H132751   0.647   5.241  19.666  0.5381 -2.4220  1.0143
 2852TIP3    H232752   0.520   5.215  19.589  0.6436 -1.0939  0.3608
 2853TIP3   OH232753   4.884   0.514  17.391  0.0835  0.0151  0.1339
 2853TIP3    H132754   4.848   0.527  17.479 -2.9586  1.1178 -1.1385
 2853TIP3    H232755   4.851   0.428  17.365 -0.8116  0.5746 -0.6498
 2854TIP3   OH232756   4.127   0.639  17.846 -0.1912  0.5264  0.2115
 2854TIP3    H132757   4.176   0.563  17.817 -1.3305 -0.3257  0.4530
 2854TIP3    H232758   4.190   0.690  17.897  0.8367  0.2400 -0.7371
 2855TIP3   OH232759   0.620   0.966  16.478  0.5103  0.6789  0.6530
 2855TIP3    H132760   0.643   1.050  16.438 -0.6284  1.1274  0.9228
 2855TIP3    H232761   0.556   0.988  16.546  0.0658 -0.4226  0.6045
 2856TIP3   OH232762   4.956   6.022  18.776 -0.2436  0.1233  0.3781
 2856TIP3    H132763   5.043   6.044  18.810 -0.2567 -0.7979  1.0366
 2856TIP3    H232764   4.927   5.949  18.829 -1.1457 -0.0227 -0.2891
 2857TIP3   OH232765   5.499   4.644  18.076  0.0185  0.3671 -0.1423
 2857TIP3    H132766   5.543   4.729  18.076  0.7688  0.0400 -2.5392
 2857TIP3    H232767   5.546   4.592  18.011 -1.1667 -1.5151  0.4104
 2858TIP3   OH232768   3.150   3.064  19.476 -0.2172  0.1089  0.5569
 2858TIP3    H132769   3.102   3.047  19.557 -1.4761 -2.6725 -0.6370
 2858TIP3    H232770   3.085   3.048  19.407  1.2124  0.9485 -1.0386
 2859TIP3   OH232771   0.215   0.532  15.910 -0.5654  0.4852 -0.4973
 2859TIP3    H132772   0.207   0.468  15.980 -0.2156 -1.2393 -1.9544
 2859TIP3    H232773   0.306   0.561  15.914 -0.5899  0.5158 -0.1404
 2860TIP3   OH232774   2.580   0.719  18.953 -0.0029 -0.3200 -0.6158
 2860TIP3    H132775   2.654   0.676  18.997  0.8405  1.4514 -0.2001
 2860TIP3    H232776   2.606   0.723  18.861 -0.2821 -1.0638 -0.7312
 2861TIP3   OH232777   6.706   1.263  20.081  0.1630  0.4582  0.3534
 2861TIP3    H132778   6.657   1.263  20.164 -0.7534  0.7370 -0.1635
 2861TIP3    H232779   6.684   1.347  20.041 -0.6419 -0.2996 -0.8663
 2862TIP3   OH232780   2.448   4.769  18.169 -0.1892 -0.4554  0.0892
 2862TIP3    H132781   2.481   4.819  18.094 -0.4297  0.2936  0.4740
 2862TIP3    H232782   2.443   4.679  18.137  2.5735 -0.6932  0.1069
 2863TIP3   OH232783   4.018   4.365  18.414 -0.1874 -0.0392  0.4478
 2863TIP3    H132784   3.997   4.430  18.347 -0.0806 -2.4956 -2.1682
 2863TIP3    H232785   4.110   4.346  18.400 -0.0469 -0.2720  1.6403
 2864TIP3   OH232786   0.986   1.265  19.626 -0.4133 -0.0095  0.3328
 2864TIP3    H132787   0.899   1.236  19.653 -0.4153 -0.0024  0.3347
 2864TIP3    H232788   0.981   1.270  19.530 -0.0975 -1.0142  0.2534
 2865TIP3   OH232789   6.197   5.635  17.679  0.1204 -0.1067  0.1553
 2865TIP3    H132790   6.152   5.610  17.598 -0.2240  1.1862 -0.0911
 2865TIP3    H232791   6.283   5.593  17.673 -0.7519 -1.9925  0.2636
 2866TIP3   OH232792   2.624   2.782  19.772 -0.2101  0.5303  0.1496
 2866TIP3    H132793   2.618   2.804  19.679  1.4315 -0.3688 -0.2041
 2866TIP3    H232794   2.703   2.826  19.802  1.3567 -2.0938  0.1812
 2867TIP3   OH232795   6.186   1.218  17.379  0.5371 -0.2669 -0.0520
 2867TIP3    H132796   6.271   1.259  17.393  0.3726 -0.0507  0.3456
 2867TIP3    H232797   6.153   1.201  17.467  0.0100 -0.0236 -0.2010
 2868TIP3   OH232798   1.320   0.126  18.520 -0.1435  0.6259  0.3740
 2868TIP3    H132799   1.355   0.162  18.439 -0.2998  0.5380  0.2673
 2868TIP3    H232800   1.381   0.055  18.542  0.0140  0.7798  0.4434
 2869TIP3   OH232801   2.363   6.776  17.691 -0.1870 -0.3929  0.5264
 2869TIP3    H132802   2.365   6.706  17.625  1.5584  0.0889  0.0319
 2869TIP3    H232803   2.394   6.734  17.771  1.5930 -0.0652  0.0536
 2870TIP3   OH232804   1.519   6.731  18.580  0.4689  0.2102 -0.2458
 2870TIP3    H132805   1.607   6.739  18.544  0.4965  1.7330  0.0912
 2870TIP3    H232806   1.488   6.645  18.550  2.4900 -0.8853  0.6005
 2871TIP3   OH232807   5.001   2.331  16.773  0.1374  0.4006 -0.9032
 2871TIP3    H132808   5.077   2.310  16.720  1.8694  1.8852  0.8467
 2871TIP3    H232809   5.018   2.419  16.807 -1.8604  0.3572  0.4017
 2872TIP3   OH232810   1.366   0.022  16.962 -0.0091 -0.9938  0.8109
 2872TIP3    H132811   1.321   0.103  16.987  0.0746 -1.0647  1.1959
 2872TIP3    H232812   1.307  -0.020  16.899  1.3051  0.8817 -1.8990
 2873TIP3   OH232813   5.001   5.925  18.095  0.6216 -0.0490  0.1112
 2873TIP3    H132814   5.081   5.948  18.049  1.3870 -0.1383  1.3360
 2873TIP3    H232815   4.942   5.998  18.079  1.1633  0.2965 -0.3279
 2874TIP3   OH232816   6.078   0.526  19.474  0.1009  0.2689 -0.6174
 2874TIP3    H132817   6.168   0.535  19.504 -0.1229 -0.7331  0.4472
 2874TIP3    H232818   6.076   0.442  19.429 -0.0592  0.8027 -1.6383
 2875TIP3   OH232819   2.054   0.516  16.802 -0.2680  0.7796 -0.4598
 2875TIP3    H132820   2.045   0.559  16.717  2.3463  0.7134 -0.8656
 2875TIP3    H232821   2.036   0.424  16.785  1.0061  0.6403 -1.1531
 2876TIP3   OH232822   3.261   2.230  18.328 -0.1093  0.0588  0.0321
 2876TIP3    H132823   3.281   2.191  18.412 -0.7197  1.6435  0.9598
 2876TIP3    H232824   3.285   2.323  18.338 -1.1892  0.5037 -1.1717
 2877TIP3   OH232825   4.138   0.576  17.267  0.0784 -0.0876  0.2541
 2877TIP3    H132826   4.196   0.511  17.307 -0.1109  0.8980  2.2498
 2877TIP3    H232827   4.175   0.661  17.292 -0.8864  0.5780 -0.4583
 2878TIP3   OH232828   0.325   0.274  17.021  0.8415  0.1409 -0.1083
 2878TIP3    H132829   0.348   0.262  16.929  0.0486 -1.1455 -0.1611
 2878TIP3    H232830   0.264   0.348  17.022  0.7813  0.0987 -0.6258
 2879TIP3   OH232831   1.527   2.633  19.376  0.0237  0.1906 -0.0157
 2879TIP3    H132832   1.537   2.570  19.448 -0.1709 -0.1843 -0.3085
 2879TIP3    H232833   1.616   2.653  19.349  0.0834 -0.0393  0.0100
 2880TIP3   OH232834   2.138   0.019  17.869 -0.1771  0.1067 -0.2098
 2880TIP3    H132835   2.206  -0.013  17.810 -1.3277 -1.8546 -0.5500
 2880TIP3    H232836   2.187   0.063  17.939  1.4876 -1.6275 -0.1870
 2881TIP3   OH232837   2.790   5.166  16.839 -0.6422 -0.5741  0.0275
 2881TIP3    H132838   2.874   5.207  16.818 -0.5691 -0.3113  0.7957
 2881TIP3    H232839   2.810   5.073  16.847 -0.5185 -0.5738 -0.2651
 2882TIP3   OH232840   5.406   5.702  17.752 -0.4552  0.2947  0.0911
 2882TIP3    H132841   5.393   5.708  17.657  0.7384  0.5739 -0.0621
 2882TIP3    H232842   5.318   5.685  17.786 -0.7771 -0.7144 -1.1382
 2883TIP3   OH232843   5.322   2.519  17.141  0.5779  0.2400 -0.7098
 2883TIP3    H132844   5.413   2.545  17.125  0.3742  1.4493 -0.0149
 2883TIP3    H232845   5.329   2.439  17.194  1.2771  1.6070  1.3921
 2884TIP3   OH232846   4.992   2.035  18.349  0.4166  0.4975  0.4191
 2884TIP3    H132847   4.901   2.049  18.376  0.8073  0.7231  1.6487
 2884TIP3    H232848   5.044   2.088  18.409  1.4530 -0.6292  0.5557
 2885TIP3   OH232849   4.968   0.750  18.581 -0.0369  0.2497  0.7290
 2885TIP3    H132850   5.040   0.695  18.614  1.3439  0.6637 -1.4132
 2885TIP3    H232851   4.889   0.699  18.598  0.9616 -1.2482  1.0951
 2886TIP3   OH232852   5.660   0.941  17.358 -0.7783 -0.0019 -0.0859
 2886TIP3    H132853   5.598   0.927  17.287 -0.1353  0.0485 -0.6641
 2886TIP3    H232854   5.740   0.971  17.315  0.3710 -2.1526  0.3973
 2887TIP3   OH232855   1.730   1.734  16.897 -0.4164 -0.1589  0.3782
 2887TIP3    H132856   1.799   1.796  16.875 -0.7404  0.0629 -0.0255
 2887TIP3    H232857   1.678   1.725  16.817  0.6929 -2.3882 -0.1621
 2888TIP3   OH232858   0.084   0.380  17.635 -0.5421 -0.9483 -0.0957
 2888TIP3    H132859   0.170   0.395  17.674  0.1498  1.8139 -2.3286
 2888TIP3    H232860   0.027   0.444  17.676 -0.8711 -0.9682 -0.5175
 2889TIP3   OH232861   6.688   3.097  19.924 -0.0050  0.2997  0.3057
 2889TIP3    H132862   6.623   3.030  19.946  0.2462 -0.1424 -0.2833
 2889TIP3    H232863   6.644   3.180  19.941  0.2770  0.0128  2.8276
 2890TIP3   OH232864   1.275   0.928  19.882  0.0448  0.5067 -0.1856
 2890TIP3    H132865   1.342   0.930  19.814 -0.2230  1.6448 -0.4434
 2890TIP3    H232866   1.280   1.014  19.924 -0.4440  0.1704  0.5892
 2891TIP3   OH232867   5.630   2.391  16.792 -0.5189 -0.3144 -0.1970
 2891TIP3    H132868   5.664   2.479  16.776 -0.0788 -0.7445 -1.8037
 2891TIP3    H232869   5.595   2.363  16.708  0.3300 -2.0959 -0.0087
 2892TIP3   OH232870   2.019   2.594  18.957  0.2912 -0.1768  0.2811
 2892TIP3    H132871   2.091   2.654  18.978 -0.0587  0.2298  0.3243
 2892TIP3    H232872   2.061   2.523  18.909  0.5826  0.5098 -0.5023
 2893TIP3   OH232873   2.382   1.311  16.916  0.0552  0.1353 -0.2040
 2893TIP3    H132874   2.471   1.287  16.944 -0.0267  0.4933  0.3706
 2893TIP3    H232875   2.396   1.376  16.847  0.2254  1.3097  0.9205
 2894TIP3   OH232876   6.156   0.112  17.545  0.2079 -0.0094  0.3685
 2894TIP3    H132877   6.212   0.105  17.468  0.7930  0.9198  0.6904
 2894TIP3    H232878   6.177   0.197  17.583 -2.3555  0.9887 -0.2165
 2895TIP3   OH232879   4.829   2.127  16.859  0.2793  0.4234  0.1261
 2895TIP3    H132880   4.892   2.198  16.862  0.0292  0.7738 -1.7495
 2895TIP3    H232881   4.810   2.115  16.766  0.3579 -2.1418  0.3426
 2896TIP3   OH232882   6.187   2.614  17.904 -0.6007  0.0379 -0.2433
 2896TIP3    H132883   6.243   2.617  17.826 -1.6662  1.1044 -0.9884
 2896TIP3    H232884   6.171   2.705  17.926 -0.1927 -0.2445  1.3500
 2897TIP3   OH232885   5.683   5.235  17.663 -0.0064 -0.4085 -0.2130
 2897TIP3    H132886   5.769   5.220  17.625 -0.0071 -1.1738  0.0607
 2897TIP3    H232887   5.667   5.158  17.718 -0.9551 -0.3823 -0.4268
 2898TIP3   OH232888   0.593   2.804  19.570 -0.3081  0.1370 -0.8190
 2898TIP3    H132889   0.600   2.743  19.643 -0.5920 -0.0106 -0.9138
 2898TIP3    H232890   0.586   2.890  19.610  0.4394  0.1427 -0.6842
 2899TIP3   OH232891   4.226   6.631  18.138  0.2328 -0.2749 -0.2003
 2899TIP3    H132892   4.227   6.671  18.051  0.6969 -0.2713 -0.1964
 2899TIP3    H232893   4.154   6.674  18.184 -1.5697 -1.9169 -1.3345
 2900TIP3   OH232894   5.947   0.329  17.948  0.0273  0.3520 -0.3754
 2900TIP3    H132895   5.974   0.246  17.987 -0.5535  0.2055 -0.2751
 2900TIP3    H232896   6.029   0.378  17.937  0.2266  0.3421  0.8966
 2901TIP3   OH232897   3.057   5.188  20.171 -0.3819  0.0532  0.2549
 2901TIP3    H132898   2.987   5.165  20.109 -1.4160 -1.0690  1.7839
 2901TIP3    H232899   3.033   5.275  20.203 -0.0130  0.5018 -0.6303
 2902TIP3   OH232900   4.512   4.311  18.652 -0.2233 -0.8216  0.0364
 2902TIP3    H132901   4.429   4.336  18.694  0.6423  0.8700  0.8334
 2902TIP3    H232902   4.572   4.381  18.675  1.1664 -1.4814 -1.4213
 2903TIP3   OH232903   5.614   3.264  16.616  0.3427 -0.3366 -0.4422
 2903TIP3    H132904   5.554   3.302  16.552  2.2277  3.6367 -0.1620
 2903TIP3    H232905   5.566   3.267  16.699  0.2790  1.2761 -0.5021
 2904TIP3   OH232906   5.606   3.123  17.965 -0.2702 -0.2117  0.1920
 2904TIP3    H132907   5.653   3.039  17.965  1.2692  0.6127 -0.0700
 2904TIP3    H232908   5.598   3.145  17.872  0.0434  0.2965  0.2806
 2905TIP3   OH232909   0.594   0.595  16.730 -0.2066 -0.3806 -0.1996
 2905TIP3    H132910   0.607   0.648  16.809 -1.9879 -0.4162  0.1682
 2905TIP3    H232911   0.622   0.652  16.659  0.2529  0.1187  0.3680
 2906TIP3   OH232912   4.893   6.027  17.724  0.2676 -0.0780  0.2331
 2906TIP3    H132913   4.865   6.050  17.813 -2.0234 -0.1435 -0.3950
 2906TIP3    H232914   4.951   6.099  17.698  1.4424 -0.3556  1.9539
 2907TIP3   OH232915   0.179   0.982  19.442  0.6032  0.1858  0.2684
 2907TIP3    H132916   0.122   1.029  19.503  0.3600  2.4117 -1.5300
 2907TIP3    H232917   0.152   0.891  19.448 -2.4965  0.9943  0.2539
 2908TIP3   OH232918   3.281   4.112  18.355 -0.2551 -0.3257  0.0760
 2908TIP3    H132919   3.193   4.075  18.364  0.3253 -2.4126 -1.8155
 2908TIP3    H232920   3.325   4.087  18.436 -0.6717 -1.6105 -0.0562
 2909TIP3   OH232921   1.346   4.799  19.751 -0.3229 -0.2080 -0.3266
 2909TIP3    H132922   1.421   4.853  19.777 -0.3619 -0.1384 -0.3609
 2909TIP3    H232923   1.386   4.721  19.712 -0.2654 -0.2627 -0.1589
 2910TIP3   OH232924   0.967   0.596  16.761 -0.3215  0.2872 -0.5354
 2910TIP3    H132925   1.052   0.632  16.785 -0.6012  1.1928 -0.8609
 2910TIP3    H232926   0.933   0.658  16.696 -0.7429 -0.6599 -1.2435
 2911TIP3   OH232927   2.225   0.976  19.868  0.1159  0.0713 -0.4425
 2911TIP3    H132928   2.262   0.986  19.956 -0.7476 -0.2480 -0.0319
 2911TIP3    H232929   2.173   0.895  19.873  3.4489 -2.4704 -2.4420
 2912TIP3   OH232930   5.534   4.207  17.242 -0.3146 -0.5519  0.4808
 2912TIP3    H132931   5.536   4.173  17.331 -1.1746 -1.7581  0.0715
 2912TIP3    H232932   5.599   4.155  17.195  0.2337  0.1711  0.4097
 2913TIP3   OH232933   3.472   0.798  17.242 -0.3105  0.1362 -0.2993
 2913TIP3    H132934   3.476   0.713  17.199 -3.8438  0.0227 -0.7286
 2913TIP3    H232935   3.480   0.861  17.170 -3.5363 -0.0288 -0.9599
 2914TIP3   OH232936   5.510   0.748  18.181 -0.6046  0.5005 -0.9125
 2914TIP3    H132937   5.452   0.750  18.257 -0.3773  3.1794 -0.6810
 2914TIP3    H232938   5.487   0.827  18.132  2.3035  1.2966 -1.1767
 2915TIP3   OH232939   1.633   0.086  17.259  0.6375 -0.3039 -0.3244
 2915TIP3    H132940   1.709   0.110  17.206  2.2208 -0.6367  1.6575
 2915TIP3    H232941   1.625   0.157  17.323 -2.3169  0.9926 -1.9696
 2916TIP3   OH232942   2.236   1.078  17.423 -0.5179 -0.1011 -0.3072
 2916TIP3    H132943   2.329   1.090  17.442  0.0195 -1.0972 -2.0190
 2916TIP3    H232944   2.219   0.985  17.441 -1.5610  0.3599  1.2936
 2917TIP3   OH232945   5.445   2.925  18.862  1.1782  0.2841 -0.4846
 2917TIP3    H132946   5.450   2.850  18.803  2.7035  0.2645 -0.3621
 2917TIP3    H232947   5.413   2.997  18.807  2.5515  0.2605 -1.3530
 2918TIP3   OH232948   2.441   6.718  17.974  0.0324 -0.0763  0.2710
 2918TIP3    H132949   2.508   6.748  18.035  1.1203  1.4428 -1.5586
 2918TIP3    H232950   2.470   6.630  17.947  0.4657 -0.0435  0.6239
 2919TIP3   OH232951   0.816   5.348  18.331 -0.2864  0.1662 -0.9713
 2919TIP3    H132952   0.773   5.407  18.393 -0.7571 -0.1686 -0.9658
 2919TIP3    H232953   0.747   5.287  18.305  0.0012  0.0730 -1.5437
 2920TIP3   OH232954   6.752   4.325  19.239 -0.1894  0.4903  0.3829
 2920TIP3    H132955   6.790   4.238  19.249 -0.0898  0.5555  0.5761
 2920TIP3    H232956   6.681   4.328  19.304 -0.9316  0.1436 -0.3995
 2921TIP3   OH232957   3.489   3.300  19.092 -0.0980  0.2949 -0.2471
 2921TIP3    H132958   3.440   3.341  19.163  0.6741  0.3781  0.2427
 2921TIP3    H232959   3.431   3.307  19.016 -1.7626 -1.5263  0.7699
 2922TIP3   OH232960   4.771   4.063  17.909  0.1341  0.1579  0.4248
 2922TIP3    H132961   4.849   4.089  17.958  0.9604  0.0387 -0.7868
 2922TIP3    H232962   4.786   3.972  17.884  0.4988  0.6610 -1.4007
 2923TIP3   OH232963   1.409   5.454  17.462 -0.1724  0.1210 -1.1870
 2923TIP3    H132964   1.394   5.490  17.374 -0.2941  2.4698 -0.2869
 2923TIP3    H232965   1.327   5.470  17.508 -0.0477 -0.9242 -0.5907
 2924TIP3   OH232966   5.053   5.640  19.117 -0.5458  0.1410 -0.4378
 2924TIP3    H132967   4.971   5.635  19.166  0.8425  1.3293  2.2313
 2924TIP3    H232968   5.060   5.556  19.072 -2.8623 -0.2349 -0.2181
 2925TIP3   OH232969   2.769   4.405  17.738 -0.4838 -0.2314 -0.0415
 2925TIP3    H132970   2.856   4.365  17.745 -0.2991  0.2712  0.7424
 2925TIP3    H232971   2.733   4.371  17.656  0.1355 -1.0590  0.0134
 2926TIP3   OH232972   3.507   1.888  18.010 -0.1627  0.1215  0.5523
 2926TIP3    H132973   3.458   1.861  17.932 -0.8537  0.0256  1.0021
 2926TIP3    H232974   3.555   1.809  18.037 -1.1911 -0.3239  1.1420
 2927TIP3   OH232975   0.752   1.950  19.174 -0.1689  0.5273 -0.2304
 2927TIP3    H132976   0.731   1.864  19.210 -0.4444  1.4685  1.9777
 2927TIP3    H232977   0.667   1.991  19.158 -0.0351  0.5927 -0.8239
 2928TIP3   OH232978   6.726   6.300  19.127 -0.1103  0.6340  0.5156
 2928TIP3    H132979   6.775   6.379  19.106 -1.3313  1.3915  0.4320
 2928TIP3    H232980   6.775   6.260  19.200  1.0242  0.9586 -0.0444
 2929TIP3   OH232981   4.155   1.569  16.881 -0.3904 -0.0947  0.2555
 2929TIP3    H132982   4.215   1.501  16.850  0.4715  0.6561  0.2322
 2929TIP3    H232983   4.187   1.650  16.842 -1.6836  0.2742 -0.0945
 2930TIP3   OH232984   2.424   5.798  17.873 -0.0400 -0.8771 -0.0622
 2930TIP3    H132985   2.483   5.758  17.810 -1.2567 -2.7742 -0.0897
 2930TIP3    H232986   2.406   5.885  17.838  1.3922 -0.8843 -0.8902
 2931TIP3   OH232987   4.511   3.854  16.735  0.5901  0.0920  0.0697
 2931TIP3    H132988   4.567   3.792  16.687  1.4137  1.6636 -1.1126
 2931TIP3    H232989   4.532   3.939  16.696 -1.2473  0.9856  0.9381
 2932TIP3   OH232990   6.211   6.184  18.491  0.4251  0.0666 -0.6109
 2932TIP3    H132991   6.287   6.241  18.479  0.6484 -0.3423 -1.1833
 2932TIP3    H232992   6.171   6.179  18.405 -0.0496 -0.0150 -0.3904
 2933TIP3   OH232993   0.277   0.213  19.321 -0.1806 -0.0079 -0.1825
 2933TIP3    H132994   0.208   0.270  19.354 -0.1329 -0.1005  0.0808
 2933TIP3    H232995   0.350   0.271  19.301 -0.9695  0.3649 -2.2981
 2934TIP3   OH232996   0.941   0.804  18.607 -0.4068  0.0712 -0.2598
 2934TIP3    H132997   0.883   0.735  18.639 -0.2630 -0.6898 -1.5525
 2934TIP3    H232998   0.919   0.880  18.660 -1.2643 -0.7057  0.5373
 2935TIP3   OH232999   6.736   0.444  16.200  0.0995 -0.2389 -0.2742
 2935TIP3    H133000   6.800   0.384  16.163  0.4152 -0.3338  0.4094
 2935TIP3    H233001   6.661   0.439  16.141  0.9177  0.2861 -1.4056
 2936TIP3   OH233002   1.739   5.622  19.374 -0.1924  0.1336 -0.0558
 2936TIP3    H133003   1.677   5.597  19.307  1.2434 -1.0412 -1.0180
 2936TIP3    H233004   1.704   5.584  19.455 -0.9071 -0.1754 -0.5029
 2937TIP3   OH233005   0.049   4.964  16.876 -0.0586 -0.4312  0.1252
 2937TIP3    H133006   0.039   4.883  16.827 -1.2832 -0.0143 -0.3437
 2937TIP3    H233007  -0.021   4.963  16.941  0.6284 -0.2773  0.8895
 2938TIP3   OH233008   4.853   5.056  17.713  0.0965  0.0508  0.0752
 2938TIP3    H133009   4.931   5.001  17.721  0.2104  0.1945 -0.0207
 2938TIP3    H233010   4.800   5.014  17.646  0.2841  0.1744 -0.1528
 2939TIP3   OH233011   2.437   6.104  17.943 -0.3748  0.5568  0.3956
 2939TIP3    H133012   2.386   6.185  17.946 -0.1181  0.7419 -0.0785
 2939TIP3    H233013   2.527   6.134  17.926 -0.5242  0.0915 -1.4171
 2940TIP3   OH233014   0.367   2.681  17.884  0.6339 -0.0977  0.6480
 2940TIP3    H133015   0.271   2.687  17.878  0.7217  0.3022 -0.9382
 2940TIP3    H233016   0.387   2.695  17.976 -0.6864  2.2745  0.6532
 2941TIP3   OH233017   5.945   3.232  19.684 -0.1367 -0.2255  0.0351
 2941TIP3    H133018   6.001   3.289  19.737 -0.4231 -2.5110  3.0894
 2941TIP3    H233019   5.872   3.288  19.657  0.7570  1.4123  0.9072
 2942TIP3   OH233020   1.544   5.465  19.832  0.3094  0.1452 -0.2976
 2942TIP3    H133021   1.593   5.541  19.803 -0.4102  0.6546 -0.2099
 2942TIP3    H233022   1.608   5.410  19.876  0.7806  0.8373 -0.1088
 2943TIP3   OH233023   1.676   3.786  18.580 -0.0650 -0.7126 -0.7551
 2943TIP3    H133024   1.670   3.805  18.674 -2.9745  1.5706 -1.2480
 2943TIP3    H233025   1.595   3.739  18.560  0.3488 -0.8569 -2.1860
 2944TIP3   OH233026   2.698   0.438  17.096 -0.2917 -0.1067 -0.0116
 2944TIP3    H133027   2.749   0.484  17.163  0.7280 -2.5251  0.9827
 2944TIP3    H233028   2.753   0.442  17.018 -0.4604  0.7803 -0.0977
 2945TIP3   OH233029   0.862   2.159  17.277  0.0966 -0.0084  0.0599
 2945TIP3    H133030   0.892   2.128  17.363 -2.3625 -0.0644  0.9940
 2945TIP3    H233031   0.810   2.086  17.242 -0.1155  0.5449 -0.8125
 2946TIP3   OH233032   5.061   1.521  19.146 -0.1284  0.6475  0.4356
 2946TIP3    H133033   4.975   1.483  19.130  0.4712 -0.4069 -0.3982
 2946TIP3    H233034   5.093   1.547  19.060  1.0048 -0.3615  0.5273
 2947TIP3   OH233035   4.576   6.635  18.802 -0.7095 -0.3617  0.0296
 2947TIP3    H133036   4.616   6.691  18.868  0.2425  0.1242 -0.9238
 2947TIP3    H233037   4.508   6.586  18.849 -1.4123  1.4137  0.9372
 2948TIP3   OH233038   5.692   0.632  18.554  0.2657  0.0613 -0.4599
 2948TIP3    H133039   5.771   0.684  18.565  1.4214 -1.6324 -0.3445
 2948TIP3    H233040   5.695   0.602  18.463 -0.4093  0.2406 -0.5450
 2949TIP3   OH233041   6.291   4.068  18.765 -0.2498  0.1205  0.4813
 2949TIP3    H133042   6.336   4.105  18.689  0.2316 -2.8652 -0.8197
 2949TIP3    H233043   6.361   4.033  18.820 -0.7641 -0.5894  0.7006
 2950TIP3   OH233044   1.187   4.656  18.033 -0.2220 -0.2870  0.1241
 2950TIP3    H133045   1.263   4.649  18.092  0.8799  1.5929 -0.9613
 2950TIP3    H233046   1.207   4.596  17.962 -0.9665 -1.6354  1.0188
 2951TIP3   OH233047   0.959   1.781  18.235  0.6549 -0.3765  0.5040
 2951TIP3    H133048   0.888   1.719  18.252 -0.8924  1.4976  1.2663
 2951TIP3    H233049   0.991   1.805  18.322 -0.4020  1.6179  0.4051
 2952TIP3   OH233050   1.411   4.785  18.939  0.8949 -0.1134  0.0334
 2952TIP3    H133051   1.322   4.785  18.904 -0.5515 -2.6596  3.1731
 2952TIP3    H233052   1.423   4.873  18.975 -0.6894  0.0479  0.2303
 2953TIP3   OH233053   5.751   2.439  19.705  0.0717  0.1866  0.0460
 2953TIP3    H133054   5.703   2.453  19.623  0.7550 -1.3254 -0.6628
 2953TIP3    H233055   5.810   2.515  19.711  0.3912  0.0585 -1.1739
 2954TIP3   OH233056   1.996   0.531  19.191  0.3507  0.1162 -0.1271
 2954TIP3    H133057   2.013   0.554  19.100  1.3746 -0.1982 -0.0249
 2954TIP3    H233058   1.901   0.536  19.200  0.3283  1.5865 -0.8363
 2955TIP3   OH233059   2.560   4.350  18.817 -0.0741 -0.0826 -0.1466
 2955TIP3    H133060   2.478   4.307  18.794 -0.6657  1.4221 -0.9694
 2955TIP3    H233061   2.600   4.291  18.882 -1.5001 -1.1399 -0.1721
 2956TIP3   OH233062   5.063   2.125  18.602 -0.2332 -0.1830 -0.8508
 2956TIP3    H133063   5.012   2.160  18.674 -0.8143 -2.4160 -0.1032
 2956TIP3    H233064   5.153   2.155  18.619 -0.1750 -1.3928  1.3459
 2957TIP3   OH233065   1.103   4.062  18.451 -0.0985  0.3976 -1.0277
 2957TIP3    H133066   1.036   3.997  18.434 -0.6892  0.2125  1.6874
 2957TIP3    H233067   1.055   4.143  18.466  0.2788  0.3459  0.5686
 2958TIP3   OH233068   5.050   3.632  18.144 -0.0080  0.2466  0.3266
 2958TIP3    H133069   4.967   3.667  18.114 -0.1278 -0.2943  0.0239
 2958TIP3    H233070   5.046   3.539  18.124  0.6736  0.2172  0.3020
 2959TIP3   OH233071   2.506   1.359  18.776 -0.4930 -0.1763  0.4357
 2959TIP3    H133072   2.522   1.343  18.683 -0.7990  0.6813  0.2253
 2959TIP3    H233073   2.435   1.300  18.799 -0.5818 -0.2148  0.0638
 2960TIP3   OH233074   3.639   6.078  19.942  0.1220  0.2461  0.5037
 2960TIP3    H133075   3.678   6.149  19.890  0.9055 -1.6432 -1.6800
 2960TIP3    H233076   3.603   6.017  19.876 -1.4150 -0.9216  2.3065
 2961TIP3   OH233077   2.813   6.230  17.599 -0.8700 -0.2694  0.2719
 2961TIP3    H133078   2.849   6.145  17.571  0.1833 -0.4843  2.1391
 2961TIP3    H233079   2.855   6.294  17.542  1.4742 -0.6637  1.4367
 2962TIP3   OH233080   2.125   6.280  17.007  0.1622 -0.1365 -0.0252
 2962TIP3    H133081   2.059   6.227  16.963  0.8550 -0.7155 -0.4089
 2962TIP3    H233082   2.170   6.218  17.064  1.5407 -0.1880 -1.1036
 2963TIP3   OH233083   5.511   1.082  17.546  0.1184  0.2490  0.2144
 2963TIP3    H133084   5.423   1.047  17.556  0.5944 -1.0493  0.1164
 2963TIP3    H233085   5.548   1.033  17.473  0.6852  1.2744 -0.2063
 2964TIP3   OH233086   2.521   0.660  20.020 -0.1574 -0.1331 -0.0791
 2964TIP3    H133087   2.487   0.645  19.931 -0.7747 -0.0408  0.1398
 2964TIP3    H233088   2.597   0.717  20.007 -0.2454 -0.1179 -0.5508
 2965TIP3   OH233089   0.566   1.637  16.705  0.6927 -0.2012 -0.1708
 2965TIP3    H133090   0.617   1.571  16.659 -0.3864 -1.5412  0.4795
 2965TIP3    H233091   0.556   1.602  16.794 -0.2705  0.6148  0.0616
 2966TIP3   OH233092   0.706   4.841  17.102  0.0146 -0.0725  0.0253
 2966TIP3    H133093   0.776   4.898  17.070 -0.1582 -0.0140 -0.2467
 2966TIP3    H233094   0.751   4.761  17.130  0.1265 -0.2869 -0.7515
 2967TIP3   OH233095   6.264   3.958  16.675 -0.5954 -0.2618  0.9462
 2967TIP3    H133096   6.333   3.938  16.612 -2.1897  0.2695 -1.0778
 2967TIP3    H233097   6.219   3.875  16.689 -0.3255 -0.3524  1.2719
 2968TIP3   OH233098   3.957   2.250  17.103 -0.2593 -0.3868  0.0844
 2968TIP3    H133099   3.880   2.215  17.148 -0.7059  1.0452  0.4925
 2968TIP3    H233100   3.942   2.344  17.100  2.6779  0.3232  2.5740
 2969TIP3   OH233101   6.673   0.430  18.883  0.1797  0.1972  0.0630
 2969TIP3    H133102   6.671   0.395  18.972 -0.7449  0.7006  0.2518
 2969TIP3    H233103   6.607   0.380  18.836  0.5024  0.0914 -0.2784
 2970TIP3   OH233104   2.378   2.736  18.319  0.0476 -0.4579  0.1982
 2970TIP3    H133105   2.350   2.645  18.311 -1.7086  0.0541  0.0944
 2970TIP3    H233106   2.325   2.771  18.391 -1.3473  1.1637 -1.4929
 2971TIP3   OH233107   5.521   3.739  18.328  0.0654 -0.2077  0.9012
 2971TIP3    H133108   5.445   3.708  18.279 -0.3094  0.6306  0.9335
 2971TIP3    H233109   5.491   3.746  18.418  0.2207 -0.0337  0.9410
 2972TIP3   OH233110   5.527   2.251  18.790 -0.2068 -0.5137 -0.6649
 2972TIP3    H133111   5.445   2.241  18.839  0.0965 -0.4280 -0.1409
 2972TIP3    H233112   5.522   2.183  18.723 -1.9057  1.1262 -2.3378
 2973TIP3   OH233113   5.516   5.762  16.133  0.1436  0.0714  0.1431
 2973TIP3    H133114   5.583   5.826  16.109 -1.0787  1.2332 -0.2647
 2973TIP3    H233115   5.488   5.725  16.049  1.4805 -1.7469  0.4140
 2974TIP3   OH233116   0.838   0.328  18.838 -0.2704 -0.0487  0.3057
 2974TIP3    H133117   0.916   0.292  18.880 -0.8426 -1.2540  0.3959
 2974TIP3    H233118   0.789   0.250  18.809 -0.9356  0.7047 -0.6574
 2975TIP3   OH233119   4.044   5.019  18.035  0.3136  0.2926  0.0294
 2975TIP3    H133120   4.066   5.048  17.946  0.0735 -1.2382 -0.5686
 2975TIP3    H233121   3.956   5.053  18.050  0.4745  0.8187 -0.1940
 2976TIP3   OH233122   4.522   5.308  19.141  0.2296  0.0641 -0.2770
 2976TIP3    H133123   4.555   5.226  19.178  0.9493  0.7942  0.7653
 2976TIP3    H233124   4.480   5.282  19.059 -0.3803 -1.4621  0.4756
 2977TIP3   OH233125   6.643   3.439  17.997 -0.0032  0.0581 -0.1413
 2977TIP3    H133126   6.668   3.523  18.036  0.4829 -1.3226  2.8204
 2977TIP3    H233127   6.718   3.416  17.941  0.6223  0.8370  0.3409
 2978TIP3   OH233128   1.605   2.041  18.519 -0.1789  0.2667 -0.0724
 2978TIP3    H133129   1.557   2.111  18.476 -0.6236 -0.0039 -0.0217
 2978TIP3    H233130   1.695   2.073  18.524  0.5129 -0.6532 -3.5247
 2979TIP3   OH233131   2.777   6.761  18.489 -0.1007 -0.2723 -0.4728
 2979TIP3    H133132   2.745   6.671  18.492 -0.8273 -0.0927 -1.8502
 2979TIP3    H233133   2.724   6.808  18.553 -1.1650 -0.4284 -1.2058
 2980TIP3   OH233134   1.292   0.193  19.270  0.1453 -0.5012 -0.1264
 2980TIP3    H133135   1.229   0.169  19.338 -1.4754  2.2931 -0.5182
 2980TIP3    H233136   1.259   0.150  19.191  0.0424 -0.8902  0.1207
 2981TIP3   OH233137   1.863   5.515  17.543 -0.5438 -0.1775 -0.3644
 2981TIP3    H133138   1.775   5.549  17.562 -0.0483  1.1753 -0.4015
 2981TIP3    H233139   1.847   5.437  17.490 -1.7362 -0.1545 -0.0653
 2982TIP3   OH233140   4.387   4.200  17.095 -0.4705  0.2318 -0.1749
 2982TIP3    H133141   4.416   4.284  17.059  1.5326 -0.7756 -1.0191
 2982TIP3    H233142   4.408   4.136  17.028 -0.7347 -1.1312  1.0010
 2983TIP3   OH233143   1.753   3.947  19.786  0.3948 -0.2494 -0.1669
 2983TIP3    H133144   1.778   3.856  19.801  2.0287  0.1998  0.0589
 2983TIP3    H233145   1.785   3.993  19.864  1.5450  0.8280 -1.2223
 2984TIP3   OH233146   2.181   3.391  17.539  0.1961 -0.1094 -0.5887
 2984TIP3    H133147   2.094   3.423  17.563  0.7487  0.1192  1.2233
 2984TIP3    H233148   2.166   3.340  17.459 -1.2344  1.8267 -1.6592
 2985TIP3   OH233149   0.391   1.684  18.143 -0.2072  0.0605  0.1390
 2985TIP3    H133150   0.370   1.657  18.232 -0.5467  2.9835  1.0664
 2985TIP3    H233151   0.375   1.607  18.089 -3.3037 -0.8762  2.1550
 2986TIP3   OH233152   0.990   4.774  17.511  0.0917  0.3974 -0.2086
 2986TIP3    H133153   1.036   4.771  17.427 -1.7500  0.2629 -1.2596
 2986TIP3    H233154   1.060   4.773  17.576  1.6078 -3.7954 -1.5480
 2987TIP3   OH233155   2.084   4.209  19.795  0.7990  0.3323 -0.4755
 2987TIP3    H133156   2.011   4.241  19.741  0.4506 -0.7617 -0.6776
 2987TIP3    H233157   2.134   4.152  19.736 -0.2115 -1.7842  0.6125
 2988TIP3   OH233158   0.197   3.818  18.636  0.2158  0.0672 -0.0371
 2988TIP3    H133159   0.265   3.758  18.604 -1.5154 -2.3007  0.3589
 2988TIP3    H233160   0.150   3.767  18.702 -1.6144  1.7617  0.0621
 2989TIP3   OH233161   3.722   3.622  16.929  0.1716  0.0185 -0.5023
 2989TIP3    H133162   3.802   3.579  16.960 -0.0037 -0.0372 -0.1214
 2989TIP3    H233163   3.743   3.650  16.840 -0.1744 -2.1556 -1.3453
 2990TIP3   OH233164   1.078   6.177  17.624 -0.1689  0.6199  0.1407
 2990TIP3    H133165   1.159   6.169  17.673  0.6799  0.2968 -1.2494
 2990TIP3    H233166   1.079   6.266  17.589 -0.6317  0.7627  0.4882
 2991TIP3   OH233167   3.256   2.785  18.646 -0.0032  0.5743 -0.4678
 2991TIP3    H133168   3.293   2.698  18.633  3.0571  1.4121  1.5857
 2991TIP3    H233169   3.306   2.823  18.719 -1.7195  3.7834 -0.7370
 2992TIP3   OH233170   2.857   0.274  18.903 -0.1983  0.0048  0.1792
 2992TIP3    H133171   2.862   0.197  18.847  0.0292  0.2472 -0.1372
 2992TIP3    H233172   2.764   0.283  18.924 -0.4827  0.7276 -1.2969
 2993TIP3   OH233173   6.605   5.083  17.658  0.0494 -0.0278  0.5575
 2993TIP3    H133174   6.671   5.145  17.689 -0.4528  0.5502  0.5089
 2993TIP3    H233175   6.552   5.134  17.596  0.6984 -0.9955 -0.8625
 2994TIP3   OH233176   0.723   6.022  18.292  0.0732 -1.2888  0.6625
 2994TIP3    H133177   0.733   6.108  18.332  2.6023 -0.6717 -1.0667
 2994TIP3    H233178   0.710   5.963  18.366  2.3315  0.0707  2.2714
 2995TIP3   OH233179   4.360   3.423  16.945 -0.5706  0.2512  0.4097
 2995TIP3    H133180   4.275   3.400  16.982 -0.5042  0.9012  0.9811
 2995TIP3    H233181   4.357   3.518  16.936  0.9641  0.5706  2.6732
 2996TIP3   OH233182   0.970   6.153  16.630  0.0662 -0.3345  0.0104
 2996TIP3    H133183   1.017   6.135  16.548  1.4209 -2.6055  1.1905
 2996TIP3    H233184   1.008   6.234  16.662  1.7792 -1.0536 -0.0946
 2997TIP3   OH233185   0.146   5.360  17.931 -0.6023 -0.0474 -0.4114
 2997TIP3    H133186   0.211   5.407  17.982 -0.3934 -0.8634  0.1047
 2997TIP3    H233187   0.062   5.390  17.965 -0.5282  1.2872 -1.3343
 2998TIP3   OH233188   1.348   0.626  16.809  0.4808  0.5985  0.6917
 2998TIP3    H133189   1.342   0.547  16.754 -0.8714  0.7120  0.6575
 2998TIP3    H233190   1.280   0.684  16.776  1.7154  1.9724  0.4581
 2999TIP3   OH233191   6.584   0.737  18.412  0.0033 -0.3003  0.1642
 2999TIP3    H133192   6.680   0.739  18.418 -0.1135  0.2586  2.8755
 2999TIP3    H233193   6.565   0.659  18.360  1.8961 -1.2463  0.8091
 3000TIP3   OH233194   1.271   0.768  19.570 -1.3426  0.1701 -0.5273
 3000TIP3    H133195   1.289   0.755  19.477 -0.5619  0.4680 -0.4238
 3000TIP3    H233196   1.346   0.817  19.603 -1.9898  0.7911  0.0864
 3001TIP3   OH233197   6.220   2.210  18.940  0.4170 -0.1206  0.2049
 3001TIP3    H133198   6.208   2.205  19.035 -0.3414 -0.4674  0.0961
 3001TIP3    H233199   6.168   2.286  18.913  1.0842  0.3241  0.1248
 3002TIP3   OH233200   5.229   1.060  19.584  0.0123 -0.1001  0.0468
 3002TIP3    H133201   5.317   1.098  19.590 -0.1084  0.2624 -0.4442
 3002TIP3    H233202   5.197   1.060  19.674  0.1869  0.5608  0.1101
 3003TIP3   OH233203   4.558   0.193  17.203 -0.4959  0.1112  0.8335
 3003TIP3    H133204   4.599   0.264  17.154 -0.0732  0.4921  1.7153
 3003TIP3    H233205   4.528   0.131  17.136  2.5246 -0.7683  0.1542
 3004TIP3   OH233206   3.859   4.184  18.013  0.9380  0.5023  0.4225
 3004TIP3    H133207   3.795   4.190  18.083 -0.5398 -0.7452 -0.7600
 3004TIP3    H233208   3.882   4.275  17.993 -1.0653  1.0281  0.3558
 3005TIP3   OH233209   1.576   2.147  17.008 -0.0037 -0.1895  0.0495
 3005TIP3    H133210   1.604   2.078  16.948 -1.5731 -0.0470 -0.9023
 3005TIP3    H233211   1.569   2.225  16.954 -0.2432  0.2290  0.6735
 3006TIP3   OH233212   3.668   4.181  19.188  0.1666  0.6238 -0.2074
 3006TIP3    H133213   3.742   4.180  19.128  1.1236  0.1088  0.9511
 3006TIP3    H233214   3.672   4.267  19.230 -0.3073  0.8565 -0.6250
 3007TIP3   OH233215   4.969   4.594  17.647  0.0478 -0.0501  0.3314
 3007TIP3    H133216   4.988   4.534  17.574 -0.6250  0.2698 -0.1123
 3007TIP3    H233217   4.923   4.540  17.711  0.7570 -0.3651  0.5862
 3008TIP3   OH233218   6.469   3.094  18.234 -0.1049 -0.1252  0.1284
 3008TIP3    H133219   6.426   3.160  18.289 -2.4903 -1.7065  0.3014
 3008TIP3    H233220   6.548   3.137  18.203 -0.9412  2.3814  1.1981
 3009TIP3   OH233221   0.534   1.083  18.767  0.2398 -0.2507  0.2591
 3009TIP3    H133222   0.451   1.043  18.741  0.6396 -0.6445 -0.4561
 3009TIP3    H233223   0.544   1.060  18.859 -0.9136  0.6450  0.6278
 3010TIP3   OH233224   1.666   1.134  17.134  0.2288  0.4905 -0.1925
 3010TIP3    H133225   1.606   1.086  17.077  0.1245  0.8230 -0.3673
 3010TIP3    H233226   1.740   1.157  17.079  0.4924  0.1233  0.0114
 3011TIP3   OH233227   3.539   2.238  17.611 -0.3859  0.8556 -0.0255
 3011TIP3    H133228   3.551   2.177  17.538  2.0552  1.7708 -0.4981
 3011TIP3    H233229   3.446   2.260  17.609 -0.1637  2.1990 -4.0466
 3012TIP3   OH233230   1.490   5.114  17.962  0.0024 -0.5658 -0.2474
 3012TIP3    H133231   1.500   5.189  18.020  1.1411  0.2683 -1.4353
 3012TIP3    H233232   1.567   5.118  17.905 -0.0511 -2.4900 -0.5292
 3013TIP3   OH233233   0.217   4.767  18.862  0.2943 -0.2098  0.2931
 3013TIP3    H133234   0.179   4.839  18.812  3.4408  1.5710  0.2149
 3013TIP3    H233235   0.203   4.689  18.808 -0.4217  0.8876 -1.1507
 3014TIP3   OH233236   3.783   1.715  19.613  0.1024  0.4446  0.3674
 3014TIP3    H133237   3.843   1.665  19.668 -1.3747 -1.0152  0.7308
 3014TIP3    H233238   3.726   1.649  19.574 -1.3030  1.7841  0.0786
 3015TIP3   OH233239   5.389   3.286  17.875 -0.3536  0.1112  0.1839
 3015TIP3    H133240   5.355   3.374  17.861 -0.8448 -0.2691 -1.2952
 3015TIP3    H233241   5.464   3.298  17.932 -0.9610  1.3722  0.7668
 3016TIP3   OH233242   5.216   2.058  19.138  0.3408  0.1844  0.4678
 3016TIP3    H133243   5.215   2.035  19.231 -1.4110 -1.7853  0.0282
 3016TIP3    H233244   5.302   2.029  19.107 -0.1069 -1.7542  0.9249
 3017TIP3   OH233245   1.435   1.260  17.726  0.8584 -0.0430  0.4737
 3017TIP3    H133246   1.370   1.210  17.775 -0.4128 -0.1266 -1.2226
 3017TIP3    H233247   1.480   1.195  17.672 -0.5788  0.5062 -1.4965
 3018TIP3   OH233248   3.497   2.036  18.855  0.2589  0.3110 -0.7873
 3018TIP3    H133249   3.540   2.048  18.770 -0.7992  1.0416 -1.2434
 3018TIP3    H233250   3.428   2.102  18.856 -0.7880 -0.7603 -0.0380
 3019TIP3   OH233251   2.806   3.846  17.287  0.5460 -0.1615  0.6177
 3019TIP3    H133252   2.797   3.756  17.256 -3.8761  0.4373 -0.4688
 3019TIP3    H233253   2.797   3.840  17.382 -0.2971 -0.8547  0.5063
 3020TIP3   OH233254   4.402   6.391  16.870  0.1415  0.0687 -0.0039
 3020TIP3    H133255   4.336   6.458  16.884 -0.9692 -0.6088 -1.6581
 3020TIP3    H233256   4.452   6.422  16.794  1.3911  0.2984  0.8799
 3021TIP3   OH233257   1.683   1.397  16.938  0.3307  0.2499 -0.4894
 3021TIP3    H133258   1.766   1.351  16.949  0.2736  0.5408  1.4566
 3021TIP3    H233259   1.618   1.337  16.974  0.0026  0.9801  0.1674
 3022TIP3   OH233260   2.217   6.494  19.727 -0.0653 -0.5648  0.7151
 3022TIP3    H133261   2.174   6.530  19.650 -1.3550 -2.0030  0.7051
 3022TIP3    H233262   2.180   6.542  19.801 -1.4973 -1.5604  0.6755
 3023TIP3   OH233263   6.369   0.399  18.012  0.2491 -0.1780  0.3624
 3023TIP3    H133264   6.345   0.308  17.996  0.5351 -0.3202  0.7130
 3023TIP3    H233265   6.291   0.449  17.991  0.4197 -0.4008 -0.8511
 3024TIP3   OH233266   1.147   3.824  18.959  0.3362 -0.6561  0.0876
 3024TIP3    H133267   1.101   3.898  18.919  1.1315  0.3959  1.0368
 3024TIP3    H233268   1.100   3.808  19.041 -0.7174 -2.1845 -0.7798
 3025TIP3   OH233269   3.296   0.226  17.741  0.2835 -0.3160 -0.3895
 3025TIP3    H133270   3.371   0.176  17.710  1.7855  0.7660  1.2965
 3025TIP3    H233271   3.238   0.161  17.780  0.1061 -1.2071 -2.0327
 3026TIP3   OH233272   4.117   5.741  16.742 -0.4930  0.0469 -0.4613
 3026TIP3    H133273   4.081   5.652  16.743 -2.2482  0.7144  0.6468
 3026TIP3    H233274   4.040   5.798  16.738  0.5505  1.5351 -0.2113
 3027TIP3   OH233275   2.773   6.250  19.710  0.3384  0.2222  0.2654
 3027TIP3    H133276   2.765   6.236  19.616 -0.4968 -0.8468  0.4662
 3027TIP3    H233277   2.687   6.225  19.745  0.9586 -0.3836  1.4051
 3028TIP3   OH233278   3.741   2.247  18.676  0.3171 -0.0560  0.1427
 3028TIP3    H133279   3.832   2.255  18.649 -0.5081  1.9452 -2.4151
 3028TIP3    H233280   3.724   2.153  18.675  2.3197 -0.4699  0.7270
 3029TIP3   OH233281   4.244   6.520  18.804  0.7949 -0.7605 -0.0296
 3029TIP3    H133282   4.302   6.511  18.879 -1.4652 -0.1770  1.8820
 3029TIP3    H233283   4.217   6.612  18.805 -1.8906 -1.4613  0.5786
 3030TIP3   OH233284   5.043   3.902  18.334  0.4125  0.2266  0.1469
 3030TIP3    H133285   4.973   3.938  18.389 -0.5011  0.7463 -1.3016
 3030TIP3    H233286   5.069   3.821  18.379 -0.4825  0.4852  1.1856
 3031TIP3   OH233287   2.061   1.756  17.075 -0.3403  0.4240 -0.7887
 3031TIP3    H133288   2.062   1.794  17.162  0.1016 -0.8914 -0.1881
 3031TIP3    H233289   2.153   1.745  17.052 -0.3985 -1.7924 -0.2052
 3032TIP3   OH233290   2.866   5.371  17.896 -0.3019  0.0200  0.1471
 3032TIP3    H133291   2.866   5.344  17.988 -2.7316 -0.4365  0.0867
 3032TIP3    H233292   2.944   5.331  17.859  0.2865 -0.4631  1.8218
 3033TIP3   OH233293   2.668   5.674  19.403 -0.6628 -0.5126  0.3121
 3033TIP3    H133294   2.641   5.750  19.453 -2.2733  0.0441 -1.2788
 3033TIP3    H233295   2.654   5.600  19.461  1.0168  0.3484  1.9162
 3034TIP3   OH233296   1.368   4.379  17.971  0.3195 -0.4244  0.0645
 3034TIP3    H133297   1.349   4.413  17.884 -0.5260 -2.0155 -0.4032
 3034TIP3    H233298   1.293   4.324  17.993  1.2535 -1.3432  1.1031
 3035TIP3   OH233299   6.110   5.737  17.107  0.2455 -0.2754 -0.6933
 3035TIP3    H133300   6.170   5.760  17.037  2.0546  0.2833  0.9783
 3035TIP3    H233301   6.057   5.815  17.121 -0.0700 -0.3630 -1.3300
 3036TIP3   OH233302   4.704   3.708  18.537 -0.2135 -0.2980 -0.5712
 3036TIP3    H133303   4.735   3.730  18.624  0.3365  0.9741 -1.0569
 3036TIP3    H233304   4.611   3.692  18.547 -0.3665  0.9323  0.0775
 3037TIP3   OH233305   2.581   3.008  20.238  0.4738  0.0597 -0.1100
 3037TIP3    H133306   2.492   2.976  20.228 -0.4487  2.7093 -1.3944
 3037TIP3    H233307   2.633   2.958  20.175 -0.0756 -1.4516  0.6012
 3038TIP3   OH233308   0.231   2.912  18.385 -0.7736 -0.1966 -0.1486
 3038TIP3    H133309   0.197   2.877  18.467  0.1610 -1.4893 -0.2810
 3038TIP3    H233310   0.200   2.851  18.318 -0.9677  0.4748 -0.6726
 3039TIP3   OH233311   0.939   5.132  19.239  0.1332  0.1700  0.0474
 3039TIP3    H133312   0.888   5.052  19.255  0.2946  0.0809  0.1159
 3039TIP3    H233313   0.888   5.201  19.281 -0.1248  0.1392 -0.2122
 3040TIP3   OH233314   0.018   1.127  18.515  0.0525 -0.1480 -0.4583
 3040TIP3    H133315   0.081   1.168  18.456 -0.7651  0.6717 -0.7912
 3040TIP3    H233316  -0.039   1.199  18.543  0.2759 -0.5673  1.1521
 3041TIP3   OH233317   2.775   5.154  19.470 -0.2864 -0.2359 -0.4635
 3041TIP3    H133318   2.713   5.082  19.461  0.3738 -1.2398  2.0040
 3041TIP3    H233319   2.858   5.120  19.436 -0.1065 -0.4681  0.1885
 3042TIP3   OH233320   3.019   0.831  17.045 -0.7348 -0.0812 -0.0866
 3042TIP3    H133321   3.094   0.888  17.027 -0.9504  0.0205 -0.6925
 3042TIP3    H233322   3.052   0.743  17.029 -0.4093 -0.1326  0.8206
 3043TIP3   OH233323   1.592   5.926  19.694  0.0359  0.1312 -0.3832
 3043TIP3    H133324   1.648   5.975  19.633  1.9129 -1.6682 -0.2290
 3043TIP3    H233325   1.627   5.949  19.781 -0.3585  0.0198 -0.1957
 3044TIP3   OH233326   3.914   1.998  17.380  0.4167 -0.1296  0.3492
 3044TIP3    H133327   3.865   1.938  17.323 -1.4750  2.8583 -1.4168
 3044TIP3    H233328   3.965   2.053  17.320 -0.7365  2.3842  1.5216
 3045TIP3   OH233329   5.975   1.717  19.914  0.1554 -0.9173  0.1129
 3045TIP3    H133330   5.906   1.694  19.852  0.0436 -0.4761  0.0676
 3045TIP3    H233331   5.963   1.811  19.929  2.2470 -0.2361 -1.7990
 3046TIP3   OH233332   1.798   2.532  19.884  0.4826 -0.0480  0.1301
 3046TIP3    H133333   1.816   2.508  19.793  0.9758  0.0602  0.1975
 3046TIP3    H233334   1.730   2.470  19.911  1.3299 -1.0285  0.1224
 3047TIP3   OH233335   4.443   3.892  19.335  0.8107  0.3933 -0.0490
 3047TIP3    H133336   4.354   3.924  19.318  0.9444  1.3832  1.0166
 3047TIP3    H233337   4.431   3.800  19.359  0.0365  0.5918  0.3571
 3048TIP3   OH233338   6.137   1.285  19.485  0.5130  0.4616 -0.4285
 3048TIP3    H133339   6.047   1.254  19.497  0.1632  1.6241  0.1501
 3048TIP3    H233340   6.176   1.223  19.424 -1.7415  1.8458 -3.5070
 3049TIP3   OH233341   4.030   3.605  19.717  0.1817 -1.0098  0.4603
 3049TIP3    H133342   4.033   3.509  19.720  1.0571 -1.0520 -1.0031
 3049TIP3    H233343   3.993   3.625  19.631  0.2168 -0.0293  0.6695
 3050TIP3   OH233344   0.050   0.876  18.363 -0.4619 -0.8755  0.1921
 3050TIP3    H133345   0.133   0.841  18.394  0.5382  0.1413 -1.1842
 3050TIP3    H233346   0.042   0.961  18.408  0.4784  0.1229 -1.4170
 3051TIP3   OH233347   4.387   5.899  17.163 -0.5075 -0.0589  0.0466
 3051TIP3    H133348   4.305   5.851  17.154  1.0429 -2.6700 -1.2669
 3051TIP3    H233349   4.366   5.987  17.131 -2.6126 -0.8400 -0.9127
 3052TIP3   OH233350   0.422   4.860  17.049  0.1755  0.0095 -0.0214
 3052TIP3    H133351   0.385   4.775  17.072  0.7229 -0.7761 -1.9427
 3052TIP3    H233352   0.517   4.849  17.058  0.2227  0.5941  0.2651
 3053TIP3   OH233353   5.072   1.778  16.260 -0.0065  0.0743 -0.2835
 3053TIP3    H133354   5.026   1.821  16.332  0.1430 -1.7951  0.9882
 3053TIP3    H233355   5.155   1.749  16.297 -0.0582 -1.2078 -1.0839
 3054TIP3   OH233356   1.053   1.545  16.244  0.5257  0.3661 -0.3656
 3054TIP3    H133357   0.984   1.612  16.241 -1.3567 -1.1898  3.0108
 3054TIP3    H233358   1.100   1.562  16.326 -0.1551 -2.4747  0.7265
 3055TIP3   OH233359   6.597   1.092  18.988 -0.0639  0.4524 -0.5018
 3055TIP3    H133360   6.508   1.108  19.018  0.0756  1.1900 -0.4696
 3055TIP3    H233361   6.633   1.179  18.971  0.4866  0.1370 -0.9922
 3056TIP3   OH233362   5.479   3.052  18.570 -0.0011  0.2398  0.2150
 3056TIP3    H133363   5.550   2.990  18.591  2.0822  1.7365 -1.8580
 3056TIP3    H233364   5.524   3.128  18.533 -2.5841  2.2910  0.9620
 3057TIP3   OH233365   5.399   3.808  19.500  0.4327 -0.2930  0.4488
 3057TIP3    H133366   5.392   3.713  19.509 -0.7133 -0.1947  0.7453
 3057TIP3    H233367   5.316   3.842  19.533  1.5262  0.9475  2.0742
 3058TIP3   OH233368   2.061   4.175  19.382  0.4404  0.2582  0.3153
 3058TIP3    H133369   1.993   4.109  19.369  0.5194 -0.1030  1.5924
 3058TIP3    H233370   2.052   4.233  19.307  0.0781 -0.9473 -0.6174
 3059TIP3   OH233371   3.838   0.893  18.724 -0.0701  0.3870 -0.1644
 3059TIP3    H133372   3.816   0.890  18.631  1.1227 -0.7335 -0.4383
 3059TIP3    H233373   3.816   0.983  18.750 -0.0066  0.8660 -1.6353
 3060TIP3   OH233374   0.727   2.055  19.864 -0.3684 -0.1827  0.2409
 3060TIP3    H133375   0.742   1.962  19.846 -0.1573 -0.2187  0.5890
 3060TIP3    H233376   0.682   2.057  19.948 -1.1969 -0.0070 -0.2013
 3061TIP3   OH233377   6.796   2.060  20.136  0.5946 -0.3796  0.3024
 3061TIP3    H133378   6.740   2.102  20.201 -1.8955 -1.4015 -1.0407
 3061TIP3    H233379   6.852   2.130  20.103 -0.6797  0.9834  0.9393
 3062TIP3   OH233380   2.622   4.089  17.501  0.0372  0.0249 -0.5941
 3062TIP3    H133381   2.590   4.004  17.471 -0.5252  0.2185 -0.5559
 3062TIP3    H233382   2.718   4.080  17.500 -0.0134 -0.5946 -0.6210
 3063TIP3   OH233383   0.495   4.483  17.588 -0.2225  0.2370 -0.0486
 3063TIP3    H133384   0.575   4.533  17.570 -1.2040  2.0131  0.2307
 3063TIP3    H233385   0.497   4.469  17.683  0.1486 -0.4279 -0.1548
 3064TIP3   OH233386   1.236   4.159  17.081 -0.0096 -0.5985  0.4822
 3064TIP3    H133387   1.262   4.214  17.007  1.3255 -1.9224 -0.0755
 3064TIP3    H233388   1.263   4.208  17.159  1.9086 -0.7960 -0.0245
 3065TIP3   OH233389   0.565   4.112  17.431 -0.7014 -0.1831  0.3826
 3065TIP3    H133390   0.580   4.184  17.369 -1.0304  0.0589  0.5815
 3065TIP3    H233391   0.470   4.112  17.445 -0.6393 -0.2968  0.8126
 3066TIP3   OH233392   1.501   5.628  18.820 -0.4299 -0.5149 -0.0005
 3066TIP3    H133393   1.452   5.631  18.738 -1.2808 -1.3832  0.4530
 3066TIP3    H233394   1.545   5.544  18.818 -0.7215 -0.6877  0.5698
 3067TIP3   OH233395   0.573   4.860  17.374  0.4261  0.3345 -0.6346
 3067TIP3    H133396   0.624   4.816  17.442  1.1435  0.5665 -1.0204
 3067TIP3    H233397   0.606   4.825  17.292 -2.5428 -2.3250 -0.8818
 3068TIP3   OH233398   1.612   6.309  18.312 -0.0223  0.5543  0.0282
 3068TIP3    H133399   1.553   6.263  18.253  0.3948 -0.3072  0.2669
 3068TIP3    H233400   1.699   6.295  18.275  0.0959  1.3475 -0.0151
 3069TIP3   OH233401   0.920   3.226  18.412 -0.3154  0.0953 -0.1955
 3069TIP3    H133402   0.944   3.264  18.327 -0.1540  0.1517 -0.1249
 3069TIP3    H233403   0.880   3.142  18.391 -0.0379 -0.0072 -0.3147
 3070TIP3   OH233404   6.163   2.020  19.294 -0.2649  0.5762 -0.4015
 3070TIP3    H133405   6.084   2.066  19.267  0.5678  2.1908 -0.1663
 3070TIP3    H233406   6.206   2.078  19.356  0.9118 -0.4497 -0.2046
 3071TIP3   OH233407   1.127   5.630  18.313  0.6373  0.2099  0.2438
 3071TIP3    H133408   1.188   5.702  18.331  1.4513 -0.3836 -0.0987
 3071TIP3    H233409   1.044   5.659  18.352  1.3890  0.5918  1.6302
 3072TIP3   OH233410   0.149   2.788  20.008 -0.3225  0.0127 -0.0960
 3072TIP3    H133411   0.080   2.722  19.998 -0.3885 -0.2417  1.7478
 3072TIP3    H233412   0.218   2.744  20.056  0.6841  0.6027 -0.9629
 3073TIP3   OH233413   0.035   1.781  16.489 -0.0411 -0.6387 -0.1147
 3073TIP3    H133414   0.042   1.844  16.417 -0.0892 -1.0867 -0.5130
 3073TIP3    H233415   0.081   1.703  16.457 -0.6649 -1.0813  0.0639
 3074TIP3   OH233416   2.186   5.470  18.009 -0.2242  0.3708  0.1416
 3074TIP3    H133417   2.130   5.475  17.931 -2.8927  0.2051  1.9088
 3074TIP3    H233418   2.273   5.492  17.977 -1.0018 -0.6082 -3.0500
 3075TIP3   OH233419   5.768   4.708  19.451 -0.3397  0.1421  0.0208
 3075TIP3    H133420   5.721   4.754  19.521 -1.6042 -1.3818  0.2413
 3075TIP3    H233421   5.718   4.627  19.439  1.3580 -0.8197 -0.8653
 3076TIP3   OH233422   5.831   2.848  17.682  0.1374 -0.2983  0.1798
 3076TIP3    H133423   5.740   2.866  17.704  0.2903 -1.0943  1.6220
 3076TIP3    H233424   5.878   2.927  17.708 -0.1874  0.3235 -1.0617
 3077TIP3   OH233425   6.625   5.827  19.855  0.2975 -0.3742 -0.0640
 3077TIP3    H133426   6.645   5.908  19.902 -0.9428  0.6357 -1.1882
 3077TIP3    H233427   6.673   5.834  19.773 -0.9636 -0.0535 -0.8048
 3078TIP3   OH233428   4.466   1.534  19.551  0.0697  0.2794  0.0892
 3078TIP3    H133429   4.500   1.601  19.610  0.4404  1.1237 -1.0588
 3078TIP3    H233430   4.538   1.516  19.490 -0.4078 -0.3421 -0.3112
 3079TIP3   OH233431   2.494   1.197  19.634  0.0212  0.2021 -0.2454
 3079TIP3    H133432   2.417   1.207  19.690 -0.0902  1.0592 -0.5428
 3079TIP3    H233433   2.492   1.105  19.606 -1.2144  0.3573 -0.7089
 3080TIP3   OH233434   3.471   2.146  19.675 -0.1206  0.1811 -0.2926
 3080TIP3    H133435   3.566   2.160  19.675  0.1072 -1.2895 -0.2011
 3080TIP3    H233436   3.435   2.229  19.706  1.0988  0.9579 -0.8786
 3081TIP3   OH233437   3.665   1.254  18.282 -0.3055 -0.0406  0.1307
 3081TIP3    H133438   3.736   1.211  18.328 -0.6083  0.0965  0.7426
 3081TIP3    H233439   3.586   1.214  18.317 -0.5619  0.4565  0.1357
 3082TIP3   OH233440   5.715   5.767  16.956  0.2406  0.0225  0.1435
 3082TIP3    H133441   5.792   5.813  16.922  0.4126  0.2709  0.8464
 3082TIP3    H233442   5.741   5.675  16.959 -0.0036 -0.1044 -0.9918
 3083TIP3   OH233443   6.012   4.793  19.003  0.0282  0.0711  0.1060
 3083TIP3    H133444   6.006   4.799  19.098  0.7540 -0.1082  0.1706
 3083TIP3    H233445   6.102   4.819  18.983 -0.5934  1.7610 -0.6758
 3084TIP3   OH233446   1.970   6.572  18.148  0.2072 -0.0692  0.0379
 3084TIP3    H133447   2.060   6.541  18.137 -0.4106 -2.0139 -0.0169
 3084TIP3    H233448   1.944   6.537  18.234 -0.5375  0.3382 -0.0231
 3085TIP3   OH233449   0.267   2.628  18.486 -0.2995  0.6331 -0.8119
 3085TIP3    H133450   0.343   2.607  18.540  0.3880  0.5358 -1.7759
 3085TIP3    H233451   0.206   2.673  18.545 -0.1560 -0.6440  0.3496
 3086TIP3   OH233452   6.132   3.822  17.901 -0.5121  0.4867 -0.1127
 3086TIP3    H133453   6.085   3.741  17.883  0.6681 -0.0702 -0.7547
 3086TIP3    H233454   6.120   3.836  17.995 -1.5343  0.1021 -0.1715
 3087TIP3   OH233455   1.463   1.376  17.465  0.0610 -0.1217  0.2339
 3087TIP3    H133456   1.494   1.362  17.555  0.7655 -1.4917 -0.2060
 3087TIP3    H233457   1.396   1.444  17.474 -0.0863 -0.4357  1.8389
 3088TIP3   OH233458   6.415   5.807  17.549  0.5619  0.1474  0.4369
 3088TIP3    H133459   6.338   5.798  17.605  0.9954 -0.6829  0.9096
 3088TIP3    H233460   6.409   5.734  17.487 -0.0258  1.1707 -0.7751
 3089TIP3   OH233461   3.205   1.537  18.141 -0.7163 -0.1394  0.2855
 3089TIP3    H133462   3.180   1.594  18.213 -3.1171  1.3337 -1.5411
 3089TIP3    H233463   3.176   1.450  18.166 -1.5657  0.3627  1.0719
 3090TIP3   OH233464   1.775   1.279  16.416  0.2806 -0.3498  0.3978
 3090TIP3    H133465   1.841   1.307  16.353  1.4595 -0.0995  1.6906
 3090TIP3    H233466   1.824   1.226  16.480 -0.9051 -0.7662  0.9841
 3091TIP3   OH233467   5.333   0.673  19.106  0.2902  0.2008  0.1526
 3091TIP3    H133468   5.280   0.662  19.185  1.1456 -2.7377  0.4729
 3091TIP3    H233469   5.382   0.753  19.120 -1.7561  1.3453  1.2034
 3092TIP3   OH233470   6.280   1.679  19.638 -0.1915  0.2401 -0.0032
 3092TIP3    H133471   6.290   1.743  19.709  0.1104 -0.7906  0.9182
 3092TIP3    H233472   6.238   1.728  19.567 -0.6526  1.2608  0.9411
 3093TIP3   OH233473   5.123   2.595  19.652  0.1562 -0.7194 -0.1549
 3093TIP3    H133474   5.132   2.556  19.739 -1.3506  1.0262  0.8770
 3093TIP3    H233475   5.212   2.619  19.627  0.3757  1.5359  2.3590
 3094TIP3   OH233476   0.078   2.126  16.614  0.9126  0.2529  0.8917
 3094TIP3    H133477   0.027   2.072  16.675  0.9378 -0.5062  0.2611
 3094TIP3    H233478   0.015   2.153  16.548  1.1394  0.0663  0.5995
 3095TIP3   OH233479   3.931   3.312  19.097 -0.1884 -0.4980  0.1089
 3095TIP3    H133480   3.894   3.393  19.131 -0.8795  0.4219 -2.5805
 3095TIP3    H233481   3.861   3.248  19.106 -0.3414 -0.2875  0.4336
 3096TIP3   OH233482   3.654   2.064  19.421 -0.0696 -0.4125  0.8450
 3096TIP3    H133483   3.662   2.159  19.410  0.6045 -0.5445  0.1860
 3096TIP3    H233484   3.686   2.027  19.339  0.9071 -1.2651  1.5848
 3097TIP3   OH233485   0.735   2.812  19.010 -0.1174  0.5238  0.7241
 3097TIP3    H133486   0.761   2.819  18.918 -2.0425  0.6995  0.1344
 3097TIP3    H233487   0.661   2.751  19.009  0.5821 -0.4038  2.3375
 3098TIP3   OH233488   3.111   3.839  18.857 -0.6893 -0.2892 -0.2965
 3098TIP3    H133489   3.195   3.880  18.839 -1.0021  0.1160 -0.8594
 3098TIP3    H233490   3.133   3.753  18.892 -0.0219  0.2571  0.6791
 3099TIP3   OH233491   5.486   1.538  17.473 -0.2257 -0.0272  0.4995
 3099TIP3    H133492   5.478   1.528  17.378 -1.1149 -1.2108  0.6687
 3099TIP3    H233493   5.494   1.632  17.486 -0.3439  0.1793 -0.7402
 3100TIP3   OH233494   2.851   4.401  19.655  0.0563  0.5881 -0.0472
 3100TIP3    H133495   2.840   4.429  19.746  1.4508  1.7592 -0.1991
 3100TIP3    H233496   2.828   4.308  19.655  0.8602  0.3562  1.6838
 3101TIP3   OH233497   0.141   0.282  16.103  0.0051  0.1739  0.0571
 3101TIP3    H133498   0.078   0.241  16.043 -1.0735 -0.0004  1.2716
 3101TIP3    H233499   0.218   0.225  16.099 -0.7507 -0.8870  0.2458
 3102TIP3   OH233500   3.392   4.670  17.173 -0.3845 -0.0228 -0.0964
 3102TIP3    H133501   3.331   4.596  17.170  0.0765 -0.3769 -0.9097
 3102TIP3    H233502   3.336   4.747  17.170 -0.8318 -0.3375  0.0157
 3103TIP3   OH233503   4.090   2.130  19.458  0.3090  0.0394 -0.1415
 3103TIP3    H133504   4.090   2.105  19.366  0.7289  2.1339 -0.7603
 3103TIP3    H233505   4.023   2.074  19.498  2.0608 -2.9736 -1.0560
 3104TIP3   OH233506   1.385   5.886  17.285  0.1486  0.1265 -0.5698
 3104TIP3    H133507   1.397   5.832  17.206 -0.7578  0.5210 -0.9948
 3104TIP3    H233508   1.309   5.848  17.329 -0.5920  1.1175 -0.9486
 3105TIP3   OH233509   4.352   5.529  17.483 -0.3901  0.1652  0.1121
 3105TIP3    H133510   4.343   5.621  17.509 -0.7400  0.4634 -1.0359
 3105TIP3    H233511   4.434   5.501  17.524 -0.1414  1.0582  0.2597
 3106TIP3   OH233512   1.051   0.387  17.998 -0.0368 -0.6988 -0.2430
 3106TIP3    H133513   1.100   0.311  17.966 -1.6949 -1.6343 -0.6688
 3106TIP3    H233514   0.982   0.400  17.933 -1.2203 -0.3076  1.0502
 3107TIP3   OH233515   4.519   0.563  17.819 -0.1391 -0.3246 -0.1671
 3107TIP3    H133516   4.460   0.613  17.876 -0.0581 -0.3481 -0.0613
 3107TIP3    H233517   4.605   0.570  17.861 -0.0834 -0.3584 -0.2757
 3108TIP3   OH233518   4.714   2.353  18.087  0.0264 -0.2690  0.3583
 3108TIP3    H133519   4.628   2.322  18.116  0.3664  0.8019  2.7630
 3108TIP3    H233520   4.694   2.425  18.028 -0.6992 -1.5311 -1.0095
 3109TIP3   OH233521   3.545   0.002  19.458 -0.1655 -0.7513  0.3096
 3109TIP3    H133522   3.619  -0.033  19.509  1.0071 -1.5535 -1.8187
 3109TIP3    H233523   3.573   0.091  19.435 -0.2201 -0.7739  0.1597
 3110TIP3   OH233524   5.311   6.001  18.695 -0.3108  0.4758 -0.1448
 3110TIP3    H133525   5.276   5.994  18.784  0.0414 -2.6976 -0.1455
 3110TIP3    H233526   5.239   6.038  18.644 -1.8688 -1.0278  0.8459
 3111TIP3   OH233527   2.846   2.112  17.765 -0.4673  0.3460 -0.3907
 3111TIP3    H133528   2.756   2.090  17.792 -0.7207  1.9644  0.1739
 3111TIP3    H233529   2.873   2.038  17.711 -1.6666 -0.7907  0.5018
 3112TIP3   OH233530   6.467   2.946  19.974 -0.0981  0.5331 -0.0064
 3112TIP3    H133531   6.399   3.007  19.947  0.9578  1.2021 -1.2983
 3112TIP3    H233532   6.424   2.861  19.978 -1.0621  0.9828 -0.5317
 3113TIP3   OH233533   0.100   6.506  19.083 -0.0714 -0.5255 -0.0629
 3113TIP3    H133534   0.100   6.600  19.103  0.9679 -0.3966 -0.6189
 3113TIP3    H233535   0.157   6.497  19.007 -1.0572 -1.4760 -0.7234
 3114TIP3   OH233536   0.857   2.425  18.986 -0.8059  0.3649 -0.3428
 3114TIP3    H133537   0.865   2.477  18.906 -0.3982 -0.9863 -1.2180
 3114TIP3    H233538   0.947   2.413  19.016 -0.5660 -2.3396 -1.8652
 3115TIP3   OH233539   4.904   5.428  16.689 -0.4106  0.8084  0.3448
 3115TIP3    H133540   4.843   5.497  16.663 -1.7860 -0.5501 -0.1978
 3115TIP3    H233541   4.848   5.353  16.709  1.0775 -0.5427 -0.3158
 3116TIP3   OH233542   5.585   0.240  18.515 -0.2108  0.0195  0.3444
 3116TIP3    H133543   5.523   0.299  18.559 -1.5884  0.2778 -1.7679
 3116TIP3    H233544   5.600   0.169  18.578  0.0923  1.6807  2.2580
 3117TIP3   OH233545   6.734   6.670  19.382  0.1414 -0.1108  0.3078
 3117TIP3    H133546   6.642   6.656  19.404  0.0516 -0.4864 -0.2845
 3117TIP3    H233547   6.770   6.715  19.458 -0.2764 -0.8883  0.9807
 3118TIP3   OH233548   5.373   2.811  17.288  0.0733 -0.5114  0.3854
 3118TIP3    H133549   5.284   2.776  17.294 -0.2801  0.3947  0.6080
 3118TIP3    H233550   5.370   2.872  17.215  0.0019  0.9157  1.5266
 3119TIP3   OH233551   6.051   2.421  16.871  0.1865 -0.0371  0.1465
 3119TIP3    H133552   6.064   2.510  16.837  0.5233  0.2154  0.9146
 3119TIP3    H233553   5.985   2.432  16.940 -1.7488 -0.7910 -1.4580
 3120TIP3   OH233554   3.100   4.229  18.176  0.1953  0.4373 -0.0040
 3120TIP3    H133555   3.195   4.217  18.171  0.1114 -0.7274  0.9396
 3120TIP3    H233556   3.064   4.162  18.117 -0.0206  2.5710 -2.5129
 3121TIP3   OH233557   0.946   4.172  17.255  0.0639 -0.0623  0.6045
 3121TIP3    H133558   1.024   4.160  17.310 -0.5042  1.2866  1.7768
 3121TIP3    H233559   0.888   4.100  17.278  0.2299 -0.0554  1.0483
 3122TIP3   OH233560   4.158   3.119  17.404 -0.6712 -0.1158  0.6054
 3122TIP3    H133561   4.111   3.179  17.347  2.1901  2.2038  0.4305
 3122TIP3    H233562   4.204   3.060  17.345  0.9630  1.2158  0.4822
 3123TIP3   OH233563   1.102   1.884  18.758  0.5625  0.1913 -0.0518
 3123TIP3    H133564   1.039   1.921  18.820 -0.7737 -0.5611 -0.8901
 3123TIP3    H233565   1.140   1.960  18.713  1.1363  0.7104  1.2707
 3124TIP3   OH233566   0.194   6.438  17.795  0.0054 -0.0568  0.1736
 3124TIP3    H133567   0.171   6.404  17.709  0.6883 -0.6068  0.1996
 3124TIP3    H233568   0.185   6.364  17.854  1.7908 -0.3092  0.1813
 3125TIP3   OH233569   4.579   2.066  17.522 -0.8403  0.7088 -0.0488
 3125TIP3    H133570   4.490   2.036  17.541 -1.1042 -0.1816 -2.4244
 3125TIP3    H233571   4.569   2.123  17.446  0.5574  1.0642  0.0205
 3126TIP3   OH233572   5.487   4.195  19.107 -0.0471 -0.0560 -0.1154
 3126TIP3    H133573   5.448   4.133  19.169 -0.5698  0.1710 -0.2169
 3126TIP3    H233574   5.538   4.254  19.163 -1.8393  1.1700  0.3159
 3127TIP3   OH233575   5.961   5.929  17.813 -0.1667 -0.4930  0.1377
 3127TIP3    H133576   5.869   5.919  17.787 -0.6727  1.9223  0.6947
 3127TIP3    H233577   5.988   5.842  17.841 -2.0779 -1.4099 -0.6822
 3128TIP3   OH233578   0.391   6.057  18.340  0.0455 -0.2176  0.5082
 3128TIP3    H133579   0.344   6.063  18.257 -0.1664 -0.8981  0.5736
 3128TIP3    H233580   0.409   5.964  18.351  0.3434 -0.0970  1.0747
 3129TIP3   OH233581   5.845   2.406  17.975  0.6747  0.0150  0.7961
 3129TIP3    H133582   5.770   2.357  17.941  1.5539 -1.2988  0.6825
 3129TIP3    H233583   5.858   2.477  17.911 -1.0902  0.9171  1.3774
 3130TIP3   OH233584   4.534   2.913  17.543  0.1035  0.0987  0.0065
 3130TIP3    H133585   4.468   2.971  17.583  1.9429  1.6296  0.9680
 3130TIP3    H233586   4.491   2.880  17.463 -2.2855 -0.0395  1.2439
 3131TIP3   OH233587   0.532   6.093  19.774  0.3917 -0.4505  0.4053
 3131TIP3    H133588   0.555   6.186  19.769  1.0068 -0.6562 -2.2107
 3131TIP3    H233589   0.614   6.049  19.798  0.6163 -0.4465 -0.3135
 3132TIP3   OH233590   5.489   4.429  18.669  0.1035  0.1603 -0.2549
 3132TIP3    H133591   5.519   4.388  18.750 -0.1967 -0.9904 -0.7124
 3132TIP3    H233592   5.410   4.380  18.645 -0.4194  1.1827 -0.6744
 3133TIP3   OH233593   1.488   6.060  16.828  0.7100  0.2267 -0.1061
 3133TIP3    H133594   1.498   6.152  16.805 -1.1720  0.2906 -0.8244
 3133TIP3    H233595   1.438   6.022  16.755 -2.1193 -0.4152  1.9879
 3134TIP3   OH233596   2.734   2.251  19.229 -0.2871 -0.1165  0.1439
 3134TIP3    H133597   2.724   2.295  19.313 -0.4379 -0.3572  0.2493
 3134TIP3    H233598   2.744   2.159  19.251 -2.3719 -0.4727 -0.1983
 3135TIP3   OH233599   2.484   4.460  18.104  0.2005  0.1983 -0.4075
 3135TIP3    H133600   2.549   4.444  18.036  3.8858 -0.0588  2.8094
 3135TIP3    H233601   2.482   4.378  18.154 -0.7621  1.0539  1.0105
 3136TIP3   OH233602   6.141   0.494  17.863  0.9288  0.4631 -0.4748
 3136TIP3    H133603   6.123   0.587  17.847  0.7626  0.5479  0.2080
 3136TIP3    H233604   6.127   0.452  17.777 -0.0082  0.9171 -0.5561
 3137TIP3   OH233605   4.996   6.452  19.362  0.2916  0.3196 -0.4390
 3137TIP3    H133606   4.947   6.383  19.408  0.7109  1.2865  1.5717
 3137TIP3    H233607   5.087   6.424  19.368  0.4757  1.0703  0.5007
 3138TIP3   OH233608   0.835   0.579  17.271  0.3073  0.2884 -0.4878
 3138TIP3    H133609   0.874   0.524  17.204  0.8030 -0.2169  0.1994
 3138TIP3    H233610   0.876   0.664  17.261 -0.4598  0.5535 -1.5558
 3139TIP3   OH233611   1.705   4.429  19.741 -0.4128 -0.2554  0.2911
 3139TIP3    H133612   1.705   4.403  19.834 -2.5500 -0.7275  0.2180
 3139TIP3    H233613   1.757   4.361  19.698 -0.7947 -0.9910  0.9456
 3140TIP3   OH233614   3.529   5.961  19.047  0.4052  0.0100  0.0842
 3140TIP3    H133615   3.469   5.887  19.054  0.6003 -0.1107  0.5659
 3140TIP3    H233616   3.474   6.038  19.058  0.6513 -0.1322  3.7070
 3141TIP3   OH233617   0.703   3.171  17.733 -0.2640  0.1421  0.2873
 3141TIP3    H133618   0.775   3.123  17.692 -1.2881  0.0774 -1.5137
 3141TIP3    H233619   0.725   3.263  17.719 -1.2863  0.1167 -1.7161
 3142TIP3   OH233620   2.191   5.274  19.135 -0.4374  0.0750 -0.0417
 3142TIP3    H133621   2.193   5.337  19.207  1.9789 -0.8365  0.7979
 3142TIP3    H233622   2.116   5.301  19.082 -3.7106 -0.4344  3.8226
 3143TIP3   OH233623   6.356   4.462  18.836 -0.3324 -1.0813 -0.0784
 3143TIP3    H133624   6.423   4.474  18.770 -0.6061 -0.5316 -0.2597
 3143TIP3    H233625   6.273   4.477  18.790 -0.5088 -0.3406  0.4655
 3144TIP3   OH233626   3.171   4.825  18.253 -0.0242 -0.2433  0.1864
 3144TIP3    H133627   3.258   4.863  18.244 -0.2878  0.2896 -0.1602
 3144TIP3    H233628   3.130   4.837  18.167 -1.1317  1.2744  0.8672
 3145TIP3   OH233629   2.620   1.024  17.789  0.1851 -0.3068  0.1650
 3145TIP3    H133630   2.685   0.958  17.765 -0.6762 -1.3130  0.5135
 3145TIP3    H233631   2.656   1.068  17.866  0.6854 -0.4855  0.0319
 3146TIP3   OH233632   0.917   6.238  18.261 -0.1580  0.2963 -0.5332
 3146TIP3    H133633   0.864   6.316  18.246  0.2579  0.5967 -0.4465
 3146TIP3    H233634   0.978   6.262  18.331 -0.2651 -0.2200 -0.2600
 3147TIP3   OH233635   6.574   2.778  17.501  0.1064 -0.3681  0.0323
 3147TIP3    H133636   6.502   2.827  17.541 -1.5173 -1.6277 -1.2545
 3147TIP3    H233637   6.653   2.817  17.540 -1.1785  1.8680  0.5784
 3148TIP3   OH233638   6.132   4.032  18.485 -0.0075 -0.1761 -0.4482
 3148TIP3    H133639   6.170   3.964  18.430 -0.6937 -0.3080 -0.7690
 3148TIP3    H233640   6.204   4.061  18.541  0.8698  0.3883 -1.8199
 3149TIP3   OH233641   4.936   1.279  17.670  0.0402 -0.1546  0.4229
 3149TIP3    H133642   4.934   1.189  17.703  3.3589  0.2636  2.2530
 3149TIP3    H233643   4.903   1.272  17.581  1.2381 -3.4414  0.0752
 3150TIP3   OH233644   0.893   6.517  18.313 -0.7654 -0.2053 -0.9162
 3150TIP3    H133645   0.844   6.599  18.301 -1.4050 -0.5776 -0.9273
 3150TIP3    H233646   0.981   6.537  18.283 -0.1979  1.2303  1.4360
 3151TIP3   OH233647   2.616   1.173  19.124 -0.0391  0.7224  0.1311
 3151TIP3    H133648   2.577   1.119  19.055  0.0145  0.6646  0.1449
 3151TIP3    H233649   2.598   1.263  19.098 -0.3435  0.6919  0.2315
 3152TIP3   OH233650   2.679   5.210  18.408  0.1900  0.1462 -0.1411
 3152TIP3    H133651   2.766   5.172  18.395  0.1940  0.3912 -0.9157
 3152TIP3    H233652   2.655   5.186  18.497  1.0019 -0.0258  0.0380
 3153TIP3   OH233653   5.675   4.977  17.434  0.5962 -0.5894  0.6055
 3153TIP3    H133654   5.674   4.961  17.528  2.6296 -3.1771  0.2939
 3153TIP3    H233655   5.584   4.997  17.412  0.3850  2.0377  3.3252
 3154TIP3   OH233656   4.987   6.381  19.752 -0.3702  0.0994 -0.2528
 3154TIP3    H133657   4.956   6.430  19.829  3.2279  1.1343  0.7129
 3154TIP3    H233658   5.049   6.439  19.709 -0.8512 -1.2081 -2.9173
 3155TIP3   OH233659   3.969   4.356  17.313 -0.2650  0.1161  0.1331
 3155TIP3    H133660   4.058   4.326  17.334  0.4040  2.8672  1.6516
 3155TIP3    H233661   3.913   4.284  17.342  1.3239 -0.6183  1.5732
 3156TIP3   OH233662   2.033   5.148  17.369  0.5673 -0.1146  0.0532
 3156TIP3    H133663   2.086   5.215  17.326 -1.4559  2.4650  1.3233
 3156TIP3    H233664   2.073   5.137  17.455 -0.5080  1.4653  0.8203
 3157TIP3   OH233665   4.590   3.830  19.101  0.5411  0.3960 -0.0726
 3157TIP3    H133666   4.579   3.906  19.159  0.4869 -0.4880  1.1113
 3157TIP3    H233667   4.504   3.820  19.059  0.9688  1.8687 -1.3951
 3158TIP3   OH233668   4.398   0.827  19.761 -0.2772  0.4424  0.5162
 3158TIP3    H133669   4.414   0.733  19.757 -1.3825  0.2830 -0.6104
 3158TIP3    H233670   4.317   0.841  19.712 -0.4028  1.9272  1.0734
 3159TIP3   OH233671   6.629   5.774  18.488  0.1622  0.7324 -0.4978
 3159TIP3    H133672   6.623   5.869  18.493 -0.0297  0.6692  0.6174
 3159TIP3    H233673   6.640   5.756  18.394  3.1700  2.0203 -0.5038
 3160TIP3   OH233674   4.227   1.415  19.666  0.3523 -0.2982 -0.6413
 3160TIP3    H133675   4.311   1.423  19.621  0.5195 -0.4883 -0.3665
 3160TIP3    H233676   4.224   1.324  19.694  1.6868  0.4814  2.4752
 3161TIP3   OH233677   5.144   0.772  17.317 -0.2793 -0.0103 -0.2111
 3161TIP3    H133678   5.079   0.755  17.249 -0.9072 -2.4558  0.9191
 3161TIP3    H233679   5.137   0.698  17.377  2.3122  0.5583  0.9369
 3162TIP3   OH233680   0.591   4.172  16.391  0.1786 -0.3486  0.0662
 3162TIP3    H133681   0.621   4.137  16.307  1.1590 -0.3512  0.4143
 3162TIP3    H233682   0.508   4.126  16.407  0.1333 -0.5674 -0.7521
 3163TIP3   OH233683   3.709   4.716  18.487  0.2885  0.0103 -0.2294
 3163TIP3    H133684   3.694   4.660  18.563  2.9347 -0.1369  0.2627
 3163TIP3    H233685   3.664   4.671  18.415 -0.4837 -0.9430  0.8275
 3164TIP3   OH233686   0.746   0.200  19.381  0.0667  0.0780 -0.7391
 3164TIP3    H133687   0.733   0.196  19.475  0.8693  0.4640 -0.6024
 3164TIP3    H233688   0.716   0.115  19.348 -1.6540  0.5024 -0.3343
 3165TIP3   OH233689   4.023   4.550  19.143 -0.9108  0.4586 -0.0590
 3165TIP3    H133690   3.975   4.624  19.182  0.4942  1.1773  0.3718
 3165TIP3    H233691   3.960   4.511  19.082 -1.8505  1.7352  0.0353
 3166TIP3   OH233692   3.935   4.438  17.995 -0.1875  1.0012  0.1009
 3166TIP3    H133693   4.008   4.474  18.047 -0.3094 -0.1618  1.1160
 3166TIP3    H233694   3.939   4.486  17.912  0.6622  2.1745  0.7889
 3167TIP3   OH233695   6.540   5.184  17.011  0.3966  0.8653  0.2952
 3167TIP3    H133696   6.523   5.208  16.920  0.2301  1.1476  0.3999
 3167TIP3    H233697   6.465   5.218  17.059 -0.9429 -1.6884  0.1891
 3168TIP3   OH233698   5.596   3.789  18.958 -0.4358 -0.0319 -0.2671
 3168TIP3    H133699   5.606   3.757  19.048  1.3196  1.1667  0.0318
 3168TIP3    H233700   5.625   3.880  18.963  0.2864 -0.1260 -2.1585
 3169TIP3   OH233701   0.641   3.622  19.958 -0.8968 -0.5984  0.4658
 3169TIP3    H133702   0.640   3.605  20.052 -1.0921  2.2568  1.0679
 3169TIP3    H233703   0.732   3.613  19.933 -0.6623 -0.3282  1.1795
 3170TIP3   OH233704   4.192   5.793  18.582  0.8753 -0.3009 -0.0671
 3170TIP3    H133705   4.136   5.836  18.517 -1.4126 -2.7672  0.1417
 3170TIP3    H233706   4.254   5.741  18.530  1.4847  0.5880 -0.2605
 3171TIP3   OH233707   0.366   1.961  18.380  0.9125 -0.3389 -0.2003
 3171TIP3    H133708   0.280   1.979  18.344  1.1392  1.8758  0.2048
 3171TIP3    H233709   0.349   1.913  18.461 -0.1172  1.6024  0.8108
 3172TIP3   OH233710   3.555   1.493  19.139  0.2495 -0.6185 -0.5304
 3172TIP3    H133711   3.565   1.455  19.051 -1.8447  1.2368 -1.6763
 3172TIP3    H233712   3.607   1.573  19.136 -0.7223  0.0264 -0.4960
 3173TIP3   OH233713   4.775   4.185  17.258 -0.4604 -0.1130 -0.3537
 3173TIP3    H133714   4.693   4.176  17.307  0.8034 -1.1085  1.7361
 3173TIP3    H233715   4.755   4.247  17.189 -2.4959  1.0781  1.1948
 3174TIP3   OH233716   0.145   0.687  16.717  0.3658 -0.8723 -0.3721
 3174TIP3    H133717   0.159   0.742  16.640 -1.2950 -0.3261 -0.3413
 3174TIP3    H233718   0.053   0.660  16.710  0.0651 -0.5011  1.5977
 3175TIP3   OH233719   2.521   2.496  19.698  0.2850  0.4983 -0.1622
 3175TIP3    H133720   2.582   2.432  19.736 -0.3830 -0.0990 -0.0798
 3175TIP3    H233721   2.479   2.536  19.774 -0.5824 -0.2352 -0.2480
 3176TIP3   OH233722   5.244   6.498  18.291  0.0092 -0.2350 -0.2415
 3176TIP3    H133723   5.336   6.523  18.284  0.4394 -1.8226 -0.7629
 3176TIP3    H233724   5.201   6.548  18.222  0.2847  1.2315  0.6014
 3177TIP3   OH233725   6.678   2.312  17.451 -0.3337  0.4714  0.2936
 3177TIP3    H133726   6.753   2.273  17.406 -1.2565  0.8860 -1.7277
 3177TIP3    H233727   6.716   2.360  17.524  1.2985  0.1484 -0.3012
 3178TIP3   OH233728   4.933   1.585  19.972  0.4061  0.0489 -0.3416
 3178TIP3    H133729   4.954   1.531  20.048 -2.0114  0.6389  0.8500
 3178TIP3    H233730   4.855   1.545  19.934  1.2514  0.0751 -2.2652
 3179TIP3   OH233731   5.072   3.994  18.718 -0.1395 -0.2359  0.2230
 3179TIP3    H133732   5.073   4.054  18.793  0.5074  0.7625 -0.5589
 3179TIP3    H233733   5.160   3.999  18.682 -0.5567 -0.3897 -0.8612
 3180TIP3   OH233734   4.485   3.629  18.214 -0.1688  0.6142  0.4852
 3180TIP3    H133735   4.471   3.666  18.301  2.1861 -3.1090  2.7310
 3180TIP3    H233736   4.405   3.579  18.196 -0.2064  0.4755  1.0401
 3181TIP3   OH233737   4.262   6.361  18.267 -0.7442  0.1702  0.3251
 3181TIP3    H133738   4.273   6.443  18.217 -1.2289 -0.3570 -0.6803
 3181TIP3    H233739   4.325   6.368  18.338  1.5906  0.0108 -1.5956
 3182TIP3   OH233740   2.896   0.579  17.298  0.4221  0.2578  0.7977
 3182TIP3    H133741   2.949   0.521  17.354  0.4826 -0.0645  0.4129
 3182TIP3    H233742   2.851   0.637  17.360 -0.1113 -0.5929  1.2401
 3183TIP3   OH233743   2.077   5.265  18.358  0.0227 -0.0954 -0.0315
 3183TIP3    H133744   2.025   5.187  18.340 -1.3565  0.4896  1.2021
 3183TIP3    H233745   2.134   5.240  18.430 -0.3957  0.0027  0.3394
 3184TIP3   OH233746   1.862   3.157  19.741  0.1438 -0.0954 -0.1786
 3184TIP3    H133747   1.900   3.070  19.743 -0.5428 -0.4119  2.8021
 3184TIP3    H233748   1.769   3.144  19.759  0.1516  1.2717  1.0461
 3185TIP3   OH233749   5.612   0.085  16.415  0.7237  0.0552 -0.2627
 3185TIP3    H133750   5.634   0.056  16.327  0.6542  0.1981 -0.3280
 3185TIP3    H233751   5.517   0.072  16.422  0.7088  0.1666 -0.2549
 3186TIP3   OH233752   4.523   1.993  18.357  0.7198 -0.2546  0.1048
 3186TIP3    H133753   4.599   2.002  18.415  0.5769  2.5811  0.0249
 3186TIP3    H233754   4.451   2.032  18.407 -0.4277 -1.7669 -0.3178
 3187TIP3   OH233755   1.022   3.821  18.332 -0.0265 -0.1305 -0.1772
 3187TIP3    H133756   0.953   3.871  18.289  0.0826 -0.6262 -0.9622
 3187TIP3    H233757   1.092   3.816  18.266  0.6271  0.0853  0.4810
 3188TIP3   OH233758   3.951   0.178  18.575  0.3158  0.1543  0.9285
 3188TIP3    H133759   3.868   0.213  18.605  0.3375 -0.1329  1.3317
 3188TIP3    H233760   3.984   0.243  18.513 -0.5049 -0.0358  0.2747
 3189TIP3   OH233761   0.376   5.828  17.954  0.3167  0.7196  0.0119
 3189TIP3    H133762   0.433   5.782  18.016  1.4149  1.9266 -0.0400
 3189TIP3    H233763   0.374   5.773  17.876 -0.7029 -0.5920  0.9178
 3190TIP3   OH233764   0.947   1.459  17.242 -0.0260  0.8367 -0.2231
 3190TIP3    H133765   0.902   1.451  17.326  0.7171  0.1979  0.1265
 3190TIP3    H233766   1.028   1.410  17.254 -0.6135 -0.6173 -1.8089
 3191TIP3   OH233767   5.574   6.406  17.114 -0.1865 -0.1558  0.0203
 3191TIP3    H133768   5.490   6.367  17.091 -0.8414  0.2905  1.5629
 3191TIP3    H233769   5.553   6.475  17.177  1.1980  1.0111 -0.7205
 3192TIP3   OH233770   4.403   2.415  18.835  0.2728 -0.2317  0.2835
 3192TIP3    H133771   4.404   2.348  18.903  0.9937 -0.7672 -0.2339
 3192TIP3    H233772   4.464   2.481  18.867  1.9170 -1.2688 -0.5695
 3193TIP3   OH233773   3.813   3.533  18.811 -0.2841  0.5763 -0.1731
 3193TIP3    H133774   3.878   3.592  18.775  0.7701 -0.4927 -0.0748
 3193TIP3    H233775   3.860   3.451  18.827 -1.2826  0.2578  1.3578
 3194TIP3   OH233776   0.013   1.909  19.905  0.4329  0.1826  0.3149
 3194TIP3    H133777  -0.076   1.874  19.907  0.8693 -1.0625 -0.5881
 3194TIP3    H233778   0.017   1.971  19.978 -0.8536 -0.5400  1.0228
 3195TIP3   OH233779   5.037   3.380  18.496 -0.1716  0.7714  0.1182
 3195TIP3    H133780   5.070   3.403  18.409  0.3273 -1.6939 -0.4234
 3195TIP3    H233781   4.960   3.327  18.478  0.3224 -0.3161  1.1454
 3196TIP3   OH233782   5.309   3.674  18.160  0.1994  0.1805  0.5386
 3196TIP3    H133783   5.215   3.658  18.165  0.3128 -0.5204  0.6125
 3196TIP3    H233784   5.319   3.745  18.097 -0.3126 -0.4911 -0.3156
 3197TIP3   OH233785   2.557   5.024  19.117 -0.3171 -0.1821  0.4543
 3197TIP3    H133786   2.565   4.973  19.197 -0.3244 -0.3691  0.3344
 3197TIP3    H233787   2.469   5.005  19.085 -0.4159  0.1097  0.5519
 3198TIP3   OH233788   6.364   1.103  19.807 -0.1420 -0.5411 -0.2211
 3198TIP3    H133789   6.292   1.097  19.870  1.4475  0.4543  1.8317
 3198TIP3    H233790   6.379   1.197  19.797  2.1166 -0.6886  1.0267
 3199TIP3   OH233791   2.954   4.338  18.950  0.2321 -0.0174  0.5732
 3199TIP3    H133792   2.936   4.247  18.928 -0.8622  0.3553 -0.1634
 3199TIP3    H233793   2.962   4.382  18.865  0.8364  0.5648  0.9160
 3200TIP3   OH233794   1.596   1.878  19.415 -0.1795  0.3628  0.5712
 3200TIP3    H133795   1.606   1.788  19.446 -1.1828 -0.6328 -1.7523
 3200TIP3    H233796   1.510   1.905  19.445 -1.5613 -0.9442 -1.8772
 3201TIP3   OH233797   1.257   5.177  18.311  0.4207  0.1734  0.2346
 3201TIP3    H133798   1.183   5.200  18.255  0.2947 -0.7758 -0.0010
 3201TIP3    H233799   1.286   5.091  18.280  1.8283  0.6568  0.1071
 3202TIP3   OH233800   6.290   4.718  17.480 -0.4669  0.2469 -0.3459
 3202TIP3    H133801   6.199   4.735  17.456 -0.9210 -0.3685  0.8458
 3202TIP3    H233802   6.336   4.800  17.462 -1.0998  0.3300 -1.6509
 3203TIP3   OH233803   5.719   4.797  17.239 -0.3107  0.5594 -0.8162
 3203TIP3    H133804   5.692   4.851  17.313 -1.4367 -1.0265 -0.0059
 3203TIP3    H233805   5.691   4.846  17.162 -0.6413  1.4657 -0.1370
 3204TIP3   OH233806   1.246   2.328  17.061 -0.1271  0.2778 -0.1663
 3204TIP3    H133807   1.247   2.367  16.973  0.7255 -0.3797 -0.4538
 3204TIP3    H233808   1.319   2.370  17.107  0.6509 -0.7809 -0.4016
 3205TIP3   OH233809   4.822   4.436  17.850  0.3661  0.4565 -0.1284
 3205TIP3    H133810   4.758   4.427  17.920  0.3209  0.0703 -0.2153
 3205TIP3    H233811   4.898   4.475  17.893  2.0867 -3.7999  1.2867
 3206TIP3   OH233812   3.970   4.351  19.386  0.6499  0.1475 -0.3228
 3206TIP3    H133813   3.983   4.352  19.291  0.8130 -0.1002 -0.3052
 3206TIP3    H233814   4.018   4.428  19.418  3.1204 -1.3553 -0.1316
 3207TIP3   OH233815   3.459   4.650  19.295 -0.2272  0.4088  0.0987
 3207TIP3    H133816   3.506   4.677  19.217  1.9777 -0.6191  0.9768
 3207TIP3    H233817   3.427   4.562  19.275  0.9037 -0.1212  0.5347
 3208TIP3   OH233818   5.905   2.098  19.210  0.2403 -0.2184  0.3141
 3208TIP3    H133819   5.814   2.127  19.212  1.1502  2.8789  1.0692
 3208TIP3    H233820   5.902   2.006  19.238 -2.4301  0.4069  2.4410
 3209TIP3   OH233821   3.357   2.026  19.412 -0.0432  0.3649 -0.4222
 3209TIP3    H133822   3.420   2.026  19.484 -0.1543  0.9983 -0.3230
 3209TIP3    H233823   3.294   2.095  19.434 -0.1619  0.4693 -1.0546
 3210TIP3   OH233824   0.929   4.724  17.871 -0.4032 -0.1246  0.0897
 3210TIP3    H133825   1.012   4.761  17.841 -0.7090  1.0193  0.5919
 3210TIP3    H233826   0.863   4.760  17.812 -0.7837  0.7087  0.9778
 3211TIP3   OH233827   2.161   3.466  20.153 -0.5183 -0.1898 -0.1504
 3211TIP3    H133828   2.192   3.391  20.102  0.9213  0.9421 -1.0057
 3211TIP3    H233829   2.066   3.457  20.154 -0.3543 -2.6570  0.7918
 3212TIP3   OH233830   6.596   6.306  17.638  0.2158 -0.5787 -0.9722
 3212TIP3    H133831   6.521   6.266  17.593 -1.2208 -0.0539  0.8419
 3212TIP3    H233832   6.586   6.400  17.621 -0.1138 -0.4156  0.0820
 3213TIP3   OH233833   5.069   3.054  18.613  0.5724 -0.0659  0.4883
 3213TIP3    H133834   5.133   3.002  18.661 -0.3758 -1.4095  0.3537
 3213TIP3    H233835   5.114   3.082  18.534  1.2982 -0.1404  0.8710
 3214TIP3   OH233836   6.333   6.333  16.702 -0.8027  0.5656 -0.0767
 3214TIP3    H133837   6.399   6.352  16.635 -1.3578  1.0410 -0.4990
 3214TIP3    H233838   6.297   6.248  16.678 -0.5257  0.4245  0.0072
 3215TIP3   OH233839   4.416   3.550  19.024 -0.2929 -0.3348  0.0060
 3215TIP3    H133840   4.332   3.523  19.060 -0.4044 -0.5231 -0.3820
 3215TIP3    H233841   4.481   3.515  19.085 -0.5170  0.4102  0.6857
 3216TIP3   OH233842   0.900   6.618  17.947 -0.4718  0.7678  0.2248
 3216TIP3    H133843   0.915   6.712  17.950  0.0881  0.7158 -0.6756
 3216TIP3    H233844   0.838   6.606  17.875 -1.3358  0.5384  0.9912
 3217TIP3   OH233845   5.533   0.135  16.720 -0.1426  0.1585  0.3714
 3217TIP3    H133846   5.522   0.043  16.694 -0.0770 -0.2357  1.6906
 3217TIP3    H233847   5.446   0.163  16.747 -0.1910  0.5387 -0.1658
 3218TIP3   OH233848   6.172   4.230  18.968  0.0288  0.3795 -0.2890
 3218TIP3    H133849   6.204   4.214  18.879  2.8132  0.6504  0.5722
 3218TIP3    H233850   6.163   4.325  18.974  2.5033  0.6285  0.4654
 3219TIP3   OH233851   2.214   0.806  17.385  1.0963  0.4174  0.4051
 3219TIP3    H133852   2.222   0.716  17.414  0.5510  1.2433  3.4352
 3219TIP3    H233853   2.158   0.802  17.307 -1.5033 -1.6109  2.2077
 3220TIP3   OH233854   2.944   6.502  18.202 -0.3890 -0.0977  0.4992
 3220TIP3    H133855   2.922   6.519  18.110 -1.8197 -3.0936  0.1877
 3220TIP3    H233856   3.022   6.447  18.198  0.5993  1.1867  1.2132
 3221TIP3   OH233857   4.979   4.955  17.414  0.1215  0.3249  0.1327
 3221TIP3    H133858   4.937   4.879  17.373  0.0472  0.3079  0.2384
 3221TIP3    H233859   5.004   4.924  17.500  0.4885  0.2923  0.0139
 3222TIP3   OH233860   2.349   4.139  18.023 -0.1402  0.2644 -0.8734
 3222TIP3    H133861   2.266   4.183  18.042 -0.3705 -0.7102  0.4739
 3222TIP3    H233862   2.335   4.096  17.939 -2.2765 -2.7860  0.8591
 3223TIP3   OH233863   4.034   1.609  19.728  0.7107 -0.0771  0.5427
 3223TIP3    H133864   4.107   1.548  19.719  0.3061 -0.8925  2.3675
 3223TIP3    H233865   3.999   1.591  19.815 -1.3024  0.7068 -0.0638
 3224TIP3   OH233866   3.855   1.270  19.007 -0.3017  0.2610  0.0538
 3224TIP3    H133867   3.916   1.285  18.934 -0.1351 -1.2476 -0.1607
 3224TIP3    H233868   3.877   1.337  19.071  0.1132  1.0991 -0.9409
 3225TIP3   OH233869   4.891   4.968  19.229  0.6475  0.0243 -0.3912
 3225TIP3    H133870   4.973   4.934  19.263  2.2815  1.9022 -2.2348
 3225TIP3    H233871   4.881   5.054  19.270 -1.3834 -0.8580  1.1695
 3226TIP3   OH233872   3.477   4.281  17.342  0.0643 -0.0791  0.4044
 3226TIP3    H133873   3.538   4.217  17.305  0.3389  1.8162 -2.8231
 3226TIP3    H233874   3.390   4.244  17.328  0.2848 -1.0554  1.4557
 3227TIP3   OH233875   0.055   0.390  15.755  0.1801  0.1250  0.0270
 3227TIP3    H133876   0.130   0.434  15.796 -0.1089  0.2985  0.3706
 3227TIP3    H233877   0.024   0.453  15.690 -0.4371  0.5731  0.7453
 3228TIP3   OH233878   0.148   4.811  18.076  0.3429  0.1821  0.2682
 3228TIP3    H133879   0.152   4.715  18.082 -1.5681  0.0736  0.3896
 3228TIP3    H233880   0.157   4.829  17.982 -1.0055 -0.2586  0.0324
 3229TIP3   OH233881   3.899   0.062  19.167  0.9005 -0.1833 -0.0905
 3229TIP3    H133882   3.819   0.013  19.188  1.1471 -0.4478  0.2630
 3229TIP3    H233883   3.961   0.036  19.236  1.5686 -0.6542 -0.8442
 3230TIP3   OH233884   3.012   5.105  18.965 -0.4517 -0.0190  0.7560
 3230TIP3    H133885   3.075   5.046  19.005 -0.5441  0.0858  1.0580
 3230TIP3    H233886   3.014   5.083  18.872  1.7301  1.5362  0.3706
 3231TIP3   OH233887   4.007   1.576  18.495  0.0353  0.3609 -0.6315
 3231TIP3    H133888   3.923   1.543  18.463 -0.4981 -1.2002  2.0011
 3231TIP3    H233889   4.066   1.502  18.485  0.0837  0.1531  0.9324
 3232TIP3   OH233890   2.443   3.341  19.474  0.2229 -0.2940 -0.2243
 3232TIP3    H133891   2.483   3.257  19.452  0.5486  0.3679 -2.4363
 3232TIP3    H233892   2.506   3.406  19.442 -1.9032  0.7638 -2.5655
 3233TIP3   OH233893   6.530   6.071  16.937  0.7182  0.1915 -0.0397
 3233TIP3    H133894   6.579   6.114  16.867  0.1441  0.9356 -0.0034
 3233TIP3    H233895   6.490   6.143  16.986 -0.0649 -0.3779  0.1778
 3234TIP3   OH233896   5.976   4.860  17.465  0.5424  0.4495  0.2493
 3234TIP3    H133897   5.900   4.807  17.443  1.3655 -1.4084  1.5810
 3234TIP3    H233898   6.008   4.892  17.381 -0.6346 -0.2779 -0.5054
 3235TIP3   OH233899   4.603   1.249  19.854 -0.1421  0.1827 -0.3500
 3235TIP3    H133900   4.545   1.198  19.912  0.2402  0.6575  0.4741
 3235TIP3    H233901   4.646   1.183  19.800  0.6104 -0.4240  0.9313
 3236TIP3   OH233902   3.427   2.916  18.886  0.4171  0.0375  0.1410
 3236TIP3    H133903   3.387   2.939  18.969  0.4473 -0.8500  0.4147
 3236TIP3    H233904   3.514   2.956  18.889  0.6228 -0.4382  0.7761
 3237TIP3   OH233905   2.308   2.331  17.232  0.6375  0.4357 -0.1196
 3237TIP3    H133906   2.284   2.253  17.183 -0.4187  0.4326  0.3626
 3237TIP3    H233907   2.382   2.368  17.185 -0.2713  0.3667 -1.6639
 3238TIP3   OH233908   4.672   4.935  17.543  0.1584  0.2066  0.2298
 3238TIP3    H133909   4.662   4.992  17.467 -1.2151 -0.5651 -0.2197
 3238TIP3    H233910   4.585   4.933  17.583  0.6398 -0.1205  1.3051
 3239TIP3   OH233911   3.265   6.202  16.765 -0.0478  0.2310  0.0624
 3239TIP3    H133912   3.266   6.251  16.683  2.0550  0.6089  0.2638
 3239TIP3    H233913   3.217   6.258  16.825  1.8071  1.8734  0.1319
 3240TIP3   OH233914   4.481   5.447  16.756  0.8820  0.1032  0.0382
 3240TIP3    H133915   4.466   5.510  16.826  0.9198 -0.2025  0.3209
 3240TIP3    H233916   4.526   5.498  16.688 -2.8331  1.5752 -1.6108
 3241TIP3   OH233917   1.776   0.647  17.869  0.2271 -0.0115 -0.3833
 3241TIP3    H133918   1.849   0.585  17.873 -1.3898 -1.9569  1.5914
 3241TIP3    H233919   1.698   0.593  17.860 -1.3697  1.5610  2.3944
 3242TIP3   OH233920   4.287   2.870  18.789 -0.3882 -0.3566  0.0134
 3242TIP3    H133921   4.198   2.905  18.792  0.3698  1.7068  0.3246
 3242TIP3    H233922   4.313   2.862  18.881 -0.1901 -0.7710 -0.0765
 3243TIP3   OH233923   1.773   1.360  17.768  0.3421 -0.5173  1.4497
 3243TIP3    H133924   1.797   1.347  17.677 -0.4627 -1.9101  1.3981
 3243TIP3    H233925   1.854   1.384  17.812  0.6939  0.3921  0.3367
 3244TIP3   OH233926   2.666   3.099  19.735 -0.6381  0.1877 -0.2331
 3244TIP3    H133927   2.619   3.045  19.671 -0.6680 -0.8833  0.6693
 3244TIP3    H233928   2.716   3.036  19.787  0.4302  1.1629 -0.0433
 3245TIP3   OH233929   4.414   2.042  17.238  0.5656 -0.3202  0.3232
 3245TIP3    H133930   4.363   2.103  17.184  1.1200  0.6936  0.9076
 3245TIP3    H233931   4.366   1.959  17.233 -0.4901  0.2975 -0.0856
 3246TIP3   OH233932   0.273   2.810  19.204  0.1344 -0.0432  0.4107
 3246TIP3    H133933   0.317   2.778  19.125  0.0381 -0.4741  0.5272
 3246TIP3    H233934   0.345   2.830  19.264  0.1901 -2.8572  1.4199
 3247TIP3   OH233935   2.248   1.239  19.757 -0.0988  0.0514 -0.1314
 3247TIP3    H133936   2.209   1.246  19.669 -0.6471 -0.1530  0.0897
 3247TIP3    H233937   2.229   1.150  19.784  0.7625 -0.1340 -0.1138
 3248TIP3   OH233938   1.733   4.381  16.696 -0.0187  0.1710  0.1101
 3248TIP3    H133939   1.790   4.451  16.729  1.0002 -0.9841  0.8783
 3248TIP3    H233940   1.680   4.356  16.772  1.5619 -1.7459  0.6448
 3249TIP3   OH233941   0.106   1.969  17.667  0.3966  0.1575  0.1245
 3249TIP3    H133942   0.118   1.907  17.595  3.2260 -1.2327  1.6029
 3249TIP3    H233943   0.164   2.042  17.645  1.5302 -0.4258  1.0873
 3250TIP3   OH233944   0.225   5.088  18.432  0.2670  0.1653  0.2770
 3250TIP3    H133945   0.168   5.126  18.366  1.0371  0.7881 -0.0550
 3250TIP3    H233946   0.251   5.003  18.395 -1.5039 -0.7471  1.0491
 3251TIP3   OH233947   2.622   1.803  19.685 -0.1525 -0.1043  0.0750
 3251TIP3    H133948   2.583   1.728  19.641  0.2363 -0.4029  0.2282
 3251TIP3    H233949   2.716   1.787  19.680  0.1125  1.6793 -2.2261
 3252TIP3   OH233950   5.935   5.230  17.467 -0.3318 -0.5179  0.6915
 3252TIP3    H133951   5.878   5.197  17.398 -0.5622 -0.5762  0.9099
 3252TIP3    H233952   6.000   5.161  17.481 -1.1976 -1.1746  1.6048
 3253TIP3   OH233953   6.107   1.474  19.915  0.0900 -0.1472 -0.6489
 3253TIP3    H133954   6.045   1.546  19.926 -0.1984 -0.5535  0.5207
 3253TIP3    H233955   6.070   1.421  19.845 -0.9949 -0.4744  0.1484
 3254TIP3   OH233956   1.585   6.618  19.997 -0.5002 -0.4301 -0.1593
 3254TIP3    H133957   1.644   6.689  19.973 -1.8394  0.6145 -0.5355
 3254TIP3    H233958   1.566   6.632  20.090 -2.0683  0.7762 -0.6088
 3255TIP3   OH233959   5.396   4.034  18.165 -0.3214  0.4673  0.4353
 3255TIP3    H133960   5.336   4.057  18.236 -0.1574  1.2864  0.3118
 3255TIP3    H233961   5.483   4.043  18.203 -0.2295  1.0151  0.1080
 3256TIP3   OH233962   5.018   2.763  17.204  0.5278 -0.3915  0.0584
 3256TIP3    H133963   4.968   2.776  17.124 -1.2390  1.1907  1.3466
 3256TIP3    H233964   5.037   2.852  17.235 -1.7284 -0.8150  3.0768
 3257TIP3   OH233965   2.637   0.647  18.421 -0.0977  0.2734  0.0015
 3257TIP3    H133966   2.615   0.570  18.368 -0.7746  0.0791  0.5480
 3257TIP3    H233967   2.732   0.653  18.417 -0.1381  0.2916 -1.2725
 3258TIP3   OH233968   1.788   0.752  17.402  0.0388  0.6455  0.1220
 3258TIP3    H133969   1.786   0.837  17.360 -1.5369 -0.0012 -1.2453
 3258TIP3    H233970   1.700   0.742  17.440  0.3468 -0.1848  0.6547
 3259TIP3   OH233971   0.828   0.774  15.925  0.0886  0.2758  0.3090
 3259TIP3    H133972   0.904   0.764  15.982 -0.6380 -0.8303  1.1326
 3259TIP3    H233973   0.834   0.864  15.894  1.1595  0.5433  1.2037
 3260TIP3   OH233974   1.993   5.438  19.025 -0.0702  0.3501  0.2207
 3260TIP3    H133975   2.006   5.520  19.073 -0.6923 -0.2488  1.4355
 3260TIP3    H233976   1.906   5.446  18.987 -0.2850  0.1046  0.6557
 3261TIP3   OH233977   0.508   5.824  19.255  0.6831 -0.1930 -0.0106
 3261TIP3    H133978   0.463   5.850  19.335 -0.8656  2.2952 -1.5415
 3261TIP3    H233979   0.600   5.812  19.281  0.4599  1.8123  1.9164
 3262TIP3   OH233980   5.172   5.362  19.796 -0.1373  0.2691 -0.3169
 3262TIP3    H133981   5.138   5.300  19.732  0.5107 -0.8472  0.3800
 3262TIP3    H233982   5.229   5.309  19.853 -1.6080  0.9350  1.9240
 3263TIP3   OH233983   4.625   3.219  16.567  0.5481  0.1393 -0.3366
 3263TIP3    H133984   4.622   3.308  16.532 -0.1667  0.3824  0.3183
 3263TIP3    H233985   4.712   3.187  16.543  1.0803  1.2684  0.0392
 3264TIP3   OH233986   6.505   4.926  18.629 -0.5968  0.5539 -0.4027
 3264TIP3    H133987   6.504   4.918  18.724  1.2956 -0.7100 -0.4319
 3264TIP3    H233988   6.416   4.903  18.602 -1.2112  1.1126  1.0474
 3265TIP3   OH233989   5.658   5.851  18.942  0.1149 -0.3575 -0.2075
 3265TIP3    H133990   5.595   5.875  18.874 -1.3645  1.4840  1.7223
 3265TIP3    H233991   5.655   5.756  18.944 -1.3182 -0.3785 -1.3357
 3266TIP3   OH233992   5.401   3.650  17.584 -0.2421  0.3049  0.5471
 3266TIP3    H133993   5.416   3.617  17.673  0.7748  1.0396  0.6644
 3266TIP3    H233994   5.455   3.728  17.578 -0.3072  0.2730 -0.7234
 3267TIP3   OH233995   5.008   1.508  16.700  0.3956 -0.1977 -1.0772
 3267TIP3    H133996   4.968   1.422  16.687 -1.9378  0.7465 -0.5935
 3267TIP3    H233997   5.043   1.531  16.613  0.1979 -1.2294 -1.4446
 3268TIP3   OH233998   2.541   0.385  18.926  0.0443  0.2685 -0.3352
 3268TIP3    H133999   2.513   0.395  18.835 -0.3784  0.4638 -0.1864
 3268TIP3    H234000   2.606   0.455  18.939 -0.6946  0.9398 -0.1743
 3269TIP3   OH234001   1.357   6.548  18.851  0.6786  0.1192 -0.4072
 3269TIP3    H134002   1.442   6.504  18.844  1.5170  1.3931  1.1036
 3269TIP3    H234003   1.310   6.522  18.772  2.4152 -0.7375 -1.2148
 3270TIP3   OH234004   0.412   3.611  18.629  0.0489 -0.0085  0.2593
 3270TIP3    H134005   0.506   3.598  18.619  0.0409 -1.8521  1.9402
 3270TIP3    H234006   0.380   3.626  18.540  1.5605 -2.0915 -0.7053
 3271TIP3   OH234007   2.186   5.805  17.989  0.1026 -0.6916 -0.1132
 3271TIP3    H134008   2.243   5.759  17.927 -1.6290 -1.0385 -1.5271
 3271TIP3    H234009   2.186   5.895  17.958 -0.4674 -0.7867 -0.3912
 3272TIP3   OH234010   5.727   0.781  17.570  0.2174 -0.0330  0.4127
 3272TIP3    H134011   5.665   0.800  17.500  1.2332  0.5396 -0.3458
 3272TIP3    H234012   5.793   0.849  17.564  1.1736 -0.8825  0.9106
 3273TIP3   OH234013   4.761   2.326  17.609 -0.1787 -0.0355  0.8798
 3273TIP3    H134014   4.700   2.381  17.562 -0.6760 -0.8018  0.5999
 3273TIP3    H234015   4.847   2.346  17.572 -0.3139  0.7415  0.9821
 3274TIP3   OH234016   1.434   2.502  17.220 -0.1521 -0.0556 -0.0357
 3274TIP3    H134017   1.510   2.448  17.202  2.1321  2.4355  1.3486
 3274TIP3    H234018   1.424   2.498  17.316 -2.4762 -1.1338 -0.2524
 3275TIP3   OH234019   1.876   4.843  17.565 -0.6258 -0.3735 -0.0129
 3275TIP3    H134020   1.893   4.762  17.517  0.7945 -0.1607  0.1127
 3275TIP3    H234021   1.956   4.861  17.612 -0.8602  1.1918 -0.1592
 3276TIP3   OH234022   6.141   3.713  16.736 -0.6494 -0.6805 -0.3525
 3276TIP3    H134023   6.088   3.661  16.676 -0.4474 -0.1164 -1.0267
 3276TIP3    H234024   6.077   3.761  16.788 -0.8286  0.3423 -1.4653
 3277TIP3   OH234025   6.630   1.358  17.522 -0.3915 -0.2570 -0.0595
 3277TIP3    H134026   6.556   1.414  17.499 -0.7285 -0.8947 -0.5497
 3277TIP3    H234027   6.615   1.336  17.614 -0.4610  0.1466  0.0283
 3278TIP3   OH234028   0.805   4.610  17.256 -0.2493 -0.5518  0.4563
 3278TIP3    H134029   0.836   4.538  17.201  0.5220 -0.1079  0.2959
 3278TIP3    H234030   0.811   4.575  17.346  1.1424 -0.3423  0.4677
 3279TIP3   OH234031   2.591   1.415  17.635 -0.2797  0.5354  0.0785
 3279TIP3    H134032   2.662   1.474  17.659 -0.0357 -0.1187  0.9975
 3279TIP3    H234033   2.600   1.404  17.540  1.2978 -0.1122  0.2756
 3280TIP3   OH234034   0.140   5.831  16.832 -0.4362  0.0363  0.1267
 3280TIP3    H134035   0.114   5.833  16.924 -0.6550 -0.7218  0.0836
 3280TIP3    H234036   0.118   5.743  16.802  0.4378 -0.0070 -0.4167
 3281TIP3   OH234037   0.515   3.876  18.501 -0.3337  0.5615 -0.1785
 3281TIP3    H134038   0.609   3.863  18.516 -0.6258 -1.8046 -0.0380
 3281TIP3    H234039   0.484   3.921  18.580  0.5466  0.7696  0.0656
 3282TIP3   OH234040   3.320   1.321  18.428  0.1235 -0.7946  0.0848
 3282TIP3    H134041   3.374   1.396  18.403  1.0450 -1.2503  0.6574
 3282TIP3    H234042   3.332   1.313  18.523 -0.5928 -1.1933  0.1504
 3283TIP3   OH234043   6.216   3.027  19.054  0.4137 -0.1829 -0.3125
 3283TIP3    H134044   6.265   3.075  19.121  0.5654 -1.4056  0.4972
 3283TIP3    H234045   6.273   3.029  18.977  1.0787 -0.3151  0.1653
 3284TIP3   OH234046   3.066   4.314  18.493  0.1257 -0.5679 -0.1884
 3284TIP3    H134047   3.032   4.241  18.545 -1.4102  0.7205  0.7048
 3284TIP3    H234048   3.149   4.281  18.457 -0.0009 -2.3706  1.0310
 3285TIP3   OH234049   6.677   6.272  19.540  0.5832 -0.0069 -0.0851
 3285TIP3    H134050   6.598   6.298  19.491  1.4018  1.3620 -0.7408
 3285TIP3    H234051   6.649   6.271  19.631 -0.8901 -2.2694 -0.4843
 3286TIP3   OH234052   2.950   3.675  19.975  0.2959  0.4706 -0.1859
 3286TIP3    H134053   2.873   3.628  20.006 -0.8988  2.4750  0.0779
 3286TIP3    H234054   2.995   3.702  20.055  0.9684 -0.1741 -0.3333
 3287TIP3   OH234055   5.265   1.219  18.024 -0.4520 -0.0980 -0.0306
 3287TIP3    H134056   5.266   1.264  17.939 -1.2678  1.6036  0.8101
 3287TIP3    H234057   5.172   1.209  18.044 -0.3229 -2.8791 -0.4967
 3288TIP3   OH234058   0.792   4.689  16.824 -0.1870 -0.3831  0.1742
 3288TIP3    H134059   0.736   4.766  16.816  0.3385  0.0865  0.8394
 3288TIP3    H234060   0.830   4.677  16.737  0.7165  0.8956  0.3578
 3289TIP3   OH234061   1.544   1.051  19.035  0.0255 -0.3261  0.6735
 3289TIP3    H134062   1.453   1.080  19.045 -0.4587 -1.4875 -0.2521
 3289TIP3    H234063   1.542   0.957  19.049  0.5474 -0.8796 -2.3779
 3290TIP3   OH234064   3.844   1.965  19.590  0.0356 -0.0044 -0.4275
 3290TIP3    H134065   3.811   1.881  19.558  0.7913 -0.2805 -0.5119
 3290TIP3    H234066   3.779   2.029  19.562 -0.0763 -0.4397 -1.2066
 3291TIP3   OH234067   3.457   6.675  18.558 -0.2995 -0.4652 -0.0883
 3291TIP3    H134068   3.524   6.635  18.502  1.6285 -0.3480  1.9654
 3291TIP3    H234069   3.422   6.747  18.506  2.7028  0.8084 -0.5924
 3292TIP3   OH234070   5.937   5.387  17.975 -0.4717 -0.5921  0.1708
 3292TIP3    H134071   5.848   5.414  17.999 -0.7561 -0.2910 -1.1772
 3292TIP3    H234072   5.940   5.393  17.880  0.8296 -1.1396  0.1519
 3293TIP3   OH234073   2.875   0.600  19.400 -0.5117  0.2426  0.6215
 3293TIP3    H134074   2.787   0.636  19.410 -0.9388 -1.0933  1.9787
 3293TIP3    H234075   2.871   0.548  19.320 -0.6231  1.0511  0.0875
 3294TIP3   OH234076   4.182   5.445  18.914 -0.5498  0.3406 -0.1503
 3294TIP3    H134077   4.180   5.540  18.900 -1.6198  0.1352 -1.6044
 3294TIP3    H234078   4.161   5.408  18.829  0.3469 -1.2388  0.2763
 3295TIP3   OH234079   1.402   4.887  18.374  0.4118 -0.3908 -0.0823
 3295TIP3    H134080   1.476   4.826  18.376  0.7546  0.0268  0.3165
 3295TIP3    H234081   1.425   4.950  18.306  0.7560  0.1370  0.5126
 3296TIP3   OH234082   3.120   2.151  19.535 -0.6867 -0.5195 -0.3834
 3296TIP3    H134083   3.026   2.141  19.554 -1.0678 -0.7277 -2.2194
 3296TIP3    H234084   3.137   2.244  19.549 -0.5626 -0.8390  2.2411
 3297TIP3   OH234085   2.845   1.415  18.320  0.2019 -0.3697 -0.3370
 3297TIP3    H134086   2.874   1.374  18.402  1.1737  1.2475  0.1756
 3297TIP3    H234087   2.895   1.370  18.252  1.8304  0.4209  0.2846
 3298TIP3   OH234088   2.666   5.221  17.143  0.0585  0.1276  0.4213
 3298TIP3    H134089   2.726   5.274  17.091  0.0775 -0.7884 -0.5345
 3298TIP3    H234090   2.583   5.268  17.139  0.3125  0.5804  0.4065
 3299TIP3   OH234091   3.129   6.275  18.147  0.1236 -0.2997 -0.7576
 3299TIP3    H134092   3.112   6.221  18.225  0.2988 -0.4379 -0.8129
 3299TIP3    H234093   3.211   6.240  18.112  1.5467  1.5007  0.5469
 3300TIP3   OH234094   3.577   2.634  19.179  0.2530 -0.4398  0.3410
 3300TIP3    H134095   3.559   2.583  19.099  0.0299  0.5386 -0.2461
 3300TIP3    H234096   3.492   2.643  19.222  0.0691  0.4579 -0.1851
 3301TIP3   OH234097   6.727   0.393  16.937  0.3722  0.4709  0.7125
 3301TIP3    H134098   6.756   0.352  16.855  1.6172 -0.2572  1.4824
 3301TIP3    H234099   6.662   0.458  16.910 -1.6933 -1.9619 -0.5788
 3302TIP3   OH234100   2.566   3.989  20.295 -0.1615  0.1656  0.6872
 3302TIP3    H134101   2.508   3.932  20.244  0.9210 -0.8307  0.5315
 3302TIP3    H234102   2.645   3.996  20.242  0.6689 -0.2101  1.8380
 3303TIP3   OH234103   0.394   0.081  18.604 -0.0078  0.2072  0.5782
 3303TIP3    H134104   0.346   0.005  18.572  0.5752  0.7014 -1.6639
 3303TIP3    H234105   0.434   0.052  18.685  0.4364 -1.9949 -0.3627
 3304TIP3   OH234106   0.685   4.353  19.110 -0.1950 -0.2205 -0.1612
 3304TIP3    H134107   0.689   4.449  19.111 -2.1120 -0.0830 -1.3443
 3304TIP3    H234108   0.641   4.330  19.192 -0.8598 -0.0000 -0.4524
 3305TIP3   OH234109   5.111   6.349  18.482 -0.0820  0.1841  0.1260
 3305TIP3    H134110   5.038   6.406  18.455 -0.0002  0.9625  1.4502
 3305TIP3    H234111   5.177   6.360  18.414 -0.3723  1.1080 -0.0179
 3306TIP3   OH234112   5.984   0.050  17.976 -0.1384  0.0465 -0.4658
 3306TIP3    H134113   5.911   0.000  18.014  0.4815 -1.3350 -1.0273
 3306TIP3    H234114   5.990   0.018  17.886  0.8513  0.5177 -0.5714
 3307TIP3   OH234115   5.354   5.379  16.492 -0.3414  0.1632 -0.2321
 3307TIP3    H134116   5.375   5.469  16.466 -1.6231  0.2755 -0.9493
 3307TIP3    H234117   5.260   5.371  16.475 -0.4656 -0.9519  0.9199
 3308TIP3   OH234118   5.800   4.824  18.312  0.3786  0.3839 -0.1537
 3308TIP3    H134119   5.733   4.807  18.246  1.6218 -1.0020 -1.1278
 3308TIP3    H234120   5.826   4.915  18.296 -2.5046  1.6272  1.4805
 3309TIP3   OH234121   3.067   5.282  19.846  0.2887 -0.4968 -0.9820
 3309TIP3    H134122   2.994   5.313  19.792 -0.6358 -2.0256 -0.6698
 3309TIP3    H234123   3.073   5.346  19.917 -2.9612 -1.9445  0.8328
 3310TIP3   OH234124   5.264   4.432  19.736  0.2760  0.1664 -0.0403
 3310TIP3    H134125   5.178   4.467  19.762 -0.4669  0.4404 -2.6201
 3310TIP3    H234126   5.246   4.379  19.659  2.4545  0.2989 -0.7114
 3311TIP3   OH234127   1.009   0.191  16.753 -0.1634  0.5545 -0.0194
 3311TIP3    H134128   0.931   0.246  16.754  1.1829  2.6223 -1.2653
 3311TIP3    H234129   1.019   0.165  16.662  0.9159  0.8631 -0.0066
 3312TIP3   OH234130   2.638   0.475  17.513  0.2217 -0.2753  0.6137
 3312TIP3    H134131   2.727   0.511  17.510  0.6474 -1.3283 -1.9656
 3312TIP3    H234132   2.643   0.405  17.577  0.8420  0.6148  1.5716
 3313TIP3   OH234133   5.974   6.560  17.707 -0.1045  0.4110 -0.1945
 3313TIP3    H134134   5.941   6.547  17.619  2.6737  0.3996 -1.3583
 3313TIP3    H234135   6.059   6.515  17.708 -0.1226  0.2472  2.5578
 3314TIP3   OH234136   6.496   5.167  18.811 -0.0440 -0.3178  0.0440
 3314TIP3    H134137   6.417   5.144  18.763  1.0113 -2.6037 -0.7406
 3314TIP3    H234138   6.523   5.086  18.854  2.1177  0.2405 -0.1115
 3315TIP3   OH234139   2.294   6.018  19.027 -0.3004 -0.2506  0.0521
 3315TIP3    H134140   2.224   6.080  19.049 -0.4624 -0.6468  0.6556
 3315TIP3    H234141   2.352   6.068  18.969 -0.3367  0.5235  0.6652
 3316TIP3   OH234142   1.549   3.071  19.699 -0.3930 -0.3971 -0.6550
 3316TIP3    H134143   1.545   3.134  19.627  0.9786  0.7122  0.1821
 3316TIP3    H234144   1.581   2.990  19.658  0.6700  0.3074 -1.2738
 3317TIP3   OH234145   2.078   5.363  18.747  0.3148  0.1856 -0.6041
 3317TIP3    H134146   2.070   5.354  18.842  0.7249 -1.0095 -0.6663
 3317TIP3    H234147   2.062   5.456  18.730  0.2672  0.4170  0.6328
 3318TIP3   OH234148   0.745   1.488  17.997  0.3525 -0.3782 -0.0701
 3318TIP3    H134149   0.800   1.485  18.075 -0.6312 -0.1258  0.6462
 3318TIP3    H234150   0.806   1.470  17.925  1.0478 -1.8809  0.8443
 3319TIP3   OH234151   1.743   2.174  19.494 -0.1456 -0.0174 -0.9607
 3319TIP3    H134152   1.728   2.080  19.487 -1.0630  0.2104 -2.5900
 3319TIP3    H234153   1.700   2.200  19.575 -0.7813 -0.8460 -1.0203
 3320TIP3   OH234154   5.116   4.517  19.195  0.0288  0.2862  0.8009
 3320TIP3    H134155   5.075   4.516  19.282  0.1362  1.1339  0.8635
 3320TIP3    H234156   5.092   4.432  19.157  0.6041 -0.4140  1.9359
 3321TIP3   OH234157   2.708   6.624  17.861  0.3000  0.3622 -0.1920
 3321TIP3    H134158   2.748   6.603  17.777 -1.5327  0.3687 -1.0928
 3321TIP3    H234159   2.648   6.552  17.879 -0.0134  0.8214  0.6698
 3322TIP3   OH234160   5.968   5.553  16.769 -0.5427 -0.2655 -0.2648
 3322TIP3    H134161   5.917   5.529  16.847  0.0874 -4.2955 -0.8546
 3322TIP3    H234162   5.909   5.608  16.718 -1.7080  0.8457  2.1130
 3323TIP3   OH234163   0.819   3.049  16.449 -0.0886  0.4486  0.3602
 3323TIP3    H134164   0.804   2.992  16.374  0.3377  0.1699  0.4868
 3323TIP3    H234165   0.740   3.039  16.503 -1.6164  2.6261 -1.2907
 3324TIP3   OH234166   0.038   4.563  18.195 -0.1212 -0.0076  0.2015
 3324TIP3    H134167  -0.044   4.571  18.147  0.4220 -0.0029 -0.7412
 3324TIP3    H234168   0.013   4.574  18.287 -0.7912  3.2635 -0.2248
 3325TIP3   OH234169   4.181   5.113  18.558  0.3192  0.1837 -0.2850
 3325TIP3    H134170   4.264   5.122  18.512  0.9143  1.1218  0.8956
 3325TIP3    H234171   4.122   5.070  18.496  1.2792  0.7879 -1.6408
 3326TIP3   OH234172   1.760   2.803  19.956 -0.2431  0.0309  0.5658
 3326TIP3    H134173   1.777   2.709  19.964 -1.0205 -0.1411  0.2661
 3326TIP3    H234174   1.670   2.808  19.926  0.2383  0.8378 -0.7969
 3327TIP3   OH234175   2.344   1.161  16.493 -0.0362 -0.9920 -0.2877
 3327TIP3    H134176   2.304   1.112  16.564  1.2412 -0.7807  0.6244
 3327TIP3    H234177   2.424   1.198  16.532  0.4179 -0.4331 -1.6885
 3328TIP3   OH234178   2.902   2.557  19.984  0.2699  0.5585  0.5110
 3328TIP3    H134179   2.912   2.626  19.919 -0.3205  1.5921  1.4917
 3328TIP3    H234180   2.814   2.569  20.020  0.1773 -0.6585  0.7646
 3329TIP3   OH234181   1.047   0.158  19.854  0.2106  0.3516 -0.0967
 3329TIP3    H134182   1.032   0.064  19.840 -0.6950  0.5379 -0.4464
 3329TIP3    H234183   1.141   0.165  19.874  0.9840 -0.3033 -3.0261
 3330TIP3   OH234184   6.601   5.560  19.894  0.6197 -0.2473 -0.2250
 3330TIP3    H134185   6.611   5.652  19.871  1.2343  0.0057  0.9761
 3330TIP3    H234186   6.555   5.560  19.978  1.0452 -1.0005  0.0269
 3331TIP3   OH234187   4.138   2.345  18.020 -0.2368 -0.6732  0.0571
 3331TIP3    H134188   4.098   2.264  18.054  3.4300 -1.9999  1.7229
 3331TIP3    H234189   4.158   2.396  18.098 -0.5204  0.9000 -0.8593
 3332TIP3   OH234190   2.523   0.591  19.724 -0.3999 -0.1585  0.0857
 3332TIP3    H134191   2.608   0.626  19.696  0.0723 -0.9324  0.5199
 3332TIP3    H234192   2.459   0.642  19.675  0.2371  1.6320  1.0190
 3333TIP3   OH234193   1.389   1.483  18.904 -0.3567  0.2732  0.0238
 3333TIP3    H134194   1.352   1.514  18.821 -0.7177 -0.7675 -0.2199
 3333TIP3    H234195   1.463   1.427  18.877 -0.9160 -0.6515  0.3583
 3334TIP3   OH234196   0.589   3.575  17.920  1.1039  0.4207  0.4487
 3334TIP3    H134197   0.632   3.660  17.906  1.6893  0.0254 -0.2763
 3334TIP3    H234198   0.535   3.563  17.842  0.3876  0.4921  0.9314
 3335TIP3   OH234199   3.457   3.193  18.345 -0.2097  0.3172  0.4084
 3335TIP3    H134200   3.375   3.152  18.372 -1.4578  1.8409 -0.8177
 3335TIP3    H234201   3.457   3.186  18.249 -0.7141  3.3819  0.0613
 3336TIP3   OH234202   0.912   3.170  19.889 -0.4843 -0.0864  0.4439
 3336TIP3    H134203   1.007   3.156  19.887 -0.1436  1.8941  0.1842
 3336TIP3    H234204   0.877   3.109  19.824  0.9771  1.2417 -1.7464
 3337TIP3   OH234205   3.799   2.827  16.818 -0.2026 -0.4023 -0.4211
 3337TIP3    H134206   3.854   2.783  16.883 -1.2132  1.0455  1.4992
 3337TIP3    H234207   3.860   2.876  16.764  0.5191  0.0980  0.8184
 3338TIP3   OH234208   6.619   5.150  18.532 -0.2583  0.4919  0.5285
 3338TIP3    H134209   6.696   5.098  18.508 -0.0321  1.0095  0.1091
 3338TIP3    H234210   6.559   5.087  18.570  0.9467  0.3102  2.2402
 3339TIP3   OH234211   3.946   1.587  19.446 -0.0551 -0.2968  0.1711
 3339TIP3    H134212   3.876   1.648  19.467 -0.5980 -0.9349  0.2339
 3339TIP3    H234213   4.007   1.595  19.519  0.0629  0.4301  0.0013
 3340TIP3   OH234214   2.659   4.514  18.453 -0.0208 -0.5144 -0.2684
 3340TIP3    H134215   2.701   4.560  18.525  0.4124  0.2498 -0.9866
 3340TIP3    H234216   2.578   4.563  18.436 -0.8442 -1.5247  0.6010
 3341TIP3   OH234217   6.091   1.078  18.229 -0.1722 -0.0041  0.4347
 3341TIP3    H134218   6.046   1.155  18.263 -0.2409 -0.4226  1.3012
 3341TIP3    H234219   6.183   1.104  18.223 -0.0408 -0.1625  1.6515
 3342TIP3   OH234220   6.040   0.509  17.312 -0.7632 -0.2388  0.6730
 3342TIP3    H134221   6.039   0.415  17.293 -1.8815 -0.1411  0.1347
 3342TIP3    H234222   5.949   0.530  17.333 -0.9832  1.1171 -1.3370
 3343TIP3   OH234223   6.696   4.955  18.187 -0.3345  0.3378 -0.4874
 3343TIP3    H134224   6.751   4.917  18.119  0.1815  0.1272  0.0398
 3343TIP3    H234225   6.749   5.025  18.225 -0.3855  0.0775  0.0837
 3344TIP3   OH234226   5.874   3.021  18.887 -0.2481  0.0936 -0.1968
 3344TIP3    H134227   5.896   3.051  18.975  0.1256  0.0879 -0.2886
 3344TIP3    H234228   5.845   2.930  18.899 -2.5715  0.8242  0.2533
 3345TIP3   OH234229   5.211   1.643  18.625  0.3554 -0.0136 -0.8018
 3345TIP3    H134230   5.229   1.631  18.532 -1.4267 -1.1236 -1.0606
 3345TIP3    H234231   5.221   1.556  18.663  0.0260  0.2156 -0.1680
 3346TIP3   OH234232   4.877   6.176  18.279  0.2357  0.0402 -0.4513
 3346TIP3    H134233   4.845   6.133  18.199  2.3497 -2.6222 -0.0027
 3346TIP3    H234234   4.855   6.115  18.349 -1.6446  2.3649  1.1380
 3347TIP3   OH234235   2.642   4.999  19.956  0.0988  0.5212  0.8003
 3347TIP3    H134236   2.597   5.079  19.984  0.2341  0.5061  1.0583
 3347TIP3    H234237   2.734   5.014  19.977  0.3210  0.8163 -0.3207
 3348TIP3   OH234238   6.504   6.137  19.102 -0.0212 -0.1296  0.1156
 3348TIP3    H134239   6.582   6.192  19.100  1.7530 -2.4966 -0.6056
 3348TIP3    H234240   6.446   6.175  19.036  1.0235  1.0025 -0.1809
 3349TIP3   OH234241   5.550   1.174  18.311 -0.5203  0.4912 -0.5387
 3349TIP3    H134242   5.605   1.243  18.274 -2.3656  1.3591 -1.8227
 3349TIP3    H234243   5.502   1.139  18.237 -2.6447  0.6908  0.6613
 3350TIP3   OH234244   1.009   0.743  19.532 -0.1769 -0.1344  0.8691
 3350TIP3    H134245   0.988   0.776  19.620 -0.1330  0.4576  0.6564
 3350TIP3    H234246   1.103   0.728  19.533  0.0342  1.0801  0.5246
 3351TIP3   OH234247   0.941   4.438  19.292 -0.4385 -0.3364 -0.0596
 3351TIP3    H134248   1.032   4.443  19.320 -1.1103 -0.3033  2.2981
 3351TIP3    H234249   0.900   4.377  19.353 -2.0582 -0.1699 -0.9152
 3352TIP3   OH234250   5.861   4.129  19.307 -0.6182 -0.0722 -0.5812
 3352TIP3    H134251   5.846   4.080  19.226  0.4879  0.0730 -0.8904
 3352TIP3    H234252   5.883   4.061  19.371 -2.3003 -0.2730 -0.1589
 3353TIP3   OH234253   0.313   5.401  16.774 -0.0767 -0.1722 -0.0005
 3353TIP3    H134254   0.246   5.460  16.810  0.2219 -0.1056  0.4617
 3353TIP3    H234255   0.274   5.314  16.779 -0.2611 -0.0934 -0.0573
 3354TIP3   OH234256   2.893   3.584  17.514  0.2650 -0.3245  0.3323
 3354TIP3    H134257   2.875   3.494  17.540  2.9753 -0.8816  0.4929
 3354TIP3    H234258   2.897   3.581  17.418 -0.4182 -0.1871  0.2925
 3355TIP3   OH234259   3.687   5.720  19.838 -0.0429  0.8899  0.0704
 3355TIP3    H134260   3.770   5.689  19.874  0.2256  1.1556 -0.3063
 3355TIP3    H234261   3.623   5.705  19.908 -0.4264 -2.6187 -0.8424
 3356TIP3   OH234262   5.877   3.631  16.941 -0.1182  0.3709 -0.0643
 3356TIP3    H134263   5.896   3.555  16.886 -0.9322  0.9196 -1.1481
 3356TIP3    H234264   5.882   3.598  17.030 -1.3407 -1.1883 -0.5374
 3357TIP3   OH234265   0.245   3.296  17.366 -0.3336  0.1528 -0.1144
 3357TIP3    H134266   0.310   3.352  17.407 -1.0915  0.4755  0.6837
 3357TIP3    H234267   0.286   3.266  17.285  0.6343  0.6830  0.1687
 3358TIP3   OH234268   4.828   5.724  19.241 -0.0346 -0.6371 -0.0778
 3358TIP3    H134269   4.900   5.774  19.279 -0.6694  0.5561 -0.4132
 3358TIP3    H234270   4.772   5.704  19.316 -0.5244  0.4340 -0.1423
 3359TIP3   OH234271   1.995   4.505  19.663 -0.1848  0.0918 -0.6256
 3359TIP3    H134272   1.981   4.468  19.576 -1.3369 -1.3404  0.1221
 3359TIP3    H234273   1.918   4.559  19.679 -0.5305 -0.5312 -0.0925
 3360TIP3   OH234274   6.774   3.320  17.455 -0.0747  0.1560 -0.0690
 3360TIP3    H134275   6.716   3.392  17.429 -2.9791 -1.7769  0.5024
 3360TIP3    H234276   6.853   3.332  17.402 -0.0625  4.0903  0.5116
 3361TIP3   OH234277   6.113   0.175  19.613  0.4541 -0.2166 -0.1765
 3361TIP3    H134278   6.047   0.236  19.646  0.6624 -0.7797  1.3539
 3361TIP3    H234279   6.136   0.209  19.526  0.5882  1.9012  0.6299
 3362TIP3   OH234280   2.542   2.846  18.601  0.0654  0.5583  0.6200
 3362TIP3    H134281   2.495   2.763  18.599  0.4878  0.3053  0.9487
 3362TIP3    H234282   2.503   2.894  18.674 -1.2733  1.3212 -0.5525
 3363TIP3   OH234283   4.975   0.304  18.275  0.2138  0.5787  0.0464
 3363TIP3    H134284   5.025   0.276  18.352  0.9718  1.6657 -0.0455
 3363TIP3    H234285   5.029   0.279  18.201  0.7934  2.0636 -0.0436
 3364TIP3   OH234286   0.515   1.776  18.926  0.0409  0.5280  0.3982
 3364TIP3    H134287   0.559   1.728  18.995 -0.6584  1.3567  1.4501
 3364TIP3    H234288   0.455   1.713  18.887  1.2778 -0.2692 -0.2571
 3365TIP3   OH234289   1.043   6.272  19.437  0.6918 -0.1478 -0.6050
 3365TIP3    H134290   1.114   6.216  19.469  1.0251  1.0964  0.9802
 3365TIP3    H234291   0.966   6.215  19.438  1.3195 -1.0236 -0.6309
 3366TIP3   OH234292   1.081   0.933  17.912  0.3975  0.6507  0.5223
 3366TIP3    H134293   1.074   0.913  18.006  2.2554  1.1124  0.7917
 3366TIP3    H234294   1.088   0.847  17.870 -1.6073  0.3702  0.6287
 3367TIP3   OH234295   5.125   3.160  18.306  0.1574  0.0469 -0.4538
 3367TIP3    H134296   5.034   3.134  18.292 -0.3812  0.9027  1.2514
 3367TIP3    H234297   5.140   3.230  18.243 -1.3917  2.0703  1.3011
 3368TIP3   OH234298   3.339   2.484  16.951 -0.0229 -0.5504  0.2338
 3368TIP3    H134299   3.284   2.439  17.015 -2.6021 -0.6830 -1.9312
 3368TIP3    H234300   3.289   2.562  16.927  0.6827 -0.6867 -1.8495
 3369TIP3   OH234301   2.419   4.427  17.310 -0.2202  0.3018 -0.1844
 3369TIP3    H134302   2.464   4.504  17.274 -1.0976  0.3440 -1.2441
 3369TIP3    H234303   2.351   4.407  17.245 -0.0624 -1.3139  0.1117
 3370TIP3   OH234304   1.512   1.482  17.855  0.5574  0.4551  0.5972
 3370TIP3    H134305   1.484   1.395  17.826  0.8094  0.9160 -1.1498
 3370TIP3    H234306   1.605   1.486  17.832  0.3297  1.5107 -0.2034
 3371TIP3   OH234307   6.538   0.974  17.983 -0.7909  0.3082 -0.1148
 3371TIP3    H134308   6.522   0.881  17.998 -0.3607  0.0006 -1.4188
 3371TIP3    H234309   6.588   0.976  17.901  0.2180  1.6123  0.5066
 3372TIP3   OH234310   4.813   1.955  18.050 -0.1070  0.3953  0.0370
 3372TIP3    H134311   4.875   1.882  18.046  0.8055  1.2051 -0.8387
 3372TIP3    H234312   4.836   2.011  17.976 -2.3828  0.3399 -0.8205
 3373TIP3   OH234313   5.193   6.066  17.708  0.0262 -0.8535  0.5486
 3373TIP3    H134314   5.134   6.141  17.721  2.0797  0.9542  0.1180
 3373TIP3    H234315   5.172   6.034  17.621  0.5282  0.6008 -0.1281
 3374TIP3   OH234316   6.067   5.564  18.617  0.1777  0.0472  0.6454
 3374TIP3    H134317   6.161   5.579  18.614  0.2111  0.3407  2.5040
 3374TIP3    H234318   6.058   5.469  18.609  0.4458  0.1647 -2.0114
 3375TIP3   OH234319   4.014   1.813  17.700  0.1638 -0.4333 -0.0001
 3375TIP3    H134320   3.937   1.790  17.752 -0.4389  0.1189 -0.6182
 3375TIP3    H234321   4.028   1.906  17.717  1.1170 -0.6745  0.6303
 3376TIP3   OH234322   2.123   6.625  19.514 -0.1305 -0.0959 -0.1302
 3376TIP3    H134323   2.040   6.668  19.493 -0.7564  0.0695  2.3796
 3376TIP3    H234324   2.186   6.664  19.454 -1.8407 -0.3547 -2.2412
 3377TIP3   OH234325   1.174   2.187  18.560 -0.0789  0.0698  0.3585
 3377TIP3    H134326   1.088   2.154  18.587 -0.0698 -1.2311 -1.0490
 3377TIP3    H234327   1.231   2.168  18.634 -0.1022 -3.1552 -0.2921
 3378TIP3   OH234328   5.324   2.025  17.297  0.2073  0.4633  0.3115
 3378TIP3    H134329   5.382   1.953  17.324  0.6725  0.5246 -0.4852
 3378TIP3    H234330   5.237   1.986  17.293  0.6234 -0.4248 -1.3445
 3379TIP3   OH234331   2.253   3.878  19.320  0.3363  0.8330 -0.6668
 3379TIP3    H134332   2.307   3.957  19.321  1.3649  0.4042 -4.3789
 3379TIP3    H234333   2.168   3.907  19.287  0.0213  0.7121  0.0349
 3380TIP3   OH234334   4.240   3.704  16.635 -0.4160 -0.4745  0.1392
 3380TIP3    H134335   4.205   3.752  16.711 -1.8227 -0.7994 -0.2775
 3380TIP3    H234336   4.273   3.773  16.577 -0.1556 -0.1638  0.6507
 3381TIP3   OH234337   3.414   4.603  16.864  0.0817 -0.0332  0.0483
 3381TIP3    H134338   3.438   4.598  16.957  0.7004 -0.3920 -0.1219
 3381TIP3    H234339   3.400   4.696  16.848 -0.2308  0.0125  0.5449
 3382TIP3   OH234340   1.189   4.629  19.312 -0.2597  0.3323 -0.3945
 3382TIP3    H134341   1.222   4.555  19.364  0.1489  0.6466 -0.2069
 3382TIP3    H234342   1.187   4.596  19.222 -2.6606 -0.8273  0.0048
 3383TIP3   OH234343   1.601   1.360  18.216  0.0933 -0.4885 -0.1034
 3383TIP3    H134344   1.581   1.454  18.217  2.2906  0.0367 -0.5113
 3383TIP3    H234345   1.605   1.337  18.124  2.6347 -0.1912 -0.1401
 3384TIP3   OH234346   1.134   1.116  18.737 -0.2966 -0.8194 -0.2312
 3384TIP3    H134347   1.042   1.106  18.760  0.1669 -1.9402  1.3366
 3384TIP3    H234348   1.177   1.141  18.819  1.1069 -2.5548 -0.3711
 3385TIP3   OH234349   3.999   1.615  18.188  0.7080 -0.2192 -0.2432
 3385TIP3    H134350   3.967   1.610  18.278 -2.0554 -1.1669 -1.1846
 3385TIP3    H234351   3.992   1.526  18.155 -0.5421  0.4932 -2.0477
 3386TIP3   OH234352   5.311   1.714  17.589  0.3233 -0.1873  0.0395
 3386TIP3    H134353   5.251   1.783  17.615  0.4469  0.6480 -1.7856
 3386TIP3    H234354   5.396   1.758  17.582  0.7196 -0.8765  0.3930
 3387TIP3   OH234355   2.213   2.737  18.065  0.1566 -0.6446 -0.1708
 3387TIP3    H134356   2.248   2.765  18.150 -0.5823 -2.2906  0.7131
 3387TIP3    H234357   2.133   2.789  18.054 -0.4570 -1.3529  0.7884
 3388TIP3   OH234358   5.641   1.623  17.044  0.3804  0.1845  0.3333
 3388TIP3    H134359   5.614   1.578  16.964 -0.1342  2.6010 -0.9562
 3388TIP3    H234360   5.573   1.600  17.108 -1.9227  1.8668 -1.3265
 3389TIP3   OH234361   4.096   2.150  18.360 -0.4034  0.0347 -1.0208
 3389TIP3    H134362   4.082   2.058  18.339  0.3040 -0.5073  0.7383
 3389TIP3    H234363   4.031   2.196  18.307 -1.8557 -1.5939 -0.7621
 3390TIP3   OH234364   2.107   3.570  18.481 -0.2203  0.7400  0.3698
 3390TIP3    H134365   2.113   3.658  18.518  0.3498  1.2195 -0.8085
 3390TIP3    H234366   2.087   3.584  18.389  0.2108 -0.3450  0.0972
 3391TIP3   OH234367   4.842   4.896  18.969 -0.0366 -0.2009  0.2762
 3391TIP3    H134368   4.869   4.944  19.047  0.7698  0.2459 -0.2602
 3391TIP3    H234369   4.923   4.867  18.928 -0.3706  0.5341 -0.9772
 3392TIP3   OH234370   0.049   6.399  17.038  0.1325  0.6691 -0.6808
 3392TIP3    H134371  -0.005   6.359  17.106  0.7826  0.1454 -0.4666
 3392TIP3    H234372   0.005   6.375  16.956  0.4836 -0.4613 -0.5584
 3393TIP3   OH234373   5.971   0.803  18.774 -0.1650  0.0625  0.0347
 3393TIP3    H134374   5.896   0.754  18.806 -0.0399  0.5672  1.1348
 3393TIP3    H234375   5.994   0.862  18.846  0.8598  0.3926 -0.5442
 3394TIP3   OH234376   0.008   5.770  19.192 -0.7456  0.3449  0.4008
 3394TIP3    H134377   0.061   5.694  19.169 -0.6891  0.0998  1.2832
 3394TIP3    H234378   0.070   5.834  19.227 -0.8527  0.6232  0.0888
 3395TIP3   OH234379   1.271   1.465  17.138 -0.0637  0.2897 -0.0510
 3395TIP3    H134380   1.280   1.555  17.169 -1.1500  0.1248  0.8052
 3395TIP3    H234381   1.234   1.418  17.213  1.1085 -1.0172 -0.2635
 3396TIP3   OH234382   0.777   0.150  18.066 -0.4718 -0.3365  0.0433
 3396TIP3    H134383   0.791   0.220  18.130 -1.2104 -0.2303  0.0956
 3396TIP3    H234384   0.866   0.121  18.043 -0.0707  1.5276 -1.0015
 3397TIP3   OH234385   4.792   1.478  17.289 -0.2376 -0.0779 -0.1379
 3397TIP3    H134386   4.882   1.483  17.321 -0.5468  1.5717  0.5583
 3397TIP3    H234387   4.787   1.545  17.221 -0.7534 -0.6945 -0.7330
 3398TIP3   OH234388   3.566   1.301  17.726 -0.0743  0.4646  0.0803
 3398TIP3    H134389   3.554   1.289  17.820  0.4260  1.5983  0.3108
 3398TIP3    H234390   3.497   1.362  17.700  0.8918  1.6126  0.0960
 3399TIP3   OH234391   2.070   2.499  19.981  0.0537  0.3882  0.2369
 3399TIP3    H134392   2.002   2.565  19.994  1.5524  1.7530  1.6393
 3399TIP3    H234393   2.023   2.416  19.980 -1.5555  1.2035  2.1233
 3400TIP3   OH234394   1.916   6.427  19.614  0.5389 -0.0023  0.2294
 3400TIP3    H134395   1.910   6.443  19.708 -0.1799 -2.6033  0.7077
 3400TIP3    H234396   1.992   6.479  19.585  0.5616  1.1185  2.1360
 3401TIP3   OH234397   0.203   2.440  16.963 -0.6024 -0.6026  0.0049
 3401TIP3    H134398   0.246   2.505  16.908 -0.2593 -0.9465 -0.1442
 3401TIP3    H234399   0.111   2.446  16.941 -0.8270  0.9673  1.1673
 3402TIP3   OH234400   4.927   2.466  17.189 -0.3161  0.1775  0.4935
 3402TIP3    H134401   4.964   2.554  17.199  0.1695  0.1019 -0.5033
 3402TIP3    H234402   4.858   2.477  17.123 -2.5467  0.4257  2.7308
 3403TIP3   OH234403   4.435   2.581  18.329 -0.5227 -0.6682  0.6767
 3403TIP3    H134404   4.399   2.615  18.411 -0.2178 -0.1696  0.6080
 3403TIP3    H234405   4.516   2.538  18.355  1.0624  1.8839  0.3374
 3404TIP3   OH234406   2.216   6.423  18.949  0.5523 -0.0805  0.4725
 3404TIP3    H134407   2.286   6.432  18.884  0.0831 -0.8117 -0.1470
 3404TIP3    H234408   2.161   6.500  18.936 -0.3612 -0.9454 -1.0234
 3405TIP3   OH234409   3.058   5.654  18.794 -0.6218 -0.0820 -0.5174
 3405TIP3    H134410   3.068   5.657  18.889  0.2760 -0.0235 -0.6103
 3405TIP3    H234411   2.964   5.639  18.780 -0.6109 -1.1126  0.3889
 3406TIP3   OH234412   1.330   0.344  18.692 -0.2718 -0.7444 -0.4046
 3406TIP3    H134413   1.325   0.260  18.645 -1.1789 -1.9042  1.6614
 3406TIP3    H234414   1.240   0.374  18.697  0.0190  0.2475 -0.8724
 3407TIP3   OH234415   6.700   6.211  18.384  0.2482 -0.5461  0.1160
 3407TIP3    H134416   6.763   6.193  18.455 -1.4821  0.8569  2.1250
 3407TIP3    H234417   6.675   6.124  18.352  1.9124 -1.1769  0.4244
 3408TIP3   OH234418   6.510   6.022  18.513 -0.1068  0.4547 -0.3307
 3408TIP3    H134419   6.419   6.001  18.534  0.2431 -1.7370 -0.7748
 3408TIP3    H234420   6.504   6.097  18.453 -1.7528 -0.8022 -1.8434
 3409TIP3   OH234421   2.367   2.221  18.198 -0.3520 -0.3386  0.7273
 3409TIP3    H134422   2.373   2.251  18.288 -0.7105 -1.9277  1.3182
 3409TIP3    H234423   2.454   2.185  18.179 -0.3858 -0.3389  0.5694
 3410TIP3   OH234424   5.706   6.570  19.742 -0.1919  0.0820  0.1317
 3410TIP3    H134425   5.656   6.579  19.823 -0.1590  0.6785  0.0854
 3410TIP3    H234426   5.701   6.656  19.701 -0.0210 -0.1565 -0.3942
 3411TIP3   OH234427   6.444   0.101  17.149 -0.1754  0.0093  0.1568
 3411TIP3    H134428   6.524   0.069  17.191  0.5629 -0.6642 -1.6694
 3411TIP3    H234429   6.434   0.190  17.182  0.4627 -0.4245  1.5891
 3412TIP3   OH234430   2.375   0.384  19.855  0.6333 -0.3032 -0.2664
 3412TIP3    H134431   2.313   0.395  19.783 -0.9696  1.3335  1.2494
 3412TIP3    H234432   2.451   0.438  19.829 -1.0577  2.6127  0.3818
 3413TIP3   OH234433   6.027   3.243  17.258 -0.1406  0.2471 -0.6213
 3413TIP3    H134434   6.038   3.170  17.197  0.5951 -0.3873  0.2410
 3413TIP3    H234435   5.979   3.309  17.208 -1.3283 -1.0419 -1.2347
 3414TIP3   OH234436   3.248   2.519  18.843  0.1966  0.5593 -0.5506
 3414TIP3    H134437   3.332   2.565  18.834  0.7650 -0.6078 -1.5474
 3414TIP3    H234438   3.249   2.482  18.931 -0.2452  2.3463  0.2486
 3415TIP3   OH234439   4.674   5.073  16.730 -0.1426  0.3154  0.3138
 3415TIP3    H134440   4.707   5.002  16.674 -4.0719 -1.4751 -0.0488
 3415TIP3    H234441   4.680   5.151  16.676  1.1779 -0.3196 -0.5226
 3416TIP3   OH234442   1.590   5.041  18.602  0.4590 -0.1719 -0.0116
 3416TIP3    H134443   1.590   4.948  18.625  0.2102 -0.3391 -0.6795
 3416TIP3    H234444   1.501   5.058  18.571  0.6416  0.1735 -0.3507
 3417TIP3   OH234445   2.815   4.085  19.532 -0.7482  0.6817  0.6342
 3417TIP3    H134446   2.763   4.033  19.593  1.8890 -1.0165  1.6183
 3417TIP3    H234447   2.768   4.079  19.449 -1.8493 -1.2209  1.3278
 3418TIP3   OH234448   4.330   0.294  18.501 -0.8639 -0.6159 -0.3625
 3418TIP3    H134449   4.311   0.281  18.408  0.0278  0.5570 -0.7294
 3418TIP3    H234450   4.413   0.248  18.515 -1.2838 -1.2864  0.0142
 3419TIP3   OH234451   1.472   3.417  18.597  0.8305  0.2318  0.1545
 3419TIP3    H134452   1.404   3.485  18.598  1.4150  0.8324 -0.2294
 3419TIP3    H234453   1.539   3.449  18.657  0.4114 -0.7660  1.2012
 3420TIP3   OH234454   3.272   5.910  17.274  0.1722  0.5893  0.2718
 3420TIP3    H134455   3.259   5.883  17.183  0.1893  0.9497  0.1613
 3420TIP3    H234456   3.236   5.838  17.326 -0.5469  0.7264 -0.0262
 3421TIP3   OH234457   0.776   0.989  19.082 -0.0176  0.2247  0.3324
 3421TIP3    H134458   0.823   1.027  19.008 -0.6112  1.3631  0.5135
 3421TIP3    H234459   0.718   0.924  19.043 -0.6820  1.1542 -0.2781
 3422TIP3   OH234460   0.646   2.802  17.241 -0.4057 -0.0476  0.1171
 3422TIP3    H134461   0.643   2.735  17.309  1.9483 -0.6459 -0.2786
 3422TIP3    H234462   0.659   2.754  17.159  0.5848  0.8263 -0.2651
 3423TIP3   OH234463   4.672   5.628  18.871 -0.5602  0.0493 -0.5581
 3423TIP3    H134464   4.578   5.626  18.887 -0.5324 -1.2632 -0.4096
 3423TIP3    H234465   4.690   5.544  18.827  0.8225 -0.6768  1.2589
 3424TIP3   OH234466   2.982   0.707  19.886 -0.2216 -0.1218 -0.8042
 3424TIP3    H134467   3.066   0.674  19.918 -0.4899 -0.1465 -0.1109
 3424TIP3    H234468   2.947   0.635  19.834  0.3014 -0.0141 -1.3215
 3425TIP3   OH234469   2.905   1.959  18.519 -0.0918  0.0053  0.0761
 3425TIP3    H134470   2.842   2.029  18.535 -0.0311 -0.3189  2.0159
 3425TIP3    H234471   2.854   1.890  18.476 -0.4284  0.7468 -0.7332
 3426TIP3   OH234472   0.952   5.201  16.665 -0.2464  0.3211  0.0732
 3426TIP3    H134473   0.937   5.148  16.587  0.7372 -0.3980  0.3584
 3426TIP3    H234474   0.867   5.239  16.685 -1.3122 -2.1901  0.6140
 3427TIP3   OH234475   6.369   0.554  19.398 -0.1514  0.7745 -0.1756
 3427TIP3    H134476   6.461   0.545  19.373  0.3973  0.7820  1.6823
 3427TIP3    H234477   6.323   0.572  19.316  0.9968 -2.5381 -1.7076
 3428TIP3   OH234478   0.820   5.269  19.633 -0.1736  0.3485 -0.0446
 3428TIP3    H134479   0.872   5.191  19.617 -0.1198  0.6828 -1.6812
 3428TIP3    H234480   0.877   5.325  19.686  0.5943  0.1182 -0.6013
 3429TIP3   OH234481   3.953   2.729  16.535  0.1580 -0.0342 -0.1574
 3429TIP3    H134482   4.034   2.743  16.584 -0.8282 -1.5477  2.1064
 3429TIP3    H234483   3.981   2.682  16.456  1.6456  1.1823 -0.4093
 3430TIP3   OH234484   0.762   1.102  17.091 -0.2751 -0.2818  0.0147
 3430TIP3    H134485   0.838   1.130  17.142 -1.2152  0.7913  0.8930
 3430TIP3    H234486   0.791   1.024  17.045  1.4978  0.3803 -0.0468
 3431TIP3   OH234487   2.584   5.266  19.982 -0.1977  0.6003 -0.6061
 3431TIP3    H134488   2.620   5.355  19.979 -0.0016  0.5085 -2.8813
 3431TIP3    H234489   2.557   5.248  19.891 -1.1907 -1.2825  0.0056
 3432TIP3   OH234490   1.524   4.331  16.509 -0.6276  1.0303  0.3133
 3432TIP3    H134491   1.488   4.253  16.549  0.6135 -0.2029 -0.8645
 3432TIP3    H234492   1.590   4.361  16.572  0.8765 -0.5394 -0.4305
 3433TIP3   OH234493   2.546   4.736  17.558 -0.5558  0.1065 -0.4017
 3433TIP3    H134494   2.601   4.804  17.597 -3.2849  1.5341  1.2889
 3433TIP3    H234495   2.607   4.666  17.535  1.7144  0.4257  3.7285
 3434TIP3   OH234496   5.511   1.842  17.446 -0.6524  0.4088  0.1482
 3434TIP3    H134497   5.599   1.812  17.466 -0.1271  1.4462 -0.4905
 3434TIP3    H234498   5.506   1.930  17.483 -2.3681 -0.5952  2.5336
 3435TIP3   OH234499   0.921   3.471  16.516 -0.3799  0.1667  0.1321
 3435TIP3    H134500   0.859   3.440  16.449  0.9643 -0.4921 -0.8675
 3435TIP3    H234501   0.959   3.391  16.552 -0.3334  0.5533  0.9705
 3436TIP3   OH234502   0.320   1.569  19.608  0.5432  0.1112 -0.1259
 3436TIP3    H134503   0.293   1.482  19.638  1.8768 -0.2280  0.1515
 3436TIP3    H234504   0.264   1.587  19.532 -1.6903  0.2309  1.4610
 3437TIP3   OH234505   0.839   3.944  16.909 -0.5000  0.5221 -0.2466
 3437TIP3    H134506   0.790   4.016  16.948 -1.1483 -0.1057  0.1451
 3437TIP3    H234507   0.928   3.954  16.942 -1.3021 -0.7710  2.6445
 3438TIP3   OH234508   5.985   5.369  18.989  0.2379  0.1997 -0.5790
 3438TIP3    H134509   5.995   5.399  18.898 -1.8842  1.5513 -0.4517
 3438TIP3    H234510   5.967   5.450  19.038 -3.9374 -0.9135  0.1061
 3439TIP3   OH234511   2.035   4.996  18.020  0.3338  0.2155  0.3646
 3439TIP3    H134512   2.077   4.921  18.062  0.5081 -0.0462 -0.2758
 3439TIP3    H234513   2.091   5.070  18.042  0.5920  0.0288  0.3413
 3440TIP3   OH234514   5.804   2.028  17.214 -0.1288  0.5580 -0.3169
 3440TIP3    H134515   5.852   2.096  17.166  0.1017  0.5983 -0.0355
 3440TIP3    H234516   5.790   1.959  17.150 -0.4333  0.9026 -0.6284
 3441TIP3   OH234517   5.522   5.149  17.213  0.0583 -0.2520 -0.2506
 3441TIP3    H134518   5.457   5.219  17.219 -0.0021 -0.3637  0.4404
 3441TIP3    H234519   5.498   5.087  17.282  1.3475  0.0811  0.5338
 3442TIP3   OH234520   1.826   0.713  19.017 -0.2013  0.6265  0.5211
 3442TIP3    H134521   1.878   0.790  18.992 -0.2225  0.1012 -1.2908
 3442TIP3    H234522   1.755   0.749  19.071  0.3044  1.7560  0.4648
 3443TIP3   OH234523   3.094   4.886  18.513 -0.3648  0.3649 -0.2703
 3443TIP3    H134524   3.141   4.875  18.431  2.6812 -0.2594  1.4002
 3443TIP3    H234525   3.160   4.869  18.581 -2.3515  2.2282  2.3353
 3444TIP3   OH234526   1.456   3.303  17.870  0.2314  0.4598  0.3433
 3444TIP3    H134527   1.478   3.276  17.781  0.4625 -2.0940  1.0940
 3444TIP3    H234528   1.456   3.399  17.867  2.1733  0.4647 -1.9119
 3445TIP3   OH234529   5.238   2.792  17.841  0.3876 -0.2891  0.0657
 3445TIP3    H134530   5.283   2.843  17.908  0.8776 -1.1793  0.4370
 3445TIP3    H234531   5.196   2.857  17.785  0.1075  0.4694  1.1416
 3446TIP3   OH234532   5.136   1.001  17.885  0.6144  0.7202 -0.0168
 3446TIP3    H134533   5.205   0.953  17.840 -0.1393 -0.3474 -0.0820
 3446TIP3    H234534   5.175   1.085  17.908  1.3092  0.9403 -1.8478
 3447TIP3   OH234535   0.489   3.039  17.283 -0.2579 -0.4997  0.6996
 3447TIP3    H134536   0.545   2.962  17.274  0.6927  0.0661  1.4936
 3447TIP3    H234537   0.521   3.100  17.217 -1.0309 -0.7797  0.0501
 3448TIP3   OH234538   4.024   3.026  16.741  0.2608 -0.1346  0.3212
 3448TIP3    H134539   4.099   2.987  16.785 -0.5314 -2.0995  0.0174
 3448TIP3    H234540   4.026   3.118  16.767  2.2986 -0.3087  0.9390
 3449TIP3   OH234541   5.702   4.446  17.361 -0.0600 -0.5444  0.7597
 3449TIP3    H134542   5.738   4.360  17.382 -0.9433 -0.8470  1.0817
 3449TIP3    H234543   5.722   4.458  17.268  1.0202 -0.6198  0.9762
 3450TIP3   OH234544   0.494   5.078  18.897 -0.0875  0.0335 -0.3804
 3450TIP3    H134545   0.415   5.089  18.846 -0.1489 -0.4319 -0.3939
 3450TIP3    H234546   0.538   5.163  18.894 -1.4308  0.8280  1.0705
 3451TIP3   OH234547   0.042   6.075  18.579  0.1278 -0.0247 -0.2868
 3451TIP3    H134548   0.113   6.125  18.620 -0.1032 -0.3475  0.5300
 3451TIP3    H234549  -0.006   6.037  18.653 -1.9576  1.6067 -0.7265
 3452TIP3   OH234550   0.423   6.003  19.058  0.1320 -0.1242  0.4340
 3452TIP3    H134551   0.425   5.947  19.135 -1.6337 -1.1978 -0.2372
 3452TIP3    H234552   0.330   6.015  19.039  0.5108  0.8049 -1.0551
 3453TIP3   OH234553   4.881   6.233  19.500  0.5967  0.4600 -0.3751
 3453TIP3    H134554   4.889   6.261  19.591 -1.4492  0.0284 -0.0093
 3453TIP3    H234555   4.906   6.141  19.501 -1.1289 -0.0297  0.1259
 3454TIP3   OH234556   5.081   3.331  18.068 -0.0910 -0.5694  0.0894
 3454TIP3    H134557   4.998   3.285  18.051 -0.2481 -0.2829  0.0787
 3454TIP3    H234558   5.133   3.315  17.989  0.0993 -1.2571  0.3439
 3455TIP3   OH234559   6.120   6.095  17.660 -0.1970 -0.4966 -0.5455
 3455TIP3    H134560   6.082   6.044  17.732  0.5757 -0.6098 -0.2097
 3455TIP3    H234561   6.045   6.120  17.606 -0.9656  0.6368  0.9573
 3456TIP3   OH234562   5.458   2.045  18.622 -0.1143  0.1917  0.7296
 3456TIP3    H134563   5.513   1.983  18.573  0.7813 -0.1519  2.1084
 3456TIP3    H234564   5.385   1.992  18.655 -1.8387  0.8128 -1.8089
 3457TIP3   OH234565   2.968   2.911  17.401 -0.2770 -0.5946  0.0425
 3457TIP3    H134566   2.945   2.825  17.366 -0.0558 -1.3449  1.6464
 3457TIP3    H234567   3.063   2.908  17.411 -0.1651  0.1748 -0.7139
 3458TIP3   OH234568   1.284   2.664  19.523  0.2216 -0.4305 -0.4216
 3458TIP3    H134569   1.345   2.652  19.596  1.9231 -1.9063 -1.9575
 3458TIP3    H234570   1.340   2.683  19.448 -1.3190 -0.5461 -1.6580
 3459TIP3   OH234571   5.377   6.385  17.573  0.7993 -0.2819  0.1321
 3459TIP3    H134572   5.339   6.353  17.655  0.4093 -0.4570 -0.1091
 3459TIP3    H234573   5.343   6.474  17.564  1.0134 -0.1865  0.2672
 3460TIP3   OH234574   5.382   1.551  17.198 -0.8588  0.0158 -0.1271
 3460TIP3    H134575   5.347   1.496  17.128 -1.9145  0.0073  0.3835
 3460TIP3    H234576   5.307   1.567  17.256 -0.4434  1.4985  0.0581
 3461TIP3   OH234577   4.740   0.931  19.259  0.1121 -0.3081 -0.4092
 3461TIP3    H134578   4.745   1.007  19.200 -0.1287 -0.1780 -0.2676
 3461TIP3    H234579   4.659   0.887  19.233  1.1322 -1.5168 -1.6681
 3462TIP3   OH234580   6.543   0.914  16.255 -0.5032 -0.1420  0.0786
 3462TIP3    H134581   6.583   0.830  16.278  1.7206  0.7942 -0.1433
 3462TIP3    H234582   6.612   0.962  16.210 -2.0967  1.3849 -0.8658
 3463TIP3   OH234583   0.393   5.511  16.246  0.1974  0.0894  0.2032
 3463TIP3    H134584   0.432   5.482  16.164  0.1585  1.4650 -0.3295
 3463TIP3    H234585   0.371   5.430  16.292  1.2721 -0.7108 -0.6260
 3464TIP3   OH234586   6.230   2.171  17.063  0.1949  0.4713  0.4265
 3464TIP3    H134587   6.298   2.233  17.092  0.8589  1.7687 -3.4264
 3464TIP3    H234588   6.279   2.093  17.038 -0.2059 -0.0355  1.1720
 3465TIP3   OH234589   0.482   2.398  17.048 -0.6690 -0.6487 -0.1576
 3465TIP3    H134590   0.506   2.488  17.027  1.0286 -1.1878 -0.6547
 3465TIP3    H234591   0.388   2.393  17.029 -0.6876  0.8747 -0.5734
 3466TIP3   OH234592   6.637   1.492  19.093  0.2185  0.0623 -0.2921
 3466TIP3    H134593   6.715   1.450  19.056 -0.9907  0.0651 -3.1231
 3466TIP3    H234594   6.598   1.425  19.149  1.8017 -0.2087  0.5367
 3467TIP3   OH234595   5.011   2.948  17.764 -0.2339  0.1553 -0.0212
 3467TIP3    H134596   4.917   2.935  17.755 -0.2712  0.4939 -0.1322
 3467TIP3    H234597   5.044   2.942  17.674  0.1348 -2.0516  0.1893
 3468TIP3   OH234598   4.949   4.308  18.634 -0.0548 -0.1025  0.3296
 3468TIP3    H134599   4.863   4.308  18.592 -0.5901 -0.1240  1.4136
 3468TIP3    H234600   4.941   4.244  18.705  1.3169 -1.2315 -0.4781
 3469TIP3   OH234601   3.722   5.094  17.747  0.1713  0.4137 -0.4948
 3469TIP3    H134602   3.743   5.119  17.837 -0.9424  0.8730 -0.3430
 3469TIP3    H234603   3.636   5.052  17.753 -0.4223  1.4107 -1.4688
 3470TIP3   OH234604   4.514   3.299  19.403  0.0928 -0.1814  0.7656
 3470TIP3    H134605   4.474   3.371  19.452  0.6807  1.0504 -0.4831
 3470TIP3    H234606   4.473   3.220  19.438  0.8251  0.5674  3.5785
 3471TIP3   OH234607   2.671   5.447  17.636  0.1036  0.8811 -0.4354
 3471TIP3    H134608   2.760   5.426  17.607 -0.0857  1.2342 -1.3150
 3471TIP3    H234609   2.668   5.421  17.728  1.1244  0.8936 -0.3938
 3472TIP3   OH234610   4.599   0.721  19.425  0.0547  0.2018  0.4265
 3472TIP3    H134611   4.638   0.800  19.462 -1.0091  0.8721  0.1424
 3472TIP3    H234612   4.513   0.748  19.394 -0.9849 -1.4183  1.7304
 3473TIP3   OH234613   0.255   4.246  17.068  0.3674 -0.8170  0.1389
 3473TIP3    H134614   0.324   4.291  17.116  2.2870 -1.6104 -1.7182
 3473TIP3    H234615   0.253   4.289  16.983 -0.3115 -1.8475 -0.3919
 3474TIP3   OH234616   2.067   3.822  19.644 -0.0229  0.0223 -0.2752
 3474TIP3    H134617   2.052   3.786  19.556 -0.0917  2.1213 -1.1812
 3474TIP3    H234618   2.001   3.779  19.699 -0.9949 -0.2162 -1.5664
 3475TIP3   OH234619   4.704   3.759  17.764  0.2156 -0.4027 -0.2858
 3475TIP3    H134620   4.674   3.756  17.854  0.4244 -1.0076 -0.2297
 3475TIP3    H234621   4.742   3.672  17.748 -0.9901 -0.7605 -1.3614
 3476TIP3   OH234622   3.952   2.134  18.095  0.1948 -0.0913  1.2187
 3476TIP3    H134623   3.961   2.102  18.005 -2.2267  1.7085  0.2487
 3476TIP3    H234624   3.889   2.074  18.135  2.4091 -1.8406  2.3214
 3477TIP3   OH234625   4.051   6.731  16.560 -0.6097 -0.1772  0.0485
 3477TIP3    H134626   4.065   6.824  16.544  0.0289 -0.4199 -0.8867
 3477TIP3    H234627   3.956   6.721  16.567 -0.9699  0.0435 -3.2359
 3478TIP3   OH234628   0.002   4.486  17.763  0.0400  0.1607  0.7802
 3478TIP3    H134629  -0.033   4.570  17.736 -0.0733  0.2505  1.1908
 3478TIP3    H234630  -0.070   4.424  17.748 -0.1159  0.2551  1.1205
 3479TIP3   OH234631   5.424   1.927  20.190 -0.1402 -0.0794  0.7952
 3479TIP3    H134632   5.499   1.895  20.239  0.0114 -1.7232 -0.3871
 3479TIP3    H234633   5.458   2.000  20.139  0.4582 -0.2950  0.8761
 3480TIP3   OH234634   6.503   4.045  17.637  0.4531  0.3447 -0.4928
 3480TIP3    H134635   6.532   4.057  17.727  1.9333 -0.1803 -0.8683
 3480TIP3    H234636   6.468   3.956  17.634 -0.6704  0.7594 -0.1883
 3481TIP3   OH234637   3.497   1.709  17.242 -0.0072 -0.0952  0.0556
 3481TIP3    H134638   3.516   1.680  17.153  0.2853 -0.0644  0.1056
 3481TIP3    H234639   3.579   1.695  17.290  0.4565  1.6553 -0.1387
 3482TIP3   OH234640   0.549   1.846  16.937  0.0717 -0.8524  0.5024
 3482TIP3    H134641   0.578   1.756  16.951 -0.6732 -1.1791  0.0002
 3482TIP3    H234642   0.456   1.846  16.960  0.0505 -0.2303  0.4401
 3483TIP3   OH234643   1.838   4.206  19.635 -0.2757  0.3031 -0.0947
 3483TIP3    H134644   1.806   4.128  19.681  0.0800  0.9635  1.3371
 3483TIP3    H234645   1.804   4.197  19.546 -1.9952 -0.4492  0.5965
 3484TIP3   OH234646   5.007   6.792  17.899 -0.1505 -0.2649  0.5176
 3484TIP3    H134647   4.920   6.758  17.879  0.2152 -0.5700 -0.6199
 3484TIP3    H234648   5.033   6.746  17.978 -0.0850 -1.9280 -0.4271
 3485TIP3   OH234649   3.434   3.496  17.221  0.8330 -0.3969 -0.0105
 3485TIP3    H134650   3.513   3.549  17.232  0.2992  0.4924 -0.3720
 3485TIP3    H234651   3.376   3.549  17.167 -0.3756 -0.6532  0.9796
 3486TIP3   OH234652   0.537   1.807  16.423  0.0463  1.1040  0.0293
 3486TIP3    H134653   0.474   1.739  16.401  1.4683 -0.4238  0.4976
 3486TIP3    H234654   0.547   1.857  16.342 -0.3512  0.1916 -0.5991
 3487TIP3   OH234655   0.562   0.823  18.271  0.4527 -0.6805 -0.2972
 3487TIP3    H134656   0.564   0.893  18.205  0.5229 -1.3098 -0.9694
 3487TIP3    H234657   0.560   0.870  18.355 -2.1347  0.1626 -0.7495
 3488TIP3   OH234658   5.688   3.734  19.599  0.0050  0.1353  0.0800
 3488TIP3    H134659   5.608   3.786  19.594  0.1698  0.4185  0.3298
 3488TIP3    H234660   5.746   3.785  19.656 -0.6973 -1.4449  2.3409
 3489TIP3   OH234661   0.250   0.668  19.205 -0.3505  0.1334 -0.5129
 3489TIP3    H134662   0.216   0.647  19.291 -0.1482 -0.4682 -0.5768
 3489TIP3    H234663   0.176   0.709  19.159 -0.4747  0.3977 -0.0789
 3490TIP3   OH234664   6.345   1.410  19.111  0.1453 -0.3433  0.2166
 3490TIP3    H134665   6.374   1.485  19.060 -1.2480  0.4012  0.4675
 3490TIP3    H234666   6.295   1.448  19.183  0.4657 -1.4604  1.0530
 3491TIP3   OH234667   3.342   4.385  19.243  0.1181  0.0929  0.4120
 3491TIP3    H134668   3.347   4.299  19.285  0.4593 -0.3855 -0.5735
 3491TIP3    H234669   3.251   4.394  19.217  0.4780 -1.0045 -1.4947
 3492TIP3   OH234670   4.950   1.543  16.329 -0.0794 -0.4282  0.4421
 3492TIP3    H134671   4.979   1.623  16.285  0.2654 -1.3584 -1.1158
 3492TIP3    H234672   5.026   1.513  16.378  1.3170 -2.0966 -2.4904
 3493TIP3   OH234673   6.752   6.368  18.766 -0.1374  0.2733  0.0789
 3493TIP3    H134674   6.705   6.285  18.754 -0.1838  0.7038 -4.3280
 3493TIP3    H234675   6.843   6.342  18.779  0.1215 -0.5826 -2.8823
 3494TIP3   OH234676   0.301   0.778  19.770 -0.0689 -0.0242 -0.1114
 3494TIP3    H134677   0.393   0.780  19.743  0.3360 -0.7264  1.1534
 3494TIP3    H234678   0.302   0.802  19.862 -1.2250  0.5197 -0.2282
 3495TIP3   OH234679   4.871   0.779  19.918  0.3597  0.4492  0.4932
 3495TIP3    H134680   4.800   0.827  19.963 -0.9643 -2.5125  1.8455
 3495TIP3    H234681   4.839   0.767  19.829 -1.1742 -1.2684  1.2115
 3496TIP3   OH234682   5.634   4.008  18.665 -0.0267  0.0374  0.3841
 3496TIP3    H134683   5.609   4.054  18.745 -0.2041  1.2790 -0.3403
 3496TIP3    H234684   5.726   4.031  18.652 -0.0594  0.0259  0.1204
 3497TIP3   OH234685   1.147   6.309  18.400 -0.1436 -1.0772 -0.6971
 3497TIP3    H134686   1.165   6.384  18.344  1.2807 -0.8483  0.0202
 3497TIP3    H234687   1.222   6.250  18.387 -0.7361 -1.9023 -0.4839
 3498TIP3   OH234688   3.980   3.211  17.600 -1.0424 -0.1818  0.3988
 3498TIP3    H134689   4.024   3.130  17.578 -3.0534 -1.8163  1.9243
 3498TIP3    H234690   3.930   3.234  17.522 -0.5959 -0.4924  0.0193
 3499TIP3   OH234691   2.536   6.590  18.244  0.0536 -0.4695 -0.0600
 3499TIP3    H134692   2.626   6.621  18.237 -0.1800 -0.1254 -4.7785
 3499TIP3    H234693   2.537   6.504  18.201 -1.7238 -0.8758  0.6437
 3500TIP3   OH234694   2.284   4.695  19.367 -0.0233  0.8402 -0.2853
 3500TIP3    H134695   2.377   4.718  19.357  0.2735 -0.4622 -0.6047
 3500TIP3    H234696   2.243   4.732  19.288  0.3199  0.8919 -0.4461
 3501TIP3   OH234697   3.451   4.869  17.425 -0.0742 -0.4481  0.4036
 3501TIP3    H134698   3.435   4.921  17.347  2.0457 -2.0303 -1.2136
 3501TIP3    H234699   3.394   4.908  17.492 -1.0978  1.7076 -1.5683
 3502TIP3   OH234700   2.998   0.471  18.042  0.3700 -0.1170 -0.1121
 3502TIP3    H134701   2.989   0.529  17.967 -1.3176  0.4845  0.5203
 3502TIP3    H234702   3.078   0.421  18.024  0.8480  1.1029 -1.5392
 3503TIP3   OH234703   4.835   6.653  19.458  0.1513 -0.2961  0.2484
 3503TIP3    H134704   4.899   6.589  19.427  0.5519 -0.0948  0.6546
 3503TIP3    H234705   4.800   6.692  19.378  0.1118 -0.8099  0.0078
 3504TIP3   OH234706   3.071   4.524  19.857  0.6015  0.3075  0.4222
 3504TIP3    H134707   3.086   4.494  19.768  2.5381  0.5852  0.6113
 3504TIP3    H234708   2.989   4.483  19.883  0.8998 -1.1901 -0.8736
 3505TIP3   OH234709   1.628   1.639  20.137  0.0257 -0.6462 -0.3013
 3505TIP3    H134710   1.581   1.558  20.120  0.4380 -0.6846 -1.3806
 3505TIP3    H234711   1.568   1.708  20.109 -0.6324 -0.5130  1.3414
 3506TIP3   OH234712   6.562   2.152  18.546 -0.2035  0.3440 -0.1911
 3506TIP3    H134713   6.568   2.157  18.451  1.6188  0.7818 -0.0846
 3506TIP3    H234714   6.484   2.099  18.562  0.8341 -1.9125 -1.9885
 3507TIP3   OH234715   5.166   3.329  16.828 -0.0470  0.2180 -0.4571
 3507TIP3    H134716   5.128   3.292  16.749  0.9110 -1.0895 -0.3274
 3507TIP3    H234717   5.099   3.390  16.860 -0.7605  0.2051 -1.8421
 3508TIP3   OH234718   2.549   6.462  18.939 -0.0104  0.4628  0.3683
 3508TIP3    H134719   2.487   6.534  18.949 -1.1087 -0.5536  1.1443
 3508TIP3    H234720   2.626   6.489  18.989 -0.5542  0.9415  0.9632
 3509TIP3   OH234721   5.009   3.859  17.826 -0.1315 -0.0936  0.2079
 3509TIP3    H134722   4.970   3.844  17.913  0.5084 -2.1762  0.1797
 3509TIP3    H234723   5.096   3.821  17.832  0.3241  0.6980 -1.0581
 3510TIP3   OH234724   0.633   4.899  19.621 -0.0077 -0.0328  0.2744
 3510TIP3    H134725   0.674   4.817  19.593  0.3418  0.3688 -0.4178
 3510TIP3    H234726   0.700   4.966  19.604 -1.3591  0.8215 -2.0776
 3511TIP3   OH234727   1.946   1.259  18.570 -0.6565 -0.2344  0.6728
 3511TIP3    H134728   2.015   1.209  18.613 -1.0000 -1.0699  0.2697
 3511TIP3    H234729   1.993   1.327  18.521  0.1217 -2.2306 -1.5562
 3512TIP3   OH234730   5.349   3.148  19.324  0.2704  0.0557  0.3317
 3512TIP3    H134731   5.391   3.233  19.310  0.7063 -0.4503 -1.6260
 3512TIP3    H234732   5.296   3.133  19.246  0.5200 -1.6562  0.4484
 3513TIP3   OH234733   3.387   4.837  18.033  0.4834  0.0402  0.0611
 3513TIP3    H134734   3.412   4.769  17.970 -0.2234 -1.1624  1.0391
 3513TIP3    H234735   3.335   4.899  17.981 -0.1935 -0.9904 -0.5210
 3514TIP3   OH234736   1.443   6.630  17.836 -0.0571  0.1731  0.0054
 3514TIP3    H134737   1.437   6.535  17.823 -1.1657  0.1901  0.3389
 3514TIP3    H234738   1.503   6.659  17.768  1.4678 -0.9460  0.7910
 3515TIP3   OH234739   1.155   1.249  17.313  0.0237 -0.1515 -0.7447
 3515TIP3    H134740   1.131   1.231  17.404 -1.6250  1.5502 -0.7934
 3515TIP3    H234741   1.228   1.189  17.296 -0.7555 -1.7728  1.1278
 3516TIP3   OH234742   4.616   3.006  17.975  0.0455 -1.0445 -0.2807
 3516TIP3    H134743   4.622   2.914  17.950  0.3481 -1.3525  0.8372
 3516TIP3    H234744   4.686   3.017  18.040 -0.1067 -0.0725 -0.2652
 3517TIP3   OH234745   4.127   3.232  18.228 -0.2111  0.1065  0.2721
 3517TIP3    H134746   4.179   3.306  18.198 -0.9147  0.7233  0.5392
 3517TIP3    H234747   4.140   3.164  18.162  2.8748 -0.6981  1.5015
 3518TIP3   OH234748   6.687   0.682  16.355 -0.5146  0.0428 -0.4634
 3518TIP3    H134749   6.765   0.732  16.379 -0.9321  1.6395 -2.2242
 3518TIP3    H234750   6.721   0.602  16.315  0.1550 -0.6450  1.3530
 3519TIP3   OH234751   1.841   2.347  16.929 -0.3986 -0.4427  0.1729
 3519TIP3    H134752   1.753   2.385  16.924  0.2177  1.4977  2.3963
 3519TIP3    H234753   1.838   2.273  16.869 -2.5357  1.4825 -2.3266
 3520TIP3   OH234754   5.957   4.459  20.051  0.5135  0.1636  0.1499
 3520TIP3    H134755   5.939   4.531  20.111 -0.6630 -0.2110  0.2792
 3520TIP3    H234756   6.051   4.445  20.057  0.4698  0.3993  1.5910
 3521TIP3   OH234757   4.940   2.696  18.721 -0.2722  0.3034  0.7000
 3521TIP3    H134758   4.864   2.641  18.706 -0.3496  0.1089  1.6926
 3521TIP3    H234759   5.013   2.649  18.680 -0.6895  0.5141 -0.2903
 3522TIP3   OH234760   1.942   4.606  19.133  0.5263  0.4520  0.4264
 3522TIP3    H134761   1.857   4.628  19.095  0.9575  1.3418 -0.0539
 3522TIP3    H234762   1.996   4.582  19.059  0.2376 -1.8289  0.8788
 3523TIP3   OH234763   6.474   2.468  18.587 -0.8419  0.1256  0.1463
 3523TIP3    H134764   6.405   2.523  18.550 -1.1510 -0.5852 -0.3630
 3523TIP3    H234765   6.476   2.391  18.529  0.4768  0.2089  0.0669
 3524TIP3   OH234766   1.449   3.674  20.035 -0.1294 -0.4145 -0.3821
 3524TIP3    H134767   1.404   3.655  19.952  0.7269  0.7082 -1.1429
 3524TIP3    H234768   1.383   3.659  20.102 -2.0179  2.1108 -1.5150
 3525TIP3   OH234769   5.705   6.532  16.726  0.8442 -0.4177 -0.0742
 3525TIP3    H134770   5.734   6.577  16.647  1.5953 -0.2166  0.3012
 3525TIP3    H234771   5.698   6.602  16.792 -1.2988 -0.3249 -0.3383
 3526TIP3   OH234772   1.824   5.365  17.754 -0.0518 -0.2113  0.2422
 3526TIP3    H134773   1.809   5.422  17.679 -2.1876  0.5320  1.1448
 3526TIP3    H234774   1.780   5.410  17.827 -0.1139 -2.0684  1.4052
 3527TIP3   OH234775   3.355   2.768  16.516 -0.0575 -0.4448  0.1205
 3527TIP3    H134776   3.303   2.751  16.595 -0.2030 -0.1229  0.0915
 3527TIP3    H234777   3.291   2.776  16.446  0.0255  0.0426  0.1011
 3528TIP3   OH234778   3.417   6.340  19.147  0.2864 -0.0733  0.4042
 3528TIP3    H134779   3.498   6.370  19.106  0.5989 -0.3217  0.8288
 3528TIP3    H234780   3.371   6.293  19.078  0.4200  0.2283  0.1086
 3529TIP3   OH234781   2.098   6.262  18.517 -0.7053  0.1078  0.3811
 3529TIP3    H134782   2.140   6.260  18.432 -3.1729  0.3760 -0.9357
 3529TIP3    H234783   2.089   6.356  18.537 -0.9579  0.0604  0.4977
 3530TIP3   OH234784   2.144   3.991  17.500  0.4100  0.9165  0.1397
 3530TIP3    H134785   2.184   4.065  17.455  0.8951  1.3103  1.1933
 3530TIP3    H234786   2.105   4.028  17.579 -1.1567  0.3691 -0.3325
 3531TIP3   OH234787   2.785   3.230  17.313 -0.4294  0.9911 -0.3281
 3531TIP3    H134788   2.811   3.154  17.261  2.5165  1.1574  0.7072
 3531TIP3    H234789   2.839   3.302  17.277  0.4477  1.4620  1.7864
 3532TIP3   OH234790   6.705   6.728  17.821  0.3796 -0.1020  0.1179
 3532TIP3    H134791   6.627   6.778  17.846  0.7039  0.6045 -0.2580
 3532TIP3    H234792   6.699   6.647  17.872 -0.7430 -0.1842 -0.1018
 3533TIP3   OH234793   6.487   6.028  18.121  0.0685 -0.1887  0.0876
 3533TIP3    H134794   6.484   6.001  18.029 -0.0221 -0.0537  0.0513
 3533TIP3    H234795   6.403   6.071  18.137 -1.7787 -3.8876  1.3876
 3534TIP3   OH234796   4.204   1.148  18.426 -0.1786  0.9109  0.6620
 3534TIP3    H134797   4.246   1.136  18.341 -2.6552 -0.3054 -0.5328
 3534TIP3    H234798   4.241   1.080  18.481  0.3584  0.7069  0.0606
 3535TIP3   OH234799   4.388   3.663  18.471  0.3167 -0.9394 -0.2869
 3535TIP3    H134800   4.374   3.579  18.426 -1.8274 -0.7900 -0.0203
 3535TIP3    H234801   4.346   3.652  18.556  0.9997  0.0574  0.2042
 3536TIP3   OH234802   0.653   1.220  19.513  0.0320 -0.6492  0.3614
 3536TIP3    H134803   0.633   1.267  19.432 -0.1406 -0.2014  0.6562
 3536TIP3    H234804   0.682   1.134  19.484  0.0213 -0.4777 -0.1794
 3537TIP3   OH234805   5.731   2.885  18.638  0.1575  0.6647 -0.1678
 3537TIP3    H134806   5.775   2.850  18.715  2.5754  0.6449 -1.4917
 3537TIP3    H234807   5.777   2.967  18.619 -1.9977  1.9445 -0.2151
 3538TIP3   OH234808   0.950   5.603  17.222 -0.2476  0.2377  0.1340
 3538TIP3    H134809   0.857   5.618  17.240 -0.7111 -1.0560 -1.0124
 3538TIP3    H234810   0.951   5.562  17.135  1.4276  0.5482 -0.0235
 3539TIP3   OH234811   4.879   6.651  18.390  0.5019  0.0470 -0.6647
 3539TIP3    H134812   4.869   6.613  18.477  0.6854 -1.1120 -1.1340
 3539TIP3    H234813   4.826   6.731  18.392  1.5979  0.7914  0.9409
 3540TIP3   OH234814   5.184   3.535  16.550  0.1255 -0.1124 -0.8540
 3540TIP3    H134815   5.135   3.453  16.558 -0.7241  0.4611  0.0444
 3540TIP3    H234816   5.275   3.508  16.541  0.0406 -1.1484  0.8883
 3541TIP3   OH234817   0.004   2.667  17.095 -0.7783  0.4027  0.1397
 3541TIP3    H134818  -0.071   2.628  17.140 -0.2704  0.5921  1.1884
 3541TIP3    H234819   0.079   2.618  17.127 -0.5233 -0.4481 -1.6621
 3542TIP3   OH234820   2.248   6.514  18.129  0.2246  0.3503 -0.3472
 3542TIP3    H134821   2.297   6.477  18.202  0.6891 -0.2129 -0.9347
 3542TIP3    H234822   2.315   6.546  18.069 -0.1032 -0.7503 -1.3308
 3543TIP3   OH234823   1.707   5.655  19.737 -0.5040 -0.7638 -0.2735
 3543TIP3    H134824   1.783   5.698  19.776 -0.3261  0.2355 -1.6405
 3543TIP3    H234825   1.650   5.727  19.710 -1.1242 -1.4432 -0.8170
 3544TIP3   OH234826   4.959   0.573  19.392 -0.8988  0.0938  0.0028
 3544TIP3    H134827   4.962   0.481  19.367  0.3308  0.2987 -0.7232
 3544TIP3    H234828   5.044   0.590  19.432 -0.5202  1.2497 -1.2150
 3545TIP3   OH234829   2.989   2.618  18.871 -0.9744 -0.0680 -0.7811
 3545TIP3    H134830   2.943   2.599  18.953 -0.1744 -2.3908 -0.7871
 3545TIP3    H234831   3.036   2.537  18.851  0.8650  1.2660 -2.2337
 3546TIP3   OH234832   6.670   6.096  19.898 -0.3295  0.4110 -0.2660
 3546TIP3    H134833   6.651   6.187  19.873  1.9640  1.3901  1.2778
 3546TIP3    H234834   6.628   6.086  19.983  1.0489  0.6896  0.4621
 3547TIP3   OH234835   3.121   4.630  18.999 -0.0765  0.2888  0.2195
 3547TIP3    H134836   3.133   4.567  19.069 -1.5336  1.5471  1.6811
 3547TIP3    H234837   3.065   4.586  18.935 -0.7805 -0.0349  1.0451
 3548TIP3   OH234838   6.698   0.531  17.773 -0.3278  0.3176  0.2735
 3548TIP3    H134839   6.755   0.583  17.829 -0.6256  2.3088 -1.1567
 3548TIP3    H234840   6.616   0.523  17.822  0.1380  0.0822  1.0348
 3549TIP3   OH234841   0.263   6.062  17.358 -0.5639  0.0193 -0.6529
 3549TIP3    H134842   0.231   6.039  17.272 -3.6360 -1.6205  0.7802
 3549TIP3    H234843   0.187   6.097  17.404  0.8790  0.5491  1.5207
 3550TIP3   OH234844   0.475   3.055  18.844  0.3568  0.0599  0.2274
 3550TIP3    H134845   0.512   3.117  18.781 -3.3938  1.9224 -0.4363
 3550TIP3    H234846   0.518   3.076  18.927  2.1347  0.6666 -0.8036
 3551TIP3   OH234847   5.520   4.069  19.508 -0.1259 -0.2204  0.3406
 3551TIP3    H134848   5.476   4.112  19.581 -0.1052 -0.2624  0.3779
 3551TIP3    H234849   5.491   3.978  19.512  0.1603 -0.3035  0.5134
 3552TIP3   OH234850   1.983   2.421  17.135 -0.2748  0.0454  0.2762
 3552TIP3    H134851   1.953   2.410  17.044 -2.5922  0.7928  0.8652
 3552TIP3    H234852   1.902   2.431  17.185  0.8914 -1.4090  2.6132
 3553TIP3   OH234853   4.106   5.353  18.692  0.1137  0.1058  0.3162
 3553TIP3    H134854   4.072   5.411  18.624 -0.0196  0.8315  0.9721
 3553TIP3    H234855   4.121   5.270  18.649 -2.0052 -0.0978 -0.1336
 3554TIP3   OH234856   2.574   0.402  18.261 -0.5299 -0.7547  0.0394
 3554TIP3    H134857   2.593   0.316  18.300 -1.4426 -0.8361  0.3192
 3554TIP3    H234858   2.615   0.399  18.175 -0.7849 -1.5787 -0.0626
 3555TIP3   OH234859   3.800   0.593  19.208 -0.3159 -0.2160 -0.1299
 3555TIP3    H134860   3.789   0.498  19.200 -2.5585  0.0144 -0.3120
 3555TIP3    H234861   3.789   0.626  19.119  2.2427  0.1268 -0.3873
 3556TIP3   OH234862   3.225   3.390  18.649 -0.1374 -0.1983  0.0942
 3556TIP3    H134863   3.291   3.384  18.579 -0.3945  1.9216 -0.3924
 3556TIP3    H234864   3.141   3.391  18.603 -0.2939  1.6675  0.3332
 3557TIP3   OH234865   1.702   4.379  18.817  0.6283 -0.6537 -0.0934
 3557TIP3    H134866   1.719   4.295  18.860 -0.9197 -0.8322  0.2217
 3557TIP3    H234867   1.607   4.381  18.804  0.9610 -0.3786 -3.0915
 3558TIP3   OH234868   5.811   0.562  19.570  0.2822 -0.0709  0.1979
 3558TIP3    H134869   5.780   0.492  19.628  0.2661  0.9187  1.4379
 3558TIP3    H234870   5.906   0.551  19.567  0.1756 -0.9015 -0.6582
 3559TIP3   OH234871   5.678   5.432  18.018 -0.4996  0.3322 -0.8674
 3559TIP3    H134872   5.603   5.440  17.959 -1.0950 -0.1283 -0.1936
 3559TIP3    H234873   5.649   5.371  18.086 -0.2642  1.7313  0.5512
 3560TIP3   OH234874   0.506   6.546  19.464 -0.4549 -0.3420 -0.4993
 3560TIP3    H134875   0.582   6.494  19.490 -0.1897  0.3631  0.1791
 3560TIP3    H234876   0.432   6.503  19.507 -0.1883  0.0481  0.3767
 3561TIP3   OH234877   0.619   5.915  16.479  0.5568  0.7335 -0.5925
 3561TIP3    H134878   0.558   5.878  16.415  1.1553  1.8726 -1.8746
 3561TIP3    H234879   0.649   5.839  16.529 -1.0811  0.0143 -0.6255
 3562TIP3   OH234880   6.067   4.951  17.237  0.1742  0.3567 -0.2181
 3562TIP3    H134881   6.138   4.953  17.172 -0.5927  2.4637 -1.0647
 3562TIP3    H234882   5.988   4.968  17.186 -0.8928 -1.2489  0.8174
 3563TIP3   OH234883   1.189   4.303  19.005 -0.1194 -0.1330  0.5988
 3563TIP3    H134884   1.236   4.367  19.057 -0.0297 -1.1557  1.8277
 3563TIP3    H234885   1.126   4.263  19.066  0.0646 -1.4364 -0.0244
 3564TIP3   OH234886   2.717   4.656  18.676 -0.0268 -0.2993  0.6803
 3564TIP3    H134887   2.701   4.750  18.671 -0.6992 -0.4492 -0.0301
 3564TIP3    H234888   2.722   4.638  18.770  1.5307  0.6648  0.8245
 3565TIP3   OH234889   4.772   4.242  17.657 -0.9325 -0.0085  0.3982
 3565TIP3    H134890   4.767   4.147  17.666 -0.1118  0.0560  1.8544
 3565TIP3    H234891   4.796   4.273  17.744 -0.1831  1.4547 -0.2900
 3566TIP3   OH234892   0.216   3.578  16.858 -0.1966 -0.2386 -0.0720
 3566TIP3    H134893   0.129   3.614  16.844 -0.8370 -1.7458 -0.1566
 3566TIP3    H234894   0.266   3.605  16.781 -1.2660 -1.3288 -1.1845
 3567TIP3   OH234895   3.897   0.483  19.699 -0.1113  0.4861  0.1667
 3567TIP3    H134896   3.917   0.404  19.648  1.8432  0.5849  0.7006
 3567TIP3    H234897   3.816   0.461  19.747  1.6416 -2.1873  2.2046
 3568TIP3   OH234898   2.146   3.429  17.097 -0.7703  0.1957  0.0429
 3568TIP3    H134899   2.057   3.428  17.062 -0.5546 -1.1453 -0.5169
 3568TIP3    H234900   2.148   3.360  17.163 -0.0852  0.0382 -0.1281
 3569TIP3   OH234901   0.131   0.131  18.441  1.0180 -0.4035  0.3656
 3569TIP3    H134902   0.220   0.164  18.434  1.2254 -0.5575  1.9052
 3569TIP3    H234903   0.141   0.036  18.440  0.9928 -0.4313  1.5961
 3570TIP3   OH234904   3.555   3.826  19.350  0.1483 -0.2717 -0.3337
 3570TIP3    H134905   3.609   3.872  19.285  0.4108 -0.0537  0.0375
 3570TIP3    H234906   3.616   3.802  19.419 -0.1776 -0.2909 -0.0532
 3571TIP3   OH234907   2.387   3.668  18.275  0.1985  0.1248  0.1421
 3571TIP3    H134908   2.412   3.583  18.239  0.8597 -0.1521  1.1874
 3571TIP3    H234909   2.412   3.731  18.208  0.1434 -0.4684 -0.4458
 3572TIP3   OH234910   4.125   0.918  18.740 -0.2714 -0.3398 -0.3188
 3572TIP3    H134911   4.098   1.009  18.730  0.3149 -0.2064 -0.7429
 3572TIP3    H234912   4.043   0.870  18.752 -0.4969  0.3936  1.1924
 3573TIP3   OH234913   1.618   0.255  20.045  0.1475  0.0471 -0.0413
 3573TIP3    H134914   1.560   0.311  19.994 -0.1587 -1.2419 -1.1708
 3573TIP3    H234915   1.678   0.315  20.089 -1.1969  1.3299  0.0961
 3574TIP3   OH234916   3.486   4.349  18.389 -0.7100  0.7860 -0.1175
 3574TIP3    H134917   3.555   4.313  18.333 -0.9344  1.1698 -0.6499
 3574TIP3    H234918   3.414   4.287  18.381 -1.6173  2.0172 -2.1439
 3575TIP3   OH234919   2.416   1.744  17.279  0.0480  0.2125 -0.0927
 3575TIP3    H134920   2.424   1.701  17.364 -2.3930 -0.4921 -0.1538
 3575TIP3    H234921   2.411   1.838  17.300  1.5901  0.2315  0.3256
 3576TIP3   OH234922   2.053   3.614  19.055 -0.7275  0.2630 -0.0058
 3576TIP3    H134923   1.973   3.632  19.104 -1.2662 -0.0542 -0.7466
 3576TIP3    H234924   2.068   3.692  19.003 -0.8691  0.1052 -0.2842
 3577TIP3   OH234925   1.075   4.228  16.338 -0.3818  0.1015  0.4752
 3577TIP3    H134926   0.987   4.252  16.368 -1.3059  1.5625 -2.9200
 3577TIP3    H234927   1.098   4.296  16.275  2.6501 -1.0061  0.2385
 3578TIP3   OH234928   1.307   0.439  19.475  0.0340  0.1405  0.3432
 3578TIP3    H134929   1.296   0.449  19.381 -0.5769  2.6503  0.6229
 3578TIP3    H234930   1.224   0.401  19.506  0.5360 -1.4656 -0.1703
 3579TIP3   OH234931   4.191   1.418  19.273  0.0642 -0.0015  0.4557
 3579TIP3    H134932   4.210   1.485  19.339 -1.1469 -0.4316  1.2760
 3579TIP3    H234933   4.255   1.434  19.203 -0.1753  1.9892  0.6393
 3580TIP3   OH234934   4.848   3.830  18.741 -0.2462  0.4801 -0.8195
 3580TIP3    H134935   4.768   3.864  18.782 -1.4626 -0.9455 -1.8880
 3580TIP3    H234936   4.910   3.902  18.747 -1.1765  1.1964  1.2089
 3581TIP3   OH234937   3.068   5.557  19.455  0.1672  0.1043 -0.1665
 3581TIP3    H134938   3.022   5.540  19.373 -0.7183  0.1758  0.3022
 3581TIP3    H234939   3.161   5.553  19.432 -0.0112 -2.1997 -0.6984
 3582TIP3   OH234940   6.612   2.518  17.216  0.0895 -0.6177 -0.4780
 3582TIP3    H134941   6.545   2.454  17.190 -1.2130  0.2220  0.6350
 3582TIP3    H234942   6.614   2.511  17.312 -1.2793  2.0742 -0.1625
 3583TIP3   OH234943   1.541   3.655  17.769  0.1659  0.1551 -0.2560
 3583TIP3    H134944   1.576   3.744  17.776  0.4165  0.1208 -0.9512
 3583TIP3    H234945   1.480   3.648  17.842  0.5604  0.7047  0.1399
 3584TIP3   OH234946   4.019   0.497  16.978  0.0847 -0.9575  0.1768
 3584TIP3    H134947   3.978   0.491  17.064  1.0739 -0.0782  0.7292
 3584TIP3    H234948   4.108   0.465  16.991  0.3669 -0.4373 -0.4204
 3585TIP3   OH234949   5.303   1.012  16.694 -0.4197  0.2810  0.1127
 3585TIP3    H134950   5.359   1.047  16.764  0.8638  1.0701 -1.2498
 3585TIP3    H234951   5.343   1.045  16.613 -1.0636 -1.7045 -1.0827
 3586TIP3   OH234952   3.704   5.872  20.114  0.1181  0.6608  0.1295
 3586TIP3    H134953   3.684   5.950  20.062 -0.8356  0.0504 -0.4715
 3586TIP3    H234954   3.794   5.884  20.143  0.5018  1.2758 -1.2303
 3587TIP3   OH234955   1.188   5.924  19.324  0.5445 -0.3340  0.3607
 3587TIP3    H134956   1.167   5.991  19.390 -0.6408  0.5387 -0.8406
 3587TIP3    H234957   1.229   5.973  19.253  1.2649 -1.1710  0.1874
 3588TIP3   OH234958   0.270   0.854  17.741 -0.4127  0.5858  0.1218
 3588TIP3    H134959   0.229   0.937  17.765  1.1798  1.3229  0.3946
 3588TIP3    H234960   0.211   0.787  17.777 -1.1665  1.6044  0.8335
 3589TIP3   OH234961   3.605   1.657  18.530  0.2228 -0.7071 -0.3108
 3589TIP3    H134962   3.589   1.735  18.477  0.3057 -1.8458 -2.1259
 3589TIP3    H234963   3.567   1.677  18.615  0.1332  1.2466 -0.7541
 3590TIP3   OH234964   3.361   4.714  20.161  0.1623  0.0774 -0.1196
 3590TIP3    H134965   3.370   4.721  20.256  1.3805 -0.7100 -0.1524
 3590TIP3    H234966   3.280   4.761  20.141  0.1299  0.6516  1.2484
 3591TIP3   OH234967   5.195   0.485  18.054 -0.2829 -0.3545  0.4468
 3591TIP3    H134968   5.278   0.511  18.015  0.1399 -0.9023  0.9710
 3591TIP3    H234969   5.200   0.389  18.062 -1.0914 -0.4314  0.1874
 3592TIP3   OH234970   0.356   5.602  19.606  0.0560 -0.5173  0.0232
 3592TIP3    H134971   0.356   5.692  19.638 -0.6051  0.1009 -1.5659
 3592TIP3    H234972   0.308   5.553  19.672 -2.0049  0.8498 -0.3567
 3593TIP3   OH234973   1.746   6.396  17.936  0.2394 -0.7459 -0.0476
 3593TIP3    H134974   1.704   6.314  17.910  0.4439 -0.4476 -1.4480
 3593TIP3    H234975   1.808   6.372  18.004 -0.2914 -1.6185  0.1384
 3594TIP3   OH234976   3.081   1.748  19.820 -0.0375 -0.5048 -0.5547
 3594TIP3    H134977   3.076   1.837  19.785  0.4428 -1.1697 -2.4643
 3594TIP3    H234978   3.051   1.755  19.910  2.7919  2.1099  0.3434
 3595TIP3   OH234979   0.447   3.065  17.941 -0.6816 -0.0076  0.7650
 3595TIP3    H134980   0.508   3.112  17.885 -1.6250  1.6303  1.0331
 3595TIP3    H234981   0.501   3.005  17.991  0.8003  1.6562  1.2812
 3596TIP3   OH234982   5.825   2.188  19.494 -0.6593 -0.7283 -0.0412
 3596TIP3    H134983   5.863   2.275  19.485  0.7000 -1.2497  0.4472
 3596TIP3    H234984   5.770   2.177  19.416 -2.7646  1.4562  1.0188
 3597TIP3   OH234985   5.505   2.134  19.817 -0.2320  0.4999  0.2123
 3597TIP3    H134986   5.596   2.108  19.802 -0.6370 -1.8351  1.2776
 3597TIP3    H234987   5.455   2.084  19.752 -0.7880  1.4715 -0.1212
 3598TIP3   OH234988   1.285   3.392  17.409  0.6180 -0.2165 -0.5414
 3598TIP3    H134989   1.276   3.426  17.320 -0.4166  2.5161  0.4988
 3598TIP3    H234990   1.294   3.470  17.463  0.0196 -1.7430  1.8931
 3599TIP3   OH234991   0.735   1.033  16.726 -0.0949 -0.1696 -0.4684
 3599TIP3    H134992   0.774   1.012  16.641  1.1123  2.6821 -0.7053
 3599TIP3    H234993   0.641   1.024  16.712 -0.0331  1.6498 -2.6068
 3600TIP3   OH234994   1.085   6.418  17.893  0.1920  0.0335 -0.5119
 3600TIP3    H134995   1.063   6.476  17.965  1.8110  1.0610 -0.7890
 3600TIP3    H234996   1.030   6.341  17.906 -1.9717  1.5572 -0.0794
 3601TIP3   OH234997   5.062   5.369  16.463  0.3585 -0.5384 -0.2472
 3601TIP3    H134998   5.029   5.281  16.445  1.1338 -1.2235  1.4663
 3601TIP3    H234999   4.994   5.410  16.515  0.1702 -0.2475 -0.7143
 3602TIP3   OH235000   2.759   0.496  18.687 -0.3424  0.6118  0.1254
 3602TIP3    H135001   2.682   0.470  18.637  0.0900  0.6578 -0.5675
 3602TIP3    H235002   2.832   0.449  18.647  0.0721  0.9695  0.4417
 3603TIP3   OH235003   2.742   4.883  17.703  0.3869  0.1190  0.1169
 3603TIP3    H135004   2.717   4.870  17.794 -1.0920 -0.8069 -0.3718
 3603TIP3    H235005   2.714   4.972  17.682 -0.0097  0.0528  0.3592
 3604TIP3   OH235006   2.829   6.054  19.916 -0.3743 -0.0457 -0.3778
 3604TIP3    H135007   2.795   6.101  19.992 -1.5859 -0.1475 -0.8457
 3604TIP3    H235008   2.841   6.122  19.850  0.6599  0.0392 -0.1280
 3605TIP3   OH235009   1.642   1.684  16.641 -0.0047 -0.1441 -0.4596
 3605TIP3    H135010   1.550   1.678  16.615  0.1673 -1.5295 -0.7872
 3605TIP3    H235011   1.686   1.721  16.564 -0.3359  0.9305 -0.1491
 3606TIP3   OH235012   5.198   5.433  17.625  0.2062  0.3978  0.6105
 3606TIP3    H135013   5.181   5.344  17.592  0.4980  0.9507 -1.1309
 3606TIP3    H235014   5.257   5.471  17.560 -0.2710  2.0225  1.1031
 3607TIP3   OH235015   5.188   6.460  19.092 -0.4632 -0.2412  0.1815
 3607TIP3    H135016   5.217   6.426  19.176  0.1078 -0.7533 -0.2173
 3607TIP3    H235017   5.243   6.416  19.028  0.7141  1.8614 -0.3424
 3608TIP3   OH235018   4.364   3.071  19.452 -0.1547 -0.7508  0.3296
 3608TIP3    H135019   4.366   2.975  19.451 -1.9545 -0.8294 -1.0513
 3608TIP3    H235020   4.282   3.093  19.497 -0.0289  0.1169  0.1530
 3609TIP3   OH235021   5.090   1.194  16.977  0.4400 -0.6021 -0.0318
 3609TIP3    H135022   5.085   1.230  16.888 -0.7600 -1.1002 -0.1877
 3609TIP3    H235023   5.040   1.256  17.030  4.1970  1.7756  1.0828
 3610TIP3   OH235024   1.168   2.542  18.546 -0.2540 -0.3799 -0.0231
 3610TIP3    H135025   1.115   2.487  18.604 -0.2424 -0.8647 -0.4644
 3610TIP3    H235026   1.255   2.501  18.546  0.5653  1.1985  1.8051
 3611TIP3   OH235027   1.365   2.014  17.094  0.3411 -0.3669 -0.3807
 3611TIP3    H135028   1.446   2.057  17.066  1.2003 -1.5466  0.2221
 3611TIP3    H235029   1.314   2.005  17.014  0.7781  0.4324 -0.7661
 3612TIP3   OH235030   4.683   2.174  18.971 -0.3349 -0.1107  0.1416
 3612TIP3    H135031   4.674   2.084  19.002  0.4360  0.0248  0.8031
 3612TIP3    H235032   4.644   2.228  19.040 -0.0363  0.1047  0.1443
 3613TIP3   OH235033   3.557   1.032  17.588 -0.6620  0.2563 -0.3732
 3613TIP3    H135034   3.597   1.110  17.626 -0.6659  0.4193 -0.7002
 3613TIP3    H235035   3.629   0.985  17.546 -0.8035  0.5357 -0.9382
 3614TIP3   OH235036   4.036   2.619  18.488 -0.1261  0.2085  0.3043
 3614TIP3    H135037   4.089   2.558  18.540  0.5767 -0.7870 -1.4780
 3614TIP3    H235038   3.947   2.584  18.494  0.2445 -0.9518 -0.5664
 3615TIP3   OH235039   2.947   0.023  18.746  0.0460  0.1688 -0.0304
 3615TIP3    H135040   2.874  -0.039  18.751 -0.8520  1.1138 -0.8832
 3615TIP3    H235041   3.012  -0.020  18.690  0.6076 -1.1041  1.5452
 3616TIP3   OH235042   2.008   5.156  19.771  0.5001  0.0352 -0.0674
 3616TIP3    H135043   2.028   5.226  19.708 -1.7822  2.4768  1.6929
 3616TIP3    H235044   2.081   5.156  19.832 -0.3003  2.3822  1.0176
 3617TIP3   OH235045   5.636   0.718  19.425  0.2662  0.4648  0.3947
 3617TIP3    H135046   5.667   0.667  19.499  2.4122 -0.5465 -1.1092
 3617TIP3    H235047   5.655   0.809  19.448  0.7807  0.1719  1.1486
 3618TIP3   OH235048   3.733   6.724  17.342 -0.1541  0.2951  0.3562
 3618TIP3    H135049   3.677   6.665  17.391 -0.7253  1.2229  0.8458
 3618TIP3    H235050   3.769   6.783  17.408  0.3039  0.5747 -0.1377
 3619TIP3   OH235051   6.407   5.092  18.138  0.2984  0.1143  0.8738
 3619TIP3    H135052   6.443   5.003  18.141 -1.7580 -0.7611  1.3732
 3619TIP3    H235053   6.403   5.113  18.045  1.1511 -0.1416  0.7693
 3620TIP3   OH235054   2.760   1.976  19.211 -0.3728 -0.4354 -0.4482
 3620TIP3    H135055   2.694   1.906  19.214 -1.1668  0.3048 -0.1618
 3620TIP3    H235056   2.838   1.938  19.251 -0.8562 -1.1004 -0.1246
 3621TIP3   OH235057   0.817   0.363  17.482  0.2032  0.1982  0.3916
 3621TIP3    H135058   0.792   0.429  17.418  1.5908 -0.7865 -1.2799
 3621TIP3    H235059   0.738   0.312  17.498 -0.0277  0.0474 -1.1140
 3622TIP3   OH235060   2.017   1.460  17.823  0.2160  0.1029 -0.0524
 3622TIP3    H135061   2.078   1.428  17.757  0.3933 -0.0922  0.2030
 3622TIP3    H235062   2.031   1.403  17.899  0.3259  0.5962  0.3065
 3623TIP3   OH235063   3.535   3.470  19.885 -0.2326  0.1561  0.3832
 3623TIP3    H135064   3.475   3.396  19.878  0.0606  0.0825 -2.1738
 3623TIP3    H235065   3.482   3.540  19.924 -0.8048 -1.0336  1.8487
 3624TIP3   OH235066   3.280   3.901  19.443  0.5622 -0.2825 -0.0113
 3624TIP3    H135067   3.356   3.875  19.392  1.1347  2.5942 -0.8391
 3624TIP3    H235068   3.205   3.873  19.392  1.1047 -0.5568 -0.6643
 3625TIP3   OH235069   1.770   6.446  19.264 -0.3736  0.7126 -0.2221
 3625TIP3    H135070   1.808   6.498  19.193 -2.8505  2.3041 -0.5073
 3625TIP3    H235071   1.676   6.468  19.262 -1.3331 -2.6878  0.5981
 3626TIP3   OH235072   4.259   1.676  19.390  0.3648 -0.0803  0.0001
 3626TIP3    H135073   4.282   1.768  19.376  0.7549 -0.2751 -0.6644
 3626TIP3    H235074   4.317   1.647  19.460 -1.0678  0.6866  1.6113
 3627TIP3   OH235075   4.128   3.349  19.639  0.0736  0.2668  0.3199
 3627TIP3    H135076   4.221   3.344  19.659  0.2419 -0.8593 -0.6312
 3627TIP3    H235077   4.095   3.260  19.650 -0.6312  0.4060 -0.5021
 3628TIP3   OH235078   0.538   1.414  17.353  0.3237  0.1794  0.3346
 3628TIP3    H135079   0.551   1.333  17.303 -1.2185 -0.9717  1.6711
 3628TIP3    H235080   0.615   1.422  17.408  0.5430 -0.3150  0.1030
 3629TIP3   OH235081   3.739   1.961  18.154  0.1514  0.1287 -0.2553
 3629TIP3    H135082   3.663   1.991  18.104  1.0983  3.3894  0.0250
 3629TIP3    H235083   3.705   1.891  18.210 -1.9563 -0.4236 -2.0804
 3630TIP3   OH235084   2.903   1.266  18.948 -0.1550 -0.6119  0.1144
 3630TIP3    H135085   2.879   1.275  19.040  1.2658  0.9773  0.3898
 3630TIP3    H235086   2.904   1.172  18.932 -2.2320 -0.8551  1.1931
 3631TIP3   OH235087   5.905   4.191  19.944 -1.2168  0.3186 -0.3501
 3631TIP3    H135088   5.996   4.166  19.960 -1.8250 -1.6570  0.2986
 3631TIP3    H235089   5.886   4.257  20.010 -1.0834 -1.3558  1.4295
 3632TIP3   OH235090   2.550   1.117  17.530  0.6616 -0.0131 -0.6884
 3632TIP3    H135091   2.566   1.086  17.619 -4.3158 -0.9152  0.1963
 3632TIP3    H235092   2.556   1.213  17.536 -2.1273  0.1445  1.4535
 3633TIP3   OH235093   3.284   1.257  17.940 -0.0141  0.0996  0.2912
 3633TIP3    H135094   3.370   1.217  17.947 -0.6644 -1.6603 -0.9351
 3633TIP3    H235095   3.275   1.309  18.020  2.8384  1.7921 -0.3426
 3634TIP3   OH235096   3.006   5.154  18.330 -0.0400  0.1279 -0.1308
 3634TIP3    H135097   3.079   5.215  18.342 -0.8918  1.0888  0.3125
 3634TIP3    H235098   3.036   5.072  18.369  0.9651  0.3813 -0.3531
 3635TIP3   OH235099   4.464   5.219  17.428  0.0337  0.1641  0.6390
 3635TIP3    H135100   4.556   5.226  17.399  0.9750 -0.5887  3.1994
 3635TIP3    H235101   4.449   5.297  17.481 -0.4922 -0.1984  1.0340
 3636TIP3   OH235102   6.470   1.565  18.748 -0.1271  0.3057  0.4004
 3636TIP3    H135103   6.476   1.472  18.770 -0.6474  0.4650  1.2405
 3636TIP3    H235104   6.558   1.599  18.764  0.5797 -0.3780 -1.6367
 3637TIP3   OH235105   3.413   6.192  18.697 -0.1121 -0.4716 -0.1182
 3637TIP3    H135106   3.403   6.144  18.615  0.7359  1.2121 -1.2555
 3637TIP3    H235107   3.491   6.246  18.684 -0.0745 -0.0052  1.7288
 3638TIP3   OH235108   0.322   1.417  17.057  0.2048 -0.1661 -0.4899
 3638TIP3    H135109   0.252   1.476  17.027  0.8962  1.1657  0.3848
 3638TIP3    H235110   0.279   1.360  17.121 -0.4149 -0.4391 -1.1267
 3639TIP3   OH235111   1.872   4.491  18.040 -0.2152 -0.6112  0.2865
 3639TIP3    H135112   1.872   4.548  18.117 -0.7451 -1.5872  1.0317
 3639TIP3    H235113   1.832   4.544  17.971  0.7296  0.4529  0.5333
 3640TIP3   OH235114   4.384   5.605  18.438  0.0338  0.0133 -0.3436
 3640TIP3    H135115   4.458   5.555  18.473  0.5821  1.4075  0.5564
 3640TIP3    H235116   4.415   5.636  18.353  0.1324 -0.1858 -0.3810
 3641TIP3   OH235117   3.420   2.366  17.294 -0.0787 -0.0576  0.4742
 3641TIP3    H135118   3.336   2.381  17.250 -0.2321 -1.4548  0.2181
 3641TIP3    H235119   3.403   2.291  17.351  0.6794  0.4327  1.3686
 3642TIP3   OH235120   0.887   3.367  19.249 -0.3100 -0.2555 -0.5440
 3642TIP3    H135121   0.888   3.373  19.153  1.0821  1.5952 -0.4780
 3642TIP3    H235122   0.977   3.342  19.272  0.1472  1.9827  0.3305
 3643TIP3   OH235123   3.382   6.483  17.654  0.1504  0.2269  0.3086
 3643TIP3    H135124   3.351   6.393  17.669  0.3066  0.2553  0.8245
 3643TIP3    H235125   3.302   6.535  17.648  0.0694  0.1728  0.8150
 3644TIP3   OH235126   2.084   0.724  18.020  0.1380 -0.1935 -0.0934
 3644TIP3    H135127   2.120   0.686  18.099  0.3722  1.1844  0.4915
 3644TIP3    H235128   2.101   0.659  17.952  0.3419 -1.1954  0.8914
 3645TIP3   OH235129   4.282   4.565  17.645  0.3367  0.3981  0.0772
 3645TIP3    H135130   4.223   4.637  17.668  0.0011 -0.0174  0.5499
 3645TIP3    H235131   4.335   4.599  17.574  0.0462  1.0460  0.1627
 3646TIP3   OH235132   3.290   5.403  17.726 -0.1295 -0.1506 -0.2501
 3646TIP3    H135133   3.379   5.419  17.694 -1.0048  0.5116 -2.6097
 3646TIP3    H235134   3.249   5.350  17.657 -2.4378  2.1608 -0.8219
 3647TIP3   OH235135   3.697   4.000  20.095 -0.2142  0.1284  0.2032
 3647TIP3    H135136   3.665   3.932  20.153  0.2254  0.6529  1.0929
 3647TIP3    H235137   3.634   4.072  20.105 -0.0749  0.2625  0.1321
 3648TIP3   OH235138   4.498   5.346  19.511 -0.5572  0.7594 -0.2256
 3648TIP3    H135139   4.477   5.269  19.563  1.4981 -0.7236 -1.4803
 3648TIP3    H235140   4.415   5.370  19.469 -1.9527  1.2198  2.5874
 3649TIP3   OH235141   4.212   5.492  19.797 -0.4491 -0.7735 -0.0858
 3649TIP3    H135142   4.159   5.565  19.828 -2.0963 -1.3924 -1.2966
 3649TIP3    H235143   4.276   5.531  19.738 -0.3982 -0.1525  0.3758
 3650TIP3   OH235144   0.169   5.533  19.398  0.5938 -0.1814  0.0356
 3650TIP3    H135145   0.248   5.524  19.453  0.7214  1.8210  0.2513
 3650TIP3    H235146   0.199   5.580  19.320 -0.5060  1.3435  0.4863
 3651TIP3   OH235147   0.325   0.375  17.784  0.0851 -0.7834 -0.2501
 3651TIP3    H135148   0.338   0.290  17.827  0.0419 -1.0770 -0.8164
 3651TIP3    H235149   0.366   0.438  17.844  1.4365 -1.3573 -0.5362
 3652TIP3   OH235150   6.293   6.615  16.925  0.2688  0.5601  0.6469
 3652TIP3    H135151   6.298   6.707  16.899  0.2536  1.1421  2.5463
 3652TIP3    H235152   6.365   6.604  16.986  0.1534 -0.6609  0.5757
 3653TIP3   OH235153   0.516   0.106  19.106  0.2528 -0.1402 -0.0277
 3653TIP3    H135154   0.521   0.200  19.124 -0.9321  0.3682 -2.0147
 3653TIP3    H235155   0.606   0.080  19.089  0.4579  0.9097 -0.6272
 3654TIP3   OH235156   6.058   2.834  19.143 -0.0605  0.2299  0.7654
 3654TIP3    H135157   5.985   2.839  19.204 -0.9375  1.2820 -0.3148
 3654TIP3    H235158   6.102   2.919  19.150  0.4296 -0.0113  0.6597
 3655TIP3   OH235159   4.686   0.434  17.097 -0.5851 -0.2320  0.4053
 3655TIP3    H135160   4.712   0.452  17.007 -0.8303 -0.1719  0.3454
 3655TIP3    H235161   4.760   0.387  17.134 -0.2044  0.3180  0.3687
 3656TIP3   OH235162   4.245   5.034  16.926  0.1071  0.2099  0.1931
 3656TIP3    H135163   4.289   5.114  16.954 -0.4210  1.2315 -1.7153
 3656TIP3    H235164   4.155   5.044  16.955 -0.2888  0.9803 -1.2106
 3657TIP3   OH235165   4.465   5.581  19.661  0.3781  0.6752 -0.5488
 3657TIP3    H135166   4.519   5.537  19.728 -0.8240  1.5967  1.1112
 3657TIP3    H235167   4.458   5.517  19.590  2.8113  0.1673 -0.4064
 3658TIP3   OH235168   6.514   4.560  17.602 -0.5681 -0.3654 -0.2716
 3658TIP3    H135169   6.474   4.541  17.687  1.2777 -0.3058  0.6493
 3658TIP3    H235170   6.473   4.641  17.573 -0.4939  0.1540  1.0396
 3659TIP3   OH235171   4.559   1.983  19.636  0.6073 -0.5450  0.1383
 3659TIP3    H135172   4.518   2.031  19.707  1.3926 -0.1410  0.3347
 3659TIP3    H235173   4.491   1.976  19.569  0.8717  2.2138 -0.5556
 3660TIP3   OH235174   1.931   1.573  17.324  0.1438  0.2564 -0.2606
 3660TIP3    H135175   1.904   1.665  17.324  0.6255  0.4263  1.6485
 3660TIP3    H235176   2.001   1.569  17.259 -1.9429  0.5376 -2.6832
 3661TIP3   OH235177   1.815   0.275  19.064  0.1606  0.7272  0.0559
 3661TIP3    H135178   1.728   0.259  19.100 -0.6815  3.9303 -0.2779
 3661TIP3    H235179   1.874   0.263  19.138 -0.6724 -0.2227  0.5983
 3662TIP3   OH235180   0.736   5.235  18.629 -0.0127 -0.2483 -0.1449
 3662TIP3    H135181   0.782   5.197  18.554  0.6416  0.9540 -0.3725
 3662TIP3    H235182   0.650   5.260  18.594  0.7472  1.5099 -0.8754
 3663TIP3   OH235183   4.837   3.769  19.582 -0.4196 -0.5689 -0.3324
 3663TIP3    H135184   4.836   3.675  19.564 -0.1475 -0.6290 -0.0344
 3663TIP3    H235185   4.873   3.808  19.502  0.1888 -0.7823 -0.1687
 3664TIP3   OH235186   3.577   0.595  17.065  0.0153 -0.7015 -0.6781
 3664TIP3    H135187   3.615   0.651  16.997  0.3453 -0.1305 -0.0317
 3664TIP3    H235188   3.648   0.580  17.126 -0.8139  0.5339  0.6523
 3665TIP3   OH235189   3.758   5.449  17.451 -0.2545  0.5953  0.0815
 3665TIP3    H135190   3.704   5.369  17.455 -0.1506  0.2576 -3.1625
 3665TIP3    H235191   3.810   5.445  17.531 -0.8860 -2.1398  0.4854
 3666TIP3   OH235192   4.280   1.916  19.891 -0.7249 -0.1942  0.3220
 3666TIP3    H135193   4.267   1.854  19.820 -0.3592 -0.3116  0.3569
 3666TIP3    H235194   4.192   1.951  19.909 -1.1494 -1.6071  1.1369
 3667TIP3   OH235195   3.074   2.810  20.164 -0.0372 -0.3678  0.2768
 3667TIP3    H135196   3.087   2.735  20.223  2.2400  0.6948  1.2761
 3667TIP3    H235197   3.019   2.870  20.213 -0.0096 -0.4500  0.4105
 3668TIP3   OH235198   3.821   6.469  17.706  0.0089  0.0656  0.4915
 3668TIP3    H135199   3.742   6.520  17.726 -0.4017  0.6292 -2.2021
 3668TIP3    H235200   3.881   6.490  17.777 -1.7094  0.8109  1.8260
 3669TIP3   OH235201   5.791   6.504  18.425 -0.2748 -0.2177  0.2406
 3669TIP3    H135202   5.882   6.532  18.416  0.2780 -2.0852 -0.4466
 3669TIP3    H235203   5.748   6.535  18.346 -0.1441  0.3255  0.3808
 3670TIP3   OH235204   3.205   5.973  19.103 -0.3300  0.3135 -0.6782
 3670TIP3    H135205   3.143   6.040  19.134  1.2667  2.1197 -1.2263
 3670TIP3    H235206   3.204   5.908  19.173 -3.0931  0.0481 -0.8253
 3671TIP3   OH235207   6.281   0.314  19.082  0.3309 -0.3464  0.1237
 3671TIP3    H135208   6.289   0.297  18.988 -0.9276 -0.8616  0.0878
 3671TIP3    H235209   6.372   0.312  19.114  0.8062  0.1787 -1.1232
 3672TIP3   OH235210   0.751   2.503  17.182 -0.0371 -0.1040  0.0723
 3672TIP3    H135211   0.787   2.549  17.105  0.4417 -0.1881  0.2456
 3672TIP3    H235212   0.691   2.438  17.145 -1.0418  0.9223 -0.1693
 3673TIP3   OH235213   4.460   3.514  17.346 -0.3587  0.6200 -0.2999
 3673TIP3    H135214   4.449   3.584  17.411 -0.1439  1.0603 -0.7265
 3673TIP3    H235215   4.499   3.558  17.271  0.5874 -0.1461 -0.2634
 3674TIP3   OH235216   3.339   0.523  18.685 -0.0107  0.0801  0.3768
 3674TIP3    H135217   3.393   0.531  18.607  0.3823 -0.8891  0.5341
 3674TIP3    H235218   3.273   0.592  18.676 -1.2638 -1.3141 -1.8197
 3675TIP3   OH235219   3.832   2.671  19.205 -0.0981 -0.1577  0.0897
 3675TIP3    H135220   3.875   2.676  19.120 -0.1679 -0.7143  0.0193
 3675TIP3    H235221   3.741   2.647  19.185 -0.3963  0.7763  0.2566
 3676TIP3   OH235222   5.376   3.413  19.265  0.2883  0.2012 -0.1761
 3676TIP3    H135223   5.293   3.459  19.279  1.2297  1.8474  0.2261
 3676TIP3    H235224   5.405   3.441  19.178  0.4894 -0.2576 -0.2577
 3677TIP3   OH235225   6.794   5.803  19.617 -0.2396  0.6014  0.4307
 3677TIP3    H135226   6.863   5.868  19.606 -0.9296  1.3944  0.6945
 3677TIP3    H235227   6.730   5.823  19.548 -0.1550 -0.2036  0.1093
 3678TIP3   OH235228   2.238   1.128  19.026 -0.1828  0.0627  0.0988
 3678TIP3    H135229   2.160   1.073  19.030 -2.8758  3.4044 -0.8267
 3678TIP3    H235230   2.272   1.117  18.938  0.8684 -1.9007  0.7086
 3679TIP3   OH235231   4.421   2.559  19.911  0.0255  0.0675 -0.2051
 3679TIP3    H135232   4.479   2.566  19.986 -1.0277 -1.2429  0.7845
 3679TIP3    H235233   4.470   2.508  19.847  0.2857 -0.2907  0.2808
 3680TIP3   OH235234   2.537   3.562  19.675 -0.0138  0.1724 -0.3408
 3680TIP3    H135235   2.444   3.569  19.651 -0.0661 -3.4130 -1.8485
 3680TIP3    H235236   2.582   3.548  19.591  1.4345 -1.1820  0.5965
 3681TIP3   OH235237   1.849   5.241  19.458 -0.5810  0.4985 -0.1221
 3681TIP3    H135238   1.765   5.262  19.417 -0.3402 -0.5016 -1.1665
 3681TIP3    H235239   1.867   5.316  19.514 -2.2054  0.7095  0.1943
 3682TIP3   OH235240   3.226   2.006  19.730 -0.0967  0.1650 -0.0582
 3682TIP3    H135241   3.319   2.028  19.719  0.4217 -2.1066 -0.7041
 3682TIP3    H235242   3.181   2.065  19.670  0.7961  1.9810  0.9710
 3683TIP3   OH235243   3.107   6.227  17.535 -0.1209  0.8865 -0.1302
 3683TIP3    H135244   3.202   6.219  17.537 -0.2300 -0.9318 -0.1523
 3683TIP3    H235245   3.081   6.194  17.448 -0.6854  3.0132 -0.8258
 3684TIP3   OH235246   0.179   3.370  20.052  0.2167  0.0076  0.5459
 3684TIP3    H135247   0.102   3.336  20.097  0.9271 -0.7964  1.2073
 3684TIP3    H235248   0.250   3.358  20.115  1.1343 -0.6391 -0.5716
 3685TIP3   OH235249   0.340   4.462  19.062 -0.6150 -0.6153 -0.5322
 3685TIP3    H135250   0.385   4.444  19.144  1.7890 -1.6104 -1.9647
 3685TIP3    H235251   0.341   4.558  19.055 -1.5772 -0.4707  0.9253
 3686TIP3   OH235252   0.102   5.683  18.100 -0.5140  0.0809 -0.0492
 3686TIP3    H135253   0.061   5.744  18.039 -0.2458  1.7428  1.3535
 3686TIP3    H235254   0.184   5.658  18.058 -1.4446 -0.7612 -1.4415
 3687TIP3   OH235255   5.782   1.041  18.097  0.5479  0.4301 -0.4845
 3687TIP3    H135256   5.717   0.987  18.052  0.4106 -0.1016  0.3431
 3687TIP3    H235257   5.812   1.102  18.030 -0.7356  0.6248 -0.9052
 3688TIP3   OH235258   2.629   1.908  18.149 -0.1024 -0.1782  0.2894
 3688TIP3    H135259   2.552   1.873  18.105  1.0509  1.4858 -3.4220
 3688TIP3    H235260   2.703   1.882  18.094  1.6624  0.8934  2.0214
 3689TIP3   OH235261   2.197   3.438  18.897  0.5396 -0.2473 -0.1537
 3689TIP3    H135262   2.163   3.519  18.936  0.3933 -0.8741  1.0590
 3689TIP3    H235263   2.256   3.402  18.963  3.2984  0.5467 -2.0149
 3690TIP3   OH235264   6.416   2.297  18.364  0.0152 -0.7734 -0.4059
 3690TIP3    H135265   6.328   2.259  18.368 -0.2753 -0.0761  0.0396
 3690TIP3    H235266   6.439   2.295  18.271 -1.2564  0.7457 -0.7998
 3691TIP3   OH235267   2.000   5.511  18.453 -0.6580 -0.6883  0.2154
 3691TIP3    H135268   2.011   5.423  18.418  1.4503 -0.4515  0.1535
 3691TIP3    H235269   1.972   5.564  18.378  0.8461 -0.7878 -0.4602
 3692TIP3   OH235270   3.806   3.337  17.754  0.5522  0.1414  0.4028
 3692TIP3    H135271   3.730   3.279  17.758  0.7812 -0.1026  3.5969
 3692TIP3    H235272   3.878   3.281  17.727  0.2031 -0.3736  0.5231
 3693TIP3   OH235273   1.443   0.206  18.282  0.0595 -0.2749 -0.1775
 3693TIP3    H135274   1.449   0.237  18.191  0.0802 -0.4647 -0.2399
 3693TIP3    H235275   1.525   0.161  18.298  0.5487  0.7627  0.3114
 3694TIP3   OH235276   2.793   2.887  20.071 -0.0735 -0.5564  0.1433
 3694TIP3    H135277   2.803   2.902  19.977 -1.3960  0.0418  0.0899
 3694TIP3    H235278   2.783   2.792  20.079  0.1127 -0.6179 -0.3086
 3695TIP3   OH235279   0.995   5.366  17.361  0.0294  0.3855  0.2700
 3695TIP3    H135280   1.037   5.406  17.438 -2.1711  0.2190  1.6556
 3695TIP3    H235281   0.968   5.441  17.308  1.3873  0.5095 -0.2668
 3696TIP3   OH235282   1.971   4.015  17.731  0.1768  0.9445  0.0228
 3696TIP3    H135283   1.946   4.011  17.823 -0.1660  1.0447 -0.0659
 3696TIP3    H235284   1.934   4.097  17.700  0.4924  1.0260 -0.1480
 3697TIP3   OH235285   3.618   2.709  17.632 -0.0772 -0.0110  0.0246
 3697TIP3    H135286   3.694   2.730  17.577 -1.5334  1.8195 -1.4428
 3697TIP3    H235287   3.560   2.659  17.574 -1.4027  1.4645  0.0097
 3698TIP3   OH235288   3.578   2.691  18.020 -0.5564 -0.2228 -0.0207
 3698TIP3    H135289   3.644   2.648  18.074 -0.4541 -0.0615 -0.0188
 3698TIP3    H235290   3.537   2.619  17.971  0.3099 -0.2177 -0.7922
 3699TIP3   OH235291   3.744   5.410  20.162  0.1190  0.0367 -0.6014
 3699TIP3    H135292   3.650   5.397  20.149 -0.5776  1.5126  2.1090
 3699TIP3    H235293   3.768   5.349  20.232  0.8708  0.5873 -0.3654
 3700TIP3   OH235294   1.843   1.682  19.223  0.4084  0.4591  0.0031
 3700TIP3    H135295   1.879   1.594  19.231  1.0606  0.8522  2.2270
 3700TIP3    H235296   1.787   1.679  19.146 -0.0973 -2.0722  0.3979
 3701TIP3   OH235297   0.215   5.924  19.273 -0.5424  0.1474  0.3025
 3701TIP3    H135298   0.144   5.986  19.287 -0.7582  0.2128 -0.9220
 3701TIP3    H235299   0.286   5.954  19.329 -1.2634  0.4397  1.0747
 3702TIP3   OH235300   6.359   6.757  19.228 -0.5042  0.1759 -1.2122
 3702TIP3    H135301   6.366   6.750  19.133 -0.0020 -0.4834 -1.1343
 3702TIP3    H235302   6.445   6.731  19.260 -0.1195  1.9798 -0.6418
 3703TIP3   OH235303   6.380   5.484  17.983  0.0097 -0.5347  0.5230
 3703TIP3    H135304   6.365   5.449  17.895  0.1244  1.1897 -0.2283
 3703TIP3    H235305   6.308   5.449  18.036 -1.7999  0.7463 -0.9658
 3704TIP3   OH235306   4.902   3.071  19.927  0.3768 -0.3061  0.1738
 3704TIP3    H135307   4.831   3.098  19.985  0.3924  0.0059  0.0431
 3704TIP3    H235308   4.884   3.114  19.844 -0.1724 -1.5039 -0.3592
 3705TIP3   OH235309   1.549   2.629  18.926 -0.4597  0.8188 -0.1850
 3705TIP3    H135310   1.511   2.707  18.886  0.1067  0.3498 -1.6900
 3705TIP3    H235311   1.644   2.639  18.916 -0.3891 -0.2390 -0.7903
 3706TIP3   OH235312   1.487   2.631  16.962 -0.4775 -0.0303 -0.1640
 3706TIP3    H135313   1.450   2.598  17.044 -0.3019 -1.9998 -0.8464
 3706TIP3    H235314   1.415   2.680  16.921 -1.7635 -2.1230 -0.5225
 3707TIP3   OH235315   6.532   5.746  17.135  0.1106  0.2826 -0.2844
 3707TIP3    H135316   6.551   5.757  17.042  0.0389 -0.2148 -0.3594
 3707TIP3    H235317   6.617   5.726  17.174 -0.4229 -4.6856 -1.0132
 3708TIP3   OH235318   2.281   3.590  19.361  0.6649 -0.4014 -0.0053
 3708TIP3    H135319   2.356   3.566  19.306  0.5990  1.1039 -0.8111
 3708TIP3    H235320   2.282   3.686  19.361  0.9466 -0.2958  3.0190
 3709TIP3   OH235321   4.551   6.686  19.613  0.7861 -0.1994 -0.2111
 3709TIP3    H135322   4.607   6.690  19.535 -0.5293  1.6329 -1.1641
 3709TIP3    H235323   4.533   6.778  19.633  0.7952 -0.6596  2.0739
 3710TIP3   OH235324   3.739   0.795  18.464 -0.0593 -0.1493 -0.0174
 3710TIP3    H135325   3.831   0.819  18.452 -0.3450  0.1557 -2.0204
 3710TIP3    H235326   3.739   0.700  18.458  0.0803 -0.1219 -0.5577
 3711TIP3   OH235327   3.148   1.110  17.755  0.1419 -0.5349 -0.3632
 3711TIP3    H135328   3.205   1.034  17.739  0.4264 -0.3016 -0.4805
 3711TIP3    H235329   3.177   1.144  17.840 -1.0158 -1.4612  0.4165
 3712TIP3   OH235330   6.756   2.663  16.743  0.6183 -0.2041 -0.3944
 3712TIP3    H135331   6.817   2.736  16.754 -0.9934  0.7804  4.5034
 3712TIP3    H235332   6.694   2.693  16.677  1.1122  2.0316  0.0903
 3713TIP3   OH235333   4.234   6.153  16.347  0.2438  0.7762 -0.1612
 3713TIP3    H135334   4.248   6.088  16.278  0.7623 -0.0915  0.7386
 3713TIP3    H235335   4.268   6.235  16.310  0.4625  0.3350 -0.9593
 3714TIP3   OH235336   6.706   3.898  18.191 -0.0160  0.0921 -0.6915
 3714TIP3    H135337   6.611   3.898  18.183 -0.1149  0.0613  0.3969
 3714TIP3    H235338   6.738   3.892  18.100 -1.0591 -2.5847 -0.9705
 3715TIP3   OH235339   5.289   1.429  18.810 -0.5697  0.5052 -0.1911
 3715TIP3    H135340   5.332   1.396  18.731 -1.0048 -0.1276 -0.1752
 3715TIP3    H235341   5.240   1.353  18.843  0.3495  0.4940  1.2002
 3716TIP3   OH235342   5.959   6.248  16.745 -0.0321 -0.6166  0.4504
 3716TIP3    H135343   5.992   6.336  16.762  0.0249 -0.6118  0.3184
 3716TIP3    H235344   6.023   6.189  16.785  0.3350 -0.6168 -0.1377
 3717TIP3   OH235345   6.395   3.553  18.582 -0.2065 -0.0297 -0.1023
 3717TIP3    H135346   6.329   3.498  18.626 -0.9337  0.5274 -0.4751
 3717TIP3    H235347   6.359   3.641  18.587  0.9537  0.4323  0.4863
 3718TIP3   OH235348   0.939   2.519  16.860 -0.2056  0.2870 -0.2803
 3718TIP3    H135349   0.857   2.524  16.811  0.0831  0.6051 -0.7374
 3718TIP3    H235350   1.005   2.495  16.795  0.0905  0.1882  0.0528
 3719TIP3   OH235351   5.332   4.754  17.649  0.2975 -0.3513  0.1393
 3719TIP3    H135352   5.427   4.739  17.656  0.6026  1.0496 -0.6645
 3719TIP3    H235353   5.319   4.844  17.679 -0.4823  0.1662 -1.6179
 3720TIP3   OH235354   0.995   4.818  18.173  0.3768 -0.3708  0.1208
 3720TIP3    H135355   1.049   4.758  18.121  0.3813 -1.1013  0.9342
 3720TIP3    H235356   0.909   4.776  18.175 -0.1785  0.6507 -0.9440
 3721TIP3   OH235357   5.174   6.311  18.060 -0.3231 -0.0543 -0.3659
 3721TIP3    H135358   5.079   6.324  18.064 -0.2203  0.3971  1.0262
 3721TIP3    H235359   5.195   6.261  18.139  0.7958  1.3188  0.2472
 3722TIP3   OH235360   3.334   3.469  19.236 -0.1468 -0.6500  0.5111
 3722TIP3    H135361   3.360   3.481  19.327  0.5956 -2.1745  0.5242
 3722TIP3    H235362   3.256   3.525  19.226  0.2984  0.2484  1.7998
 3723TIP3   OH235363   1.291   3.204  18.918 -0.2955 -0.2047 -0.0892
 3723TIP3    H135364   1.274   3.124  18.968  1.3342 -0.9498 -0.6431
 3723TIP3    H235365   1.205   3.230  18.884 -0.6977 -2.6028 -1.1480
 3724TIP3   OH235366   6.042   3.408  18.579  0.4190 -0.3790  0.3253
 3724TIP3    H135367   6.107   3.438  18.643  0.3114  1.3978 -0.3495
 3724TIP3    H235368   5.958   3.433  18.618  0.2317 -1.1389  0.4149
 3725TIP3   OH235369   4.168   5.709  16.399  0.5853 -0.0438  0.4935
 3725TIP3    H135370   4.129   5.796  16.405 -0.2547 -0.3949  0.1992
 3725TIP3    H235371   4.098   5.649  16.423  0.6487 -0.7504 -0.9879
 3726TIP3   OH235372   1.388   4.778  16.961  0.0356  0.4265 -0.0296
 3726TIP3    H135373   1.405   4.706  17.021 -1.5291 -1.1565 -1.3794
 3726TIP3    H235374   1.473   4.797  16.920  0.4802 -0.6058  0.3961
 3727TIP3   OH235375   6.381   3.202  19.576 -0.0700  0.4428 -0.5302
 3727TIP3    H135376   6.355   3.121  19.532 -0.3438  0.3065 -0.1267
 3727TIP3    H235377   6.321   3.268  19.541 -0.7778  0.1914  0.1622
 3728TIP3   OH235378   4.596   2.186  17.848  0.5698 -0.4033  0.2640
 3728TIP3    H135379   4.507   2.151  17.860 -0.1558  1.8885  2.3177
 3728TIP3    H235380   4.631   2.192  17.936  1.8733  0.9583 -0.3191
 3729TIP3   OH235381   1.218   1.790  19.027  0.1142 -0.2523 -0.0760
 3729TIP3    H135382   1.158   1.719  19.007  2.5028 -2.1003 -1.3261
 3729TIP3    H235383   1.223   1.841  18.947 -0.2362  0.2684  0.2282
 3730TIP3   OH235384   4.496   6.060  18.376  0.5976  0.3833 -0.1275
 3730TIP3    H135385   4.424   6.002  18.351  1.1530 -0.0190 -0.8433
 3730TIP3    H235386   4.471   6.095  18.461 -0.1311 -0.2774 -0.0628
 3731TIP3   OH235387   2.193   3.037  17.965 -0.1815  0.4204  0.2323
 3731TIP3    H135388   2.265   2.987  17.928  0.7812 -0.3106  2.8341
 3731TIP3    H235389   2.133   2.972  18.002  0.2166  1.0578  2.1426
 3732TIP3   OH235390   0.681   3.558  18.651  0.0329  0.7185 -0.4651
 3732TIP3    H135391   0.701   3.599  18.567 -0.1480 -0.6211 -1.2008
 3732TIP3    H235392   0.732   3.607  18.715 -0.0440  1.9479 -1.3131
 3733TIP3   OH235393   0.512   6.243  17.145  0.2915  0.3698 -0.0546
 3733TIP3    H135394   0.432   6.283  17.177  0.2541  0.1938  0.0730
 3733TIP3    H235395   0.483   6.180  17.080  0.4326  1.4960 -1.2546
 3734TIP3   OH235396   5.964   6.028  16.033 -0.3368 -0.4950  0.2979
 3734TIP3    H135397   5.887   5.975  16.054 -0.1625 -1.0424 -0.3837
 3734TIP3    H235398   6.035   5.988  16.083 -0.5689  0.2596  1.2424
 3735TIP3   OH235399   3.894   2.339  18.279  0.4707 -0.4404 -0.4651
 3735TIP3    H135400   3.897   2.304  18.190  1.5286 -0.2392 -0.5254
 3735TIP3    H235401   3.977   2.386  18.289  0.0920  0.0719  0.4151
 3736TIP3   OH235402   1.683   3.118  18.359  0.4350  0.3539 -1.1939
 3736TIP3    H135403   1.636   3.199  18.338  0.2458  0.2773 -1.0681
 3736TIP3    H235404   1.665   3.103  18.452  1.2754  0.6910 -0.9691
 3737TIP3   OH235405   6.510   2.041  19.210  0.3149 -0.3420  0.8697
 3737TIP3    H135406   6.553   2.119  19.244 -0.9889  0.6997  0.2144
 3737TIP3    H235407   6.530   2.041  19.117 -1.6584  0.5896  0.4045
 3738TIP3   OH235408   3.554   3.495  17.982 -0.3249 -0.1329 -0.0074
 3738TIP3    H135409   3.470   3.450  17.982 -1.1083  1.1993 -1.6256
 3738TIP3    H235410   3.579   3.498  17.889  2.1070 -1.5155  0.5298
 3739TIP3   OH235411   6.134   6.500  16.587 -0.9451 -0.1324  0.6506
 3739TIP3    H135412   6.098   6.516  16.675 -0.0346  1.2868  0.8034
 3739TIP3    H235413   6.229   6.500  16.600 -0.8019  0.1517 -0.3415
 3740TIP3   OH235414   6.336   2.894  17.605  0.5878 -0.1614  0.2427
 3740TIP3    H135415   6.259   2.845  17.577  1.3289  0.0862 -2.5085
 3740TIP3    H235416   6.327   2.980  17.565  2.2158 -0.0929 -0.0691
 3741TIP3   OH235417   4.200   1.211  18.757  0.4551  0.3521  0.3746
 3741TIP3    H135418   4.285   1.212  18.714 -0.0235  1.8129 -0.6160
 3741TIP3    H235419   4.215   1.164  18.839  2.4483  1.3898  0.6670
 3742TIP3   OH235420   1.534   0.314  17.646  0.1519 -0.4181  0.7388
 3742TIP3    H135421   1.533   0.400  17.603 -0.7772  0.3093  2.1301
 3742TIP3    H235422   1.446   0.305  17.683  0.1859 -2.0545  0.4841
 3743TIP3   OH235423   5.920   2.364  19.145  0.5618  0.5457 -0.4261
 3743TIP3    H135424   5.997   2.307  19.145 -0.5075 -1.0685  1.6590
 3743TIP3    H235425   5.868   2.335  19.070  0.4744 -0.6304  0.0719
 3744TIP3   OH235426   4.460   0.561  17.117  0.0705  0.5038  0.1853
 3744TIP3    H135427   4.534   0.505  17.093 -0.9656 -1.2404  0.9175
 3744TIP3    H235428   4.383   0.506  17.104 -0.7893  0.1334  5.1046
 3745TIP3   OH235429   3.685   5.378  19.135  0.0033 -0.9688  0.0339
 3745TIP3    H135430   3.683   5.309  19.202 -0.3411 -0.2447  0.7952
 3745TIP3    H235431   3.778   5.393  19.119  0.1671  0.0861  1.6993
 3746TIP3   OH235432   2.791   1.717  18.364 -0.2252  0.1405  0.1088
 3746TIP3    H135433   2.732   1.685  18.295 -1.6860  1.5043  0.6561
 3746TIP3    H235434   2.766   1.668  18.442 -0.1547  0.2117  0.1762
 3747TIP3   OH235435   3.561   5.359  19.847  0.0786 -0.0095 -0.4635
 3747TIP3    H135436   3.474   5.391  19.825  0.0953 -0.6292 -1.5158
 3747TIP3    H235437   3.545   5.281  19.900 -0.0265 -0.3044 -0.9195
 3748TIP3   OH235438   2.134   1.834  17.585  0.0304 -0.2228  0.1146
 3748TIP3    H135439   2.195   1.761  17.571  0.1310  0.3738 -3.6081
 3748TIP3    H235440   2.050   1.792  17.601  0.5539 -1.1063  0.6686
 3749TIP3   OH235441   6.554   3.313  19.268 -0.2127 -1.2595 -0.7007
 3749TIP3    H135442   6.578   3.371  19.340 -1.3479 -2.0402  0.3552
 3749TIP3    H235443   6.607   3.235  19.281  0.4334 -0.9462 -1.4094
 3750TIP3   OH235444   1.590   4.058  18.315  0.9505  0.0549 -0.0440
 3750TIP3    H135445   1.616   3.966  18.313  0.4403 -0.0886 -1.9089
 3750TIP3    H235446   1.521   4.062  18.382 -0.9124 -1.5188 -1.7201
 3751TIP3   OH235447   1.492   5.066  19.540 -0.3743  0.1312  0.1468
 3751TIP3    H135448   1.542   5.147  19.526  1.6328 -1.0185  0.2532
 3751TIP3    H235449   1.451   5.048  19.455 -0.1754  0.8284 -0.1047
 3752TIP3   OH235450   3.206   3.124  19.955  0.8540  0.0076 -0.1783
 3752TIP3    H135451   3.227   3.127  20.048 -0.4446  3.2132  0.1566
 3752TIP3    H235452   3.252   3.200  19.918  0.2625 -0.4186 -1.8915
 3753TIP3   OH235453   1.296   3.756  17.060 -0.4142  0.3856  0.0034
 3753TIP3    H135454   1.371   3.814  17.056 -0.2725  0.1954 -0.1692
 3753TIP3    H235455   1.331   3.673  17.092  0.2896 -0.9326 -3.6212
 3754TIP3   OH235456   2.023   1.208  17.327 -0.3488 -0.2984 -0.7908
 3754TIP3    H135457   2.105   1.163  17.349 -0.3923  0.1452  0.3358
 3754TIP3    H235458   2.032   1.229  17.234  1.2534  0.5983 -0.4786
 3755TIP3   OH235459   4.854   5.811  18.925  0.2444 -0.4419  0.7836
 3755TIP3    H135460   4.796   5.743  18.891 -0.9867  0.8250  0.2497
 3755TIP3    H235461   4.917   5.764  18.979 -0.4018 -2.0297  0.2174
 3756TIP3   OH235462   6.314   5.093  18.411 -0.1251  0.1941  0.0324
 3756TIP3    H135463   6.358   5.144  18.479  0.5703 -0.9610  0.4665
 3756TIP3    H235464   6.372   5.098  18.335  0.6537 -1.0749  0.5102
 3757TIP3   OH235465   5.319   0.345  18.277 -0.4738 -0.6109 -0.5717
 3757TIP3    H135466   5.413   0.332  18.264 -0.6836 -1.1681 -1.5863
 3757TIP3    H235467   5.298   0.422  18.223 -0.5251 -0.2127  0.0046
 3758TIP3   OH235468   0.872   5.761  18.837  0.3158  0.7292 -0.4958
 3758TIP3    H135469   0.849   5.673  18.808  2.7482  0.0328 -0.5198
 3758TIP3    H235470   0.789   5.801  18.861 -1.0977 -0.8599 -2.3816
 3759TIP3   OH235471   0.793   1.841  16.649 -0.5365  0.0215  0.3175
 3759TIP3    H135472   0.852   1.778  16.691  0.0365  1.1938  1.3804
 3759TIP3    H235473   0.837   1.863  16.567  2.0969  2.8835  2.2403
 3760TIP3   OH235474   0.949   4.662  19.496  0.1438 -0.0758 -0.4198
 3760TIP3    H135475   1.000   4.681  19.417  0.2765 -2.0351 -0.8489
 3760TIP3    H235476   0.858   4.674  19.469  0.2465  0.6699 -0.4507
 3761TIP3   OH235477   5.031   0.251  19.940  0.0324  0.6703 -0.4569
 3761TIP3    H135478   4.966   0.303  19.893 -0.1351  2.0664  1.2188
 3761TIP3    H235479   5.008   0.261  20.032  1.2543 -0.7147  0.0451
 3762TIP3   OH235480   3.989   3.694  18.676 -0.1919  0.3478  0.0942
 3762TIP3    H135481   4.029   3.722  18.594  1.3560  0.2030  0.7683
 3762TIP3    H235482   3.911   3.749  18.684  0.5696  1.5920 -0.6325
 3763TIP3   OH235483   1.539   3.849  17.041  0.7561 -0.1148  0.6682
 3763TIP3    H135484   1.542   3.921  16.979  2.0631  1.5855  2.5749
 3763TIP3    H235485   1.613   3.793  17.017  0.0421 -0.6120 -0.4949
 3764TIP3   OH235486   6.323   4.168  19.764  0.0214  0.6905 -0.4113
 3764TIP3    H135487   6.333   4.089  19.713 -1.4864  1.4836 -2.0494
 3764TIP3    H235488   6.264   4.143  19.836 -0.6226  0.3697 -1.0442
 3765TIP3   OH235489   3.542   0.340  17.567  0.4202  0.3099  0.7195
 3765TIP3    H135490   3.595   0.331  17.488  0.1941  3.8541 -0.0052
 3765TIP3    H235491   3.603   0.371  17.634 -0.0042  0.5897  0.9833
 3766TIP3   OH235492   1.621   4.434  18.474 -0.1156  0.3723 -0.1937
 3766TIP3    H135493   1.605   4.379  18.551  0.7928  0.1367 -0.1577
 3766TIP3    H235494   1.587   4.383  18.401 -1.0438  0.6261  0.0523
 3767TIP3   OH235495   1.662   1.460  17.257 -0.5449 -0.2771  0.5959
 3767TIP3    H135496   1.746   1.446  17.301 -0.6730  1.2130  1.3900
 3767TIP3    H235497   1.597   1.427  17.319 -0.6740  1.0336  1.1978
 3768TIP3   OH235498   6.541   6.757  19.000  0.0232  0.4410  0.8386
 3768TIP3    H135499   6.603   6.805  19.056 -0.3889  0.1685  1.5314
 3768TIP3    H235500   6.554   6.795  18.913  0.9899  0.5594  1.0248
 3769TIP3   OH235501   4.674   3.433  18.156  0.7278 -0.2834  0.2927
 3769TIP3    H135502   4.640   3.503  18.212  2.3874  0.0841  0.9090
 3769TIP3    H235503   4.688   3.475  18.071  2.2427  0.3145  0.8120
 3770TIP3   OH235504   4.310   3.140  17.035 -0.5281 -0.2760 -0.0076
 3770TIP3    H135505   4.259   3.217  17.060 -0.6481 -0.4485  0.2897
 3770TIP3    H235506   4.340   3.158  16.946 -2.1896 -0.7143 -0.6917
 3771TIP3   OH235507   1.947   1.882  16.868 -0.0278  0.2164 -0.5631
 3771TIP3    H135508   2.023   1.933  16.839 -1.6087  3.0183 -0.1491
 3771TIP3    H235509   1.967   1.858  16.958  0.3799  0.9129 -0.4668
 3772TIP3   OH235510   2.098   0.329  18.047 -0.3805  0.0531  0.1308
 3772TIP3    H135511   2.114   0.357  18.137 -0.9104 -0.7766  0.4967
 3772TIP3    H235512   2.171   0.270  18.028  1.3110  2.3741 -0.9963
 3773TIP3   OH235513   3.266   2.413  19.096 -0.3122  0.0591 -0.0610
 3773TIP3    H135514   3.188   2.394  19.147 -0.5921 -1.6482 -1.0630
 3773TIP3    H235515   3.337   2.367  19.140 -0.4493 -0.9233 -0.8212
 3774TIP3   OH235516   5.317   0.888  18.334  0.2048 -0.7179  0.4177
 3774TIP3    H135517   5.325   0.854  18.423 -0.4149 -1.2056  0.2946
 3774TIP3    H235518   5.266   0.968  18.343  0.7381 -0.3961  0.5843
 3775TIP3   OH235519   3.660   4.701  19.059 -0.4655  0.0455 -0.0691
 3775TIP3    H135520   3.741   4.719  19.107 -0.6230  0.0829  0.1830
 3775TIP3    H235521   3.628   4.787  19.034 -0.5544  0.0435  0.0401
 3776TIP3   OH235522   5.918   5.938  19.049 -0.1968  0.3599  0.1425
 3776TIP3    H135523   5.908   5.906  19.138 -1.5268  0.2536 -0.0308
 3776TIP3    H235524   5.835   5.917  19.006  1.1516 -1.5176 -1.7322
 3777TIP3   OH235525   0.352   5.664  17.711  0.0232 -0.3361  0.3119
 3777TIP3    H135526   0.421   5.605  17.682 -0.2272 -0.0135 -0.9978
 3777TIP3    H235527   0.271   5.620  17.685 -0.1423  1.2654 -2.1979
 3778TIP3   OH235528   3.130   1.973  18.673  0.2454 -0.3318  0.1121
 3778TIP3    H135529   3.087   1.991  18.757 -0.0468  2.0485 -0.4632
 3778TIP3    H235530   3.059   1.969  18.610  0.5751 -0.4739 -0.2534
 3779TIP3   OH235531   0.558   2.225  17.257  0.3208  0.3025  0.2171
 3779TIP3    H135532   0.505   2.289  17.209 -0.2464  0.2874  0.8131
 3779TIP3    H235533   0.508   2.144  17.252  0.3065  0.2765  0.7443
 3780TIP3   OH235534   1.134   0.159  16.479  0.1582  0.3561  0.3403
 3780TIP3    H135535   1.215   0.162  16.529 -0.9767  0.9925  2.2497
 3780TIP3    H235536   1.112   0.250  16.462  0.1465  0.1712 -0.7326
 3781TIP3   OH235537   1.385   1.197  19.830  0.0855  0.1595 -0.8422
 3781TIP3    H135538   1.320   1.220  19.895  0.4748  0.2104 -0.4652
 3781TIP3    H235539   1.381   1.268  19.765  1.4271  1.4776  0.4239
 3782TIP3   OH235540   0.096   5.464  18.272  0.0131  0.5679 -0.5558
 3782TIP3    H135541   0.072   5.547  18.231 -1.8176 -0.1766 -1.0935
 3782TIP3    H235542   0.039   5.458  18.349  0.9826  0.3451  0.1695
 3783TIP3   OH235543   6.586   6.157  18.760 -0.2182 -0.0143 -0.2920
 3783TIP3    H135544   6.558   6.087  18.701  0.2141 -1.1040  0.7407
 3783TIP3    H235545   6.556   6.128  18.847  2.6647 -0.5100  0.6401
 3784TIP3   OH235546   5.906   1.652  17.537  0.7928  0.0645 -0.0427
 3784TIP3    H135547   5.997   1.681  17.536  1.1967 -1.1039  1.0887
 3784TIP3    H235548   5.891   1.616  17.449  1.6521 -0.3961 -0.0070
 3785TIP3   OH235549   0.453   2.434  17.832  0.2055 -0.9117 -0.0286
 3785TIP3    H135550   0.473   2.431  17.926  1.9328  0.2808 -0.3313
 3785TIP3    H235551   0.419   2.522  17.817  3.2542  0.1895 -1.0880
 3786TIP3   OH235552   5.740   0.647  18.276  0.1003 -0.4472  0.2214
 3786TIP3    H135553   5.802   0.719  18.264  2.2751 -2.4616 -1.5285
 3786TIP3    H235554   5.659   0.677  18.233  1.1487  0.7179 -1.0129
 3787TIP3   OH235555   5.606   2.536  16.225  0.3964 -0.6890  0.2568
 3787TIP3    H135556   5.640   2.487  16.300  1.7049 -2.0594 -1.1643
 3787TIP3    H235557   5.580   2.469  16.162 -0.7572  0.4285 -0.5010
 3788TIP3   OH235558   1.090   5.902  17.674  0.5386  0.1216  0.2528
 3788TIP3    H135559   1.107   5.926  17.765  0.7113  1.2248 -0.0607
 3788TIP3    H235560   1.050   5.980  17.635  1.3448  0.0058 -0.8661
 3789TIP3   OH235561   2.194   2.055  18.997 -0.1605  0.3432 -0.4053
 3789TIP3    H135562   2.176   2.053  19.091 -1.7752  0.8702 -0.6800
 3789TIP3    H235563   2.153   1.975  18.963 -0.6645  0.7623 -0.8169
 3790TIP3   OH235564   4.870   1.569  17.671 -0.1469 -0.2754  0.5734
 3790TIP3    H135565   4.834   1.609  17.750  1.1478  0.1872  0.9559
 3790TIP3    H235566   4.898   1.482  17.698 -1.0990 -0.7149  0.2250
 3791TIP3   OH235567   2.683   3.774  18.795 -0.2949 -0.5805 -0.3388
 3791TIP3    H135568   2.706   3.832  18.723 -0.8205 -1.4624 -1.2386
 3791TIP3    H235569   2.590   3.756  18.783 -0.3308 -0.9427  0.4145
 3792TIP3   OH235570   6.516   2.308  17.058  0.1910 -0.2880  0.2789
 3792TIP3    H135571   6.444   2.363  17.027 -0.4271 -0.8017  0.7687
 3792TIP3    H235572   6.588   2.327  16.998 -0.4430  0.0081 -0.4098
 3793TIP3   OH235573   1.905   6.514  17.747 -0.1582  0.8360 -0.3230
 3793TIP3    H135574   1.942   6.433  17.712  2.6214  2.9146 -2.7011
 3793TIP3    H235575   1.845   6.485  17.816 -2.1324 -3.3897 -3.3527
 3794TIP3   OH235576   4.793   3.175  19.691 -0.2305 -0.3242  0.1765
 3794TIP3    H135577   4.756   3.251  19.736 -2.1812 -1.3033  0.3435
 3794TIP3    H235578   4.795   3.200  19.599  2.8707  1.3344  0.5771
 3795TIP3   OH235579   4.612   4.063  17.468 -0.2586  0.3671 -0.1789
 3795TIP3    H135580   4.696   4.024  17.492 -0.3939  0.1843 -0.0021
 3795TIP3    H235581   4.600   4.134  17.530 -0.9049 -0.4962  0.7196
 3796TIP3   OH235582   5.617   0.239  19.117 -0.7282 -0.3889  0.2020
 3796TIP3    H135583   5.678   0.291  19.170 -0.1321 -0.7444 -0.1252
 3796TIP3    H235584   5.534   0.285  19.125 -0.5843 -0.2936  1.2300
 3797TIP3   OH235585   2.727   2.159  18.493  0.3979 -0.0859  0.4738
 3797TIP3    H135586   2.774   2.163  18.409  0.1357  0.0074  0.3277
 3797TIP3    H235587   2.683   2.244  18.499 -0.3018 -0.4281  0.2824
 3798TIP3   OH235588   1.768   1.175  18.931  0.2207  0.3799  0.7653
 3798TIP3    H135589   1.847   1.140  18.972 -0.1324 -0.5412  0.6915
 3798TIP3    H235590   1.696   1.132  18.977 -0.1844 -0.8516 -0.8863
 3799TIP3   OH235591   1.601   2.071  20.087 -0.2093 -0.1686  0.0472
 3799TIP3    H135592   1.668   2.003  20.084 -1.5235 -1.4791 -1.2879
 3799TIP3    H235593   1.533   2.035  20.144  0.8935  1.9104  2.9258
 3800TIP3   OH235594   3.918   3.730  19.934 -0.3503  0.1998  0.1159
 3800TIP3    H135595   3.879   3.658  19.983 -0.7407  0.0348 -0.4306
 3800TIP3    H235596   3.963   3.688  19.861  0.0110  0.4638  0.1833
 3801TIP3   OH235597   6.013   3.151  18.488 -0.7215  0.2737 -0.0023
 3801TIP3    H135598   6.027   3.095  18.564 -0.3423  0.7653  0.3008
 3801TIP3    H235599   6.063   3.231  18.508 -0.1772  0.1996 -1.0056
 3802TIP3   OH235600   2.070   0.952  17.872  0.2842 -0.2058  0.1239
 3802TIP3    H135601   2.062   0.865  17.913 -0.3855  0.3298  1.1547
 3802TIP3    H235602   2.006   0.951  17.801 -0.4705 -0.1960  0.7945
 3803TIP3   OH235603   0.878   1.798  17.943 -0.1850  0.3141 -0.3224
 3803TIP3    H135604   0.961   1.774  17.901 -0.8746  0.6630 -1.9762
 3803TIP3    H235605   0.888   1.770  18.034  1.3924 -0.4848 -0.7029
 3804TIP3   OH235606   2.974   5.479  20.033 -0.0395  0.1933  0.7265
 3804TIP3    H135607   2.881   5.502  20.026  0.2934  1.2797 -0.6187
 3804TIP3    H235608   3.018   5.563  20.047  0.8972 -0.0717 -0.4826
 3805TIP3   OH235609   3.029   4.043  17.975  0.1783 -0.2625 -0.9030
 3805TIP3    H135610   3.005   3.954  18.003 -1.4429  0.0786 -1.1194
 3805TIP3    H235611   2.986   4.054  17.890  0.5926  0.6375 -1.0067
 3806TIP3   OH235612   6.715   6.177  18.040 -0.2191  0.4141  0.8172
 3806TIP3    H135613   6.650   6.112  18.065  0.2446 -0.2875  0.2112
 3806TIP3    H235614   6.786   6.165  18.102  1.1218 -1.6181 -0.9808
 3807TIP3   OH235615   0.042   1.718  18.274 -0.0586 -0.0650  0.0968
 3807TIP3    H135616   0.012   1.795  18.226 -0.9010  0.2051  1.0184
 3807TIP3    H235617   0.136   1.731  18.284  0.0723  0.0285 -1.1833
 3808TIP3   OH235618   1.992   5.000  19.401 -0.1571 -0.1034  0.0845
 3808TIP3    H135619   1.936   5.075  19.425  0.7055  0.6730 -0.2705
 3808TIP3    H235620   1.943   4.956  19.331  0.2563  1.3724 -1.2028
 3809TIP3   OH235621   3.105   3.839  19.177 -0.5983 -0.2046 -0.1705
 3809TIP3    H135622   3.112   3.915  19.119  0.2790 -0.0432  0.1397
 3809TIP3    H235623   3.056   3.870  19.252  0.1258  0.1824  0.1525
 3810TIP3   OH235624   2.067   1.939  18.639 -0.5111  0.6623  0.2058
 3810TIP3    H135625   2.079   1.920  18.546  1.3422 -0.1643  0.5755
 3810TIP3    H235626   2.125   2.014  18.656  1.5154 -1.0320  1.2534
 3811TIP3   OH235627   3.777   5.830  19.071  0.1691 -0.4121  0.1017
 3811TIP3    H135628   3.779   5.794  19.160  2.2864  1.2994  0.8356
 3811TIP3    H235629   3.698   5.884  19.069 -0.0720 -0.7195  0.8358
 3812TIP3   OH235630   0.539   4.937  17.979 -0.2775  0.3628  0.5177
 3812TIP3    H135631   0.466   4.972  17.927 -1.1369  0.1385  1.5260
 3812TIP3    H235632   0.562   4.855  17.935  0.3084  1.0954 -0.6006
 3813TIP3   OH235633   5.762   4.437  19.763 -0.1858  0.2908  0.2295
 3813TIP3    H135634   5.806   4.489  19.831  0.2585 -0.8033  0.7955
 3813TIP3    H235635   5.763   4.348  19.797 -2.1340  0.0933 -0.1035
 3814TIP3   OH235636   3.950   0.258  17.954  0.1829  0.5914 -0.2884
 3814TIP3    H135637   3.975   0.204  17.879 -0.1410 -0.5047  0.3721
 3814TIP3    H235638   3.862   0.291  17.933 -0.6486 -1.1360  0.3347
 3815TIP3   OH235639   4.974   0.396  19.705  0.1745  0.4608  0.0415
 3815TIP3    H135640   5.021   0.381  19.623  0.5620  0.3901  0.2722
 3815TIP3    H235641   5.027   0.461  19.751 -0.5792  1.2552 -0.1970
 3816TIP3   OH235642   4.360   0.694  17.996  0.0364 -0.0885  0.3806
 3816TIP3    H135643   4.420   0.767  17.985 -0.3987  0.2598  0.3184
 3816TIP3    H235644   4.385   0.654  18.079  1.1807 -0.7222 -0.2312
 3817TIP3   OH235645   1.008   2.026  19.236 -0.1273  0.3460 -0.2843
 3817TIP3    H135646   0.996   2.117  19.263  0.3480  0.5081 -0.5948
 3817TIP3    H235647   0.920   1.995  19.214 -0.3295  0.6366  0.1094
 3818TIP3   OH235648   4.274   0.429  17.748  0.1119 -0.1173  0.0121
 3818TIP3    H135649   4.346   0.490  17.765  1.0658 -1.1436 -0.2206
 3818TIP3    H235650   4.317   0.349  17.717 -1.0987 -0.9411  0.3749
 3819TIP3   OH235651   4.219   5.287  16.682  0.1686  0.4595  0.2195
 3819TIP3    H135652   4.249   5.201  16.652  1.0834  0.4904  1.0127
 3819TIP3    H235653   4.299   5.339  16.687 -0.4090  1.4741 -0.5693
 3820TIP3   OH235654   1.002   4.668  16.990  0.6886  0.2686 -0.0543
 3820TIP3    H135655   1.051   4.587  16.976  0.6175  0.5402 -2.1077
 3820TIP3    H235656   0.912   4.648  16.964  0.0975  0.3474  1.7779
 3821TIP3   OH235657   5.815   2.780  19.277 -0.4664  0.1225  0.1221
 3821TIP3    H135658   5.804   2.732  19.195 -0.8818 -0.3337  0.4389
 3821TIP3    H235659   5.727   2.804  19.303 -0.2117  1.7179 -0.4022
 3822TIP3   OH235660   4.778   2.938  18.906  0.3960  0.2130  0.4422
 3822TIP3    H135661   4.748   2.847  18.904  1.7835 -0.2486 -0.6954
 3822TIP3    H235662   4.758   2.968  18.995 -0.4783 -1.0467  0.7001
 3823TIP3   OH235663   5.080   2.048  19.465 -0.1507 -0.2882  0.1595
 3823TIP3    H135664   5.142   1.986  19.426 -0.7701 -0.5167 -0.4824
 3823TIP3    H235665   5.020   1.993  19.515  0.1016 -0.0759  0.6960
 3824TIP3   OH235666   0.325   5.389  17.254 -0.3071 -0.5040 -0.1612
 3824TIP3    H135667   0.292   5.302  17.232  1.1848 -1.3760  0.9164
 3824TIP3    H235668   0.409   5.396  17.209  0.5929 -0.4969  1.4536
 3825TIP3   OH235669   6.258   1.417  18.055  0.6166 -0.3572  0.2462
 3825TIP3    H135670   6.342   1.438  18.016  0.4678  1.9303  0.9987
 3825TIP3    H235671   6.279   1.373  18.137  1.0815  0.2393  0.4467
 3826TIP3   OH235672   1.935   1.424  19.241  0.0704 -0.2495  0.0469
 3826TIP3    H135673   1.923   1.347  19.298 -0.2299 -0.1538  0.1145
 3826TIP3    H235674   2.029   1.434  19.233  0.2062 -2.2243 -2.0935
 3827TIP3   OH235675   0.114   2.283  18.551  0.5963  0.0580 -0.2924
 3827TIP3    H135676   0.124   2.246  18.463 -2.1880 -0.1333 -0.6275
 3827TIP3    H235677   0.034   2.243  18.585  0.5472  1.5997  1.5708
 3828TIP3   OH235678   0.994   5.540  17.830  0.7667  0.2535  0.2508
 3828TIP3    H135679   0.950   5.481  17.768  0.7129  0.4760  0.0776
 3828TIP3    H235680   0.922   5.582  17.877  0.8103 -0.1721  0.7113
 3829TIP3   OH235681   2.419   6.130  18.783  0.3431 -0.0361 -0.5029
 3829TIP3    H135682   2.328   6.138  18.755  0.4444  0.2039 -0.7616
 3829TIP3    H235683   2.464   6.204  18.743  0.0807  1.6712  2.0682
 3830TIP3   OH235684   3.370   6.212  17.602  0.5762  0.2868  0.4561
 3830TIP3    H135685   3.424   6.194  17.678 -0.2527  1.2100  1.2945
 3830TIP3    H235686   3.406   6.156  17.533  1.4163 -0.4732  1.4772
 3831TIP3   OH235687   6.530   3.356  18.251  0.2949  0.4055 -0.0159
 3831TIP3    H135688   6.567   3.378  18.166 -0.4978  0.3732 -0.3826
 3831TIP3    H235689   6.438   3.381  18.243  0.2917  0.7405  0.9591
 3832TIP3   OH235690   4.954   6.575  18.648 -0.2285 -0.1977 -0.4352
 3832TIP3    H135691   5.045   6.585  18.620 -0.8375  3.2507 -1.7052
 3832TIP3    H235692   4.954   6.605  18.740 -0.1132  0.1991 -0.5591
 3833TIP3   OH235693   0.684   0.431  18.053  0.7194  0.7898 -0.3988
 3833TIP3    H135694   0.747   0.482  18.103 -0.2007  0.9197  0.6709
 3833TIP3    H235695   0.651   0.366  18.116 -0.8365  1.2774 -0.6784
 3834TIP3   OH235696   2.246   6.460  17.487 -0.3905  0.7717  0.0517
 3834TIP3    H135697   2.333   6.423  17.472 -1.2013 -0.1601 -2.9198
 3834TIP3    H235698   2.245   6.541  17.436 -0.3236  2.4751  2.5530
 3835TIP3   OH235699   2.459   2.874  18.012  0.4353 -0.1147 -0.1308
 3835TIP3    H135700   2.529   2.915  17.960 -1.1612  1.3877 -1.2102
 3835TIP3    H235701   2.485   2.889  18.103  1.2169  0.9613 -0.5119
 3836TIP3   OH235702   0.120   0.354  19.078 -0.4992 -0.1707 -0.3127
 3836TIP3    H135703   0.187   0.335  19.143 -0.0684 -0.1508 -0.7509
 3836TIP3    H235704   0.096   0.445  19.095 -1.1167 -0.4611  0.4706
 3837TIP3   OH235705   1.258   1.701  18.232 -0.1446 -0.0024  0.0117
 3837TIP3    H135706   1.239   1.608  18.247  3.2944 -0.5564  1.9310
 3837TIP3    H235707   1.209   1.747  18.300 -0.6721 -0.5399  0.0052
 3838TIP3   OH235708   1.732   5.099  18.889 -0.5338 -0.7417 -0.3894
 3838TIP3    H135709   1.775   5.106  18.804  0.5217  0.1472  0.1965
 3838TIP3    H235710   1.644   5.068  18.869  0.0945 -1.7901 -1.6927
 3839TIP3   OH235711   1.086   3.915  17.030  0.0186  0.1003  0.2492
 3839TIP3    H135712   1.128   4.001  17.034  1.3532 -0.3943 -1.9184
 3839TIP3    H235713   1.158   3.852  17.027 -0.9388 -1.1301  1.5811
 3840TIP3   OH235714   2.937   5.423  19.201 -0.1753 -0.8835 -0.7131
 3840TIP3    H135715   2.940   5.374  19.119 -1.9797  1.4274 -2.3204
 3840TIP3    H235716   2.849   5.406  19.237 -0.2218 -0.1748 -0.4556
 3841TIP3   OH235717   5.474   3.850  17.057 -0.7722 -0.3377  0.3268
 3841TIP3    H135718   5.563   3.887  17.055  0.7660 -3.6268  0.2802
 3841TIP3    H235719   5.436   3.884  17.138  0.6101  0.9624  0.4844
 3842TIP3   OH235720   3.641   0.282  19.423  0.1429  0.5652  0.3481
 3842TIP3    H135721   3.651   0.375  19.404  0.9982  0.8086  1.8273
 3842TIP3    H235722   3.730   0.251  19.439 -0.0467 -0.7110 -0.9117
 3843TIP3   OH235723   1.855   5.844  19.091  0.1327  0.1386 -0.2012
 3843TIP3    H135724   1.766   5.845  19.055  0.1458 -0.0794 -0.2410
 3843TIP3    H235725   1.908   5.805  19.021  0.3058  0.5057 -0.2810
 3844TIP3   OH235726   2.019   0.004  18.632 -0.2668 -0.1847 -0.2487
 3844TIP3    H135727   2.030   0.045  18.718 -1.5423 -0.9786  0.3299
 3844TIP3    H235728   2.095   0.034  18.581  1.0857 -0.5171  1.4651
 3845TIP3   OH235729   0.107   0.412  19.408 -0.3486  0.0427 -0.4677
 3845TIP3    H135730   0.123   0.458  19.491 -0.0710  1.8130 -1.4510
 3845TIP3    H235731   0.018   0.436  19.384 -1.8747 -3.3834  1.0156
 3846TIP3   OH235732   2.512   1.192  18.208  0.1948  0.3580  0.1484
 3846TIP3    H135733   2.520   1.112  18.155 -0.4241  1.8997 -2.4333
 3846TIP3    H235734   2.590   1.243  18.186 -0.5384  1.4328 -0.0159
 3847TIP3   OH235735   3.932   5.982  18.130  0.9766  0.1345  0.8744
 3847TIP3    H135736   3.852   5.929  18.121  0.8680 -0.8741  5.4894
 3847TIP3    H235737   3.904   6.071  18.110 -0.7064 -0.5041  0.1473
 3848TIP3   OH235738   2.302   5.776  20.055 -0.3026  0.1135  0.4505
 3848TIP3    H135739   2.330   5.867  20.064 -1.9372  0.6591  0.4275
 3848TIP3    H235740   2.307   5.741  20.144  0.3718  0.1959  0.4530
 3849TIP3   OH235741   3.389   6.152  20.039 -0.0469  0.2556  0.2445
 3849TIP3    H135742   3.483   6.136  20.049 -0.0264  0.2272  0.0055
 3849TIP3    H235743   3.383   6.241  20.005 -0.1381  0.5366  0.9761
 3850TIP3   OH235744   3.446   0.535  19.249  0.0888  0.2859 -0.2515
 3850TIP3    H135745   3.444   0.441  19.231  1.7662 -0.2629  1.9278
 3850TIP3    H235746   3.368   0.551  19.302  1.1788 -0.5002  1.6789
 3851TIP3   OH235747   4.856   6.564  19.138 -0.8784  0.6148 -0.5718
 3851TIP3    H135748   4.925   6.528  19.193 -1.5467 -2.4377 -1.5615
 3851TIP3    H235749   4.774   6.536  19.179 -1.4694  1.1354 -1.3448
 3852TIP3   OH235750   5.691   5.574  18.889 -0.2469  0.4430  0.6093
 3852TIP3    H135751   5.668   5.513  18.820 -1.0739  1.2686  0.1294
 3852TIP3    H235752   5.760   5.530  18.938  0.3453 -0.1744 -0.7217
 3853TIP3   OH235753   1.469   1.927  16.732 -0.5583  0.3858 -0.2433
 3853TIP3    H135754   1.489   1.835  16.718 -0.8406  0.3838 -0.6552
 3853TIP3    H235755   1.550   1.973  16.711 -0.0631  0.1588  1.0510
 3854TIP3   OH235756   4.006   6.546  17.895  0.4050  0.5890  0.6614
 3854TIP3    H135757   4.016   6.594  17.977  3.4636 -0.0928  0.7998
 3854TIP3    H235758   4.086   6.565  17.846  0.2535 -1.7810 -0.6418
 3855TIP3   OH235759   1.187   2.045  17.336 -0.5513 -0.2113  0.3287
 3855TIP3    H135760   1.233   2.013  17.258 -0.0481 -0.1031  0.5795
 3855TIP3    H235761   1.108   2.086  17.301  0.7525  1.8690 -0.3396
 3856TIP3   OH235762   3.384   0.327  18.256 -0.4802 -0.1857 -0.4485
 3856TIP3    H135763   3.394   0.239  18.294  2.0410 -0.4258 -1.4887
 3856TIP3    H235764   3.421   0.385  18.322  0.0485 -0.1701 -0.7545
 3857TIP3   OH235765   5.528   4.621  16.688 -0.0276  0.1667 -0.0865
 3857TIP3    H135766   5.574   4.565  16.625  0.1162  1.0694 -0.7979
 3857TIP3    H235767   5.484   4.687  16.635 -0.3924  0.5987  0.7257
 3858TIP3   OH235768   3.384   2.041  17.815 -0.0884 -0.5919  0.6029
 3858TIP3    H135769   3.342   2.126  17.801 -0.0675 -0.8059 -0.9485
 3858TIP3    H235770   3.459   2.059  17.871  1.0220  0.7635 -1.2203
 3859TIP3   OH235771   4.864   5.407  17.485 -0.3427 -0.4759  0.3860
 3859TIP3    H135772   4.815   5.340  17.439 -0.8926 -0.0501  0.3408
 3859TIP3    H235773   4.882   5.474  17.419 -0.0295 -0.4535  0.4902
 3860TIP3   OH235774   2.529   6.159  18.347  0.1366 -0.5993 -0.5779
 3860TIP3    H135775   2.459   6.104  18.311 -0.7549 -0.4304  0.8308
 3860TIP3    H235776   2.581   6.100  18.401  0.0048 -0.3573 -0.1811
 3861TIP3   OH235777   5.030   4.950  17.147  0.6062  0.5006  0.1321
 3861TIP3    H135778   5.122   4.922  17.145  0.7798  0.9756  0.8753
 3861TIP3    H235779   5.010   4.959  17.240 -0.9881 -2.0902  0.1419
 3862TIP3   OH235780   6.456   6.771  19.797  0.4994 -1.2357  0.0639
 3862TIP3    H135781   6.433   6.863  19.798 -0.2443 -1.4167  0.0775
 3862TIP3    H235782   6.550   6.770  19.776  1.0622 -0.3769  2.2226
 3863TIP3   OH235783   0.736   3.723  16.121 -0.4449  0.4169  0.0413
 3863TIP3    H135784   0.811   3.678  16.083  0.7202  2.2716  0.0376
 3863TIP3    H235785   0.769   3.809  16.147 -1.7829  0.2009  2.9617
 3864TIP3   OH235786   1.434   1.578  16.925 -0.4556  0.4815 -0.1497
 3864TIP3    H135787   1.404   1.601  16.838 -1.0914 -1.6753 -0.5615
 3864TIP3    H235788   1.356   1.588  16.980 -0.0028  2.0529  0.2621
 3865TIP3   OH235789   0.162   6.077  19.010 -0.6183 -0.2704  0.2840
 3865TIP3    H135790   0.149   6.105  19.101 -0.2158 -1.3354  0.6868
 3865TIP3    H235791   0.083   6.026  18.990  0.1515 -1.6613  0.7003
 3866TIP3   OH235792   1.893   2.227  19.269 -0.1618  0.5488 -0.3458
 3866TIP3    H135793   1.859   2.257  19.353  3.1710 -0.1810  1.4350
 3866TIP3    H235794   1.853   2.140  19.256  1.6534 -0.8008  2.2471
 3867TIP3   OH235795   2.593   5.483  18.475 -0.4763  0.0303  0.2872
 3867TIP3    H135796   2.624   5.393  18.464 -1.3369 -0.1936 -0.4646
 3867TIP3    H235797   2.509   5.475  18.520 -0.9029  0.3951 -0.4163
 3868TIP3   OH235798   1.966   0.452  17.310 -0.0687 -0.2462  0.6362
 3868TIP3    H135799   1.994   0.365  17.338 -1.2897 -0.3982  1.4322
 3868TIP3    H235800   1.968   0.506  17.389  1.4085  0.6858  0.0209
 3869TIP3   OH235801   6.324   5.556  17.134  0.1333 -0.0945 -0.1932
 3869TIP3    H135802   6.244   5.607  17.122 -0.6149 -0.8650  1.2124
 3869TIP3    H235803   6.393   5.621  17.139 -0.3624  0.5720 -1.6560
 3870TIP3   OH235804   0.177   6.758  19.023  0.7935  0.2981  0.4712
 3870TIP3    H135805   0.116   6.833  19.021  1.2968  0.7402  1.2604
 3870TIP3    H235806   0.165   6.716  18.938 -2.1429 -0.8723  1.3557
 3871TIP3   OH235807   0.690   2.254  18.092  0.6019  0.1561  0.0108
 3871TIP3    H135808   0.754   2.193  18.130  0.4619  0.3551  0.5786
 3871TIP3    H235809   0.733   2.287  18.013  1.5205  0.8475  0.7753
 3872TIP3   OH235810   3.260   4.886  19.672  0.0275  0.4453  0.1723
 3872TIP3    H135811   3.182   4.886  19.617 -1.0409 -0.5360  1.6219
 3872TIP3    H235812   3.332   4.904  19.611 -1.2674  1.0865 -1.2458
 3873TIP3   OH235813   0.495   6.101  18.653 -0.3408 -0.1893  0.3127
 3873TIP3    H135814   0.473   6.155  18.577 -0.1211  0.2047  0.5315
 3873TIP3    H235815   0.584   6.069  18.634 -0.3542 -0.2347  0.3260
 3874TIP3   OH235816   0.713   1.654  17.246  0.1114  0.0563  0.5161
 3874TIP3    H135817   0.751   1.623  17.163 -1.4246 -0.0960 -0.1716
 3874TIP3    H235818   0.668   1.577  17.281 -1.2842  0.7241  0.2568
 3875TIP3   OH235819   5.283   1.133  18.784 -0.1278  0.0289 -0.1926
 3875TIP3    H135820   5.372   1.113  18.756  1.7318  4.8339  1.2527
 3875TIP3    H235821   5.227   1.082  18.725  3.5327  0.3512 -4.4740
 3876TIP3   OH235822   1.668   2.351  19.133  0.3110 -0.0271  0.1871
 3876TIP3    H135823   1.760   2.327  19.126  0.4348  0.7967 -1.5118
 3876TIP3    H235824   1.621   2.283  19.085  0.2150  0.4632 -0.4333
 3877TIP3   OH235825   0.147   3.247  19.107 -0.1323  0.0545  0.0083
 3877TIP3    H135826   0.180   3.185  19.173 -1.0355  0.8340  1.2451
 3877TIP3    H235827   0.055   3.222  19.096 -0.5557  1.2882  0.6642
 3878TIP3   OH235828   0.734   1.409  19.240 -0.0773 -0.1461  0.3970
 3878TIP3    H135829   0.761   1.385  19.152  0.7609 -2.5469  1.2108
 3878TIP3    H235830   0.639   1.403  19.239 -0.0264 -1.1004 -0.1470
 3879TIP3   OH235831   1.472   2.617  19.736 -0.1599  0.3328  0.0265
 3879TIP3    H135832   1.464   2.656  19.823  1.0851  0.0781  0.2762
 3879TIP3    H235833   1.500   2.527  19.753 -0.1177  0.2173 -0.6409
 3880TIP3   OH235834   6.374   1.420  17.173  0.0198  0.3270  0.0032
 3880TIP3    H135835   6.294   1.464  17.146  0.2410 -0.0312 -1.3170
 3880TIP3    H235836   6.347   1.329  17.191  0.0489  0.3192  0.0082
 3881TIP3   OH235837   1.156   5.468  18.579 -0.0838  0.7738 -0.0601
 3881TIP3    H135838   1.128   5.435  18.664  0.1211 -3.0377 -1.3074
 3881TIP3    H235839   1.078   5.465  18.524  0.5332 -0.2497 -0.9160
 3882TIP3   OH235840   4.876   1.338  18.986 -0.2364  0.0245  0.1266
 3882TIP3    H135841   4.871   1.269  19.052  1.8047 -0.7141 -0.4011
 3882TIP3    H235842   4.915   1.295  18.910 -0.6535  1.3387 -0.8644
 3883TIP3   OH235843   4.860   2.637  19.247 -0.0407  0.3470  0.1881
 3883TIP3    H135844   4.944   2.682  19.254  0.0309  0.3940 -0.8249
 3883TIP3    H235845   4.851   2.591  19.331  1.5059 -0.5255 -0.0759
 3884TIP3   OH235846   5.167   6.219  16.765 -0.0944  0.9368 -0.3267
 3884TIP3    H135847   5.228   6.218  16.839  0.2759 -1.0293 -0.5950
 3884TIP3    H235848   5.083   6.191  16.803  0.3110 -1.0150 -0.7476
 3885TIP3   OH235849   2.679   2.254  18.923  0.0022 -0.1831  0.0830
 3885TIP3    H135850   2.681   2.237  19.017  0.7096  0.3855  0.1857
 3885TIP3    H235851   2.687   2.168  18.882 -0.1250 -0.4164  0.5451
 3886TIP3   OH235852   4.527   6.101  18.117  0.6682  0.1821 -0.0734
 3886TIP3    H135853   4.524   6.108  18.212  0.0312 -1.7184  0.0860
 3886TIP3    H235854   4.462   6.034  18.096  1.0026  0.3653 -1.8322
 3887TIP3   OH235855   1.490   5.092  16.995 -0.1612  0.3244 -0.4403
 3887TIP3    H135856   1.436   5.028  17.041 -0.4604  0.4770 -0.5771
 3887TIP3    H235857   1.518   5.047  16.915  1.1030 -0.2602  0.3036
 3888TIP3   OH235858   2.729   3.865  17.029 -0.3334  0.6934 -0.3645
 3888TIP3    H135859   2.769   3.852  17.114  1.3975  2.8712 -0.7394
 3888TIP3    H235860   2.757   3.790  16.977 -1.1897 -0.5134  0.8691
 3889TIP3   OH235861   3.703   3.791  19.561  0.3617  1.1120  0.4956
 3889TIP3    H135862   3.721   3.835  19.644  1.1964  0.6917  0.5431
 3889TIP3    H235863   3.790   3.773  19.524  0.0297  2.3730 -1.0485
 3890TIP3   OH235864   0.323   2.029  16.482  0.1938  0.2873  0.6638
 3890TIP3    H135865   0.231   2.045  16.503  0.2993  0.1809  1.2117
 3890TIP3    H235866   0.339   1.940  16.514  0.0222 -0.3759 -0.9896
 3891TIP3   OH235867   1.575   2.248  18.091 -0.1196 -0.3061  0.0629
 3891TIP3    H135868   1.573   2.343  18.096  0.1457 -0.3270  0.5951
 3891TIP3    H235869   1.642   2.229  18.025  0.5007 -0.1389  0.6292
 3892TIP3   OH235870   3.209   5.248  18.083  0.1213  0.5077  0.5623
 3892TIP3    H135871   3.119   5.270  18.107  0.3856  2.9030 -0.2958
 3892TIP3    H235872   3.260   5.325  18.110  1.4269  0.4736 -1.6175
 3893TIP3   OH235873   6.086   4.873  18.111 -0.2263 -1.0375 -0.4149
 3893TIP3    H135874   6.013   4.903  18.057  0.4666  0.0137 -0.8158
 3893TIP3    H235875   6.081   4.927  18.190 -0.4064 -1.5900 -0.0452
 3894TIP3   OH235876   6.568   4.561  18.124  0.2374  0.2156  0.0403
 3894TIP3    H135877   6.511   4.595  18.193 -1.0534 -2.3939  0.3724
 3894TIP3    H235878   6.520   4.578  18.042  0.3405  0.5403  0.0422
 3895TIP3   OH235879   0.871   4.152  19.565  0.3016 -0.1453 -0.0702
 3895TIP3    H135880   0.806   4.128  19.631  1.2069 -3.0136 -0.0563
 3895TIP3    H235881   0.916   4.228  19.602 -1.6519  0.6071  0.8546
 3896TIP3   OH235882   1.621   2.749  16.730 -0.1329  0.0163  0.2502
 3896TIP3    H135883   1.573   2.719  16.807 -0.5779  0.5210  0.1756
 3896TIP3    H235884   1.561   2.732  16.657 -0.4847  1.2692  0.2297
 3897TIP3   OH235885   5.899   3.044  18.250  0.6697  0.1140 -0.0392
 3897TIP3    H135886   5.946   2.967  18.220  1.3841  0.5937 -0.1748
 3897TIP3    H235887   5.945   3.071  18.330  0.8136  0.7581 -0.3317
 3898TIP3   OH235888   1.575   0.191  19.201 -0.0993  0.3936 -0.0775
 3898TIP3    H135889   1.569   0.286  19.188 -1.9016  0.0612 -2.4550
 3898TIP3    H235890   1.485   0.160  19.187  0.7548 -1.8135 -1.0938
 3899TIP3   OH235891   6.745   3.597  20.183 -0.9489  0.3253  0.1482
 3899TIP3    H135892   6.804   3.594  20.108  1.5116  0.8029  1.9349
 3899TIP3    H235893   6.665   3.637  20.149 -0.5882 -0.9874 -2.5525
 3900TIP3   OH235894   3.925   6.238  17.991 -0.5056  0.1765 -0.1168
 3900TIP3    H135895   3.862   6.293  18.037 -2.2974 -3.1340  1.7273
 3900TIP3    H235896   3.904   6.249  17.898 -2.1209  1.0325  0.3184
 3901TIP3   OH235897   3.161   1.574  17.841  0.7520 -0.3228 -0.7295
 3901TIP3    H135898   3.167   1.575  17.936  2.1297 -2.2334 -0.7414
 3901TIP3    H235899   3.152   1.666  17.817  1.6618  0.3223  1.1841
 3902TIP3   OH235900   6.078   0.823  19.074  0.0984 -0.3628 -0.1229
 3902TIP3    H135901   6.002   0.847  19.126 -0.5545 -2.0305 -0.2750
 3902TIP3    H235902   6.110   0.741  19.113  2.0265  0.4448  0.1481
 3903TIP3   OH235903   3.800   1.886  18.902  0.3293 -0.3962 -0.3488
 3903TIP3    H135904   3.815   1.952  18.834  0.3224 -0.3902 -0.3440
 3903TIP3    H235905   3.715   1.848  18.880 -0.3532  0.6031  0.4709
 3904TIP3   OH235906   6.012   3.112  17.684  0.6667 -0.5422  0.5176
 3904TIP3    H135907   6.039   3.103  17.592  0.8006  0.1958  0.4833
 3904TIP3    H235908   6.073   3.056  17.732  1.5123  0.1893  0.3107
 3905TIP3   OH235909   0.646   2.949  18.125  0.1399  0.2159 -0.0411
 3905TIP3    H135910   0.670   3.039  18.148 -0.5583  0.5033 -0.4035
 3905TIP3    H235911   0.727   2.911  18.092  0.2466  1.0000 -0.7315
 3906TIP3   OH235912   3.243   5.727  17.609 -0.0243  0.2473 -0.4579
 3906TIP3    H135913   3.238   5.696  17.519  1.8705 -0.9245 -0.2111
 3906TIP3    H235914   3.326   5.775  17.613  0.7316 -1.0983  1.0320
 3907TIP3   OH235915   3.272   4.240  19.841 -0.4158  0.0588  0.0731
 3907TIP3    H135916   3.228   4.290  19.771  0.2015  0.2131 -0.2138
 3907TIP3    H235917   3.272   4.299  19.916  1.4532  1.0178 -0.6352
 3908TIP3   OH235918   0.403   5.436  19.823 -0.4910  0.4097  0.0440
 3908TIP3    H135919   0.453   5.506  19.865 -1.0947  0.3837  0.8393
 3908TIP3    H235920   0.469   5.385  19.775  0.2878  0.2514  1.2251
 3909TIP3   OH235921   4.160   5.068  19.129  0.4764 -0.2961 -0.7725
 3909TIP3    H135922   4.069   5.097  19.130  1.1044  1.9854  1.2881
 3909TIP3    H235923   4.166   5.001  19.197  0.6197  0.8430  0.3844
 3910TIP3   OH235924   2.242   6.315  17.935  0.0674  0.5168 -0.1995
 3910TIP3    H135925   2.191   6.369  17.874 -0.1182  1.2659  0.5930
 3910TIP3    H235926   2.216   6.346  18.021 -0.1540 -0.9754  0.2967
 3911TIP3   OH235927   2.556   6.036  17.557  0.0975  0.0492  0.2078
 3911TIP3    H135928   2.598   6.109  17.603 -0.2901 -0.7087  1.8389
 3911TIP3    H235929   2.594   5.958  17.597 -0.0793 -0.6481 -0.9549
 3912TIP3   OH235930   6.414   4.938  17.370 -0.1569  0.0712 -0.8465
 3912TIP3    H135931   6.509   4.941  17.366 -0.0975 -1.0650 -0.5966
 3912TIP3    H235932   6.387   4.910  17.282 -0.3808  2.0125 -1.4492
 3913TIP3   OH235933   3.913   5.163  16.723 -0.0463 -0.7425  0.8450
 3913TIP3    H135934   3.903   5.217  16.644 -0.4390 -1.9256  0.0575
 3913TIP3    H235935   3.980   5.208  16.775 -0.0303  0.2421  0.0025
 3914TIP3   OH235936   5.125   5.037  17.879 -0.1307 -0.6082  0.1980
 3914TIP3    H135937   5.124   5.132  17.893  0.7008 -0.3937 -1.0235
 3914TIP3    H235938   5.127   5.000  17.967 -0.4681  0.5063  0.6947
 3915TIP3   OH235939   3.266   4.167  17.944  0.4484  0.1104 -0.6557
 3915TIP3    H135940   3.302   4.132  17.862  1.6091  0.2420 -0.2239
 3915TIP3    H235941   3.195   4.108  17.966  2.1020 -1.8162 -0.1529
 3916TIP3   OH235942   0.957   4.090  19.850 -0.0910  0.1696  0.2362
 3916TIP3    H135943   0.950   4.024  19.919 -0.5504  2.0715  2.1244
 3916TIP3    H235944   0.866   4.112  19.829  0.0438  1.3847  0.8560
 3917TIP3   OH235945   6.241   4.724  19.987 -0.2528  0.2078 -0.5746
 3917TIP3    H135946   6.210   4.809  19.955  0.3502 -0.7632 -4.3055
 3917TIP3    H235947   6.333   4.721  19.961 -0.2351 -1.5462 -0.4769
 3918TIP3   OH235948   4.543   0.922  17.928  0.0877 -0.6406 -0.3273
 3918TIP3    H135949   4.571   1.009  17.957 -0.2081 -0.6581  0.0135
 3918TIP3    H235950   4.615   0.864  17.953 -0.7001 -0.8654  1.5443
 3919TIP3   OH235951   4.185   1.158  19.721 -0.4015  0.0637 -0.1980
 3919TIP3    H135952   4.183   1.065  19.697  0.2255  0.1469 -0.5913
 3919TIP3    H235953   4.093   1.183  19.725 -0.5704 -0.4868 -0.4369
 3920TIP3   OH235954   4.634   1.141  18.067  0.1192 -0.0323 -0.4471
 3920TIP3    H135955   4.725   1.156  18.042 -0.2951 -1.1560 -2.9556
 3920TIP3    H235956   4.589   1.221  18.038  0.0854 -0.1277 -0.6625
 3921TIP3   OH235957   6.131   6.195  18.220  0.0063  0.1298  0.0341
 3921TIP3    H135958   6.157   6.144  18.143  1.4986  0.9689 -0.0502
 3921TIP3    H235959   6.039   6.216  18.204  0.2891  0.3182 -1.5700
 3922TIP3   OH235960   5.157   3.368  17.378  0.3372  0.0626  0.2508
 3922TIP3    H135961   5.133   3.352  17.287 -0.6387 -0.5845  0.6128
 3922TIP3    H235962   5.074   3.371  17.426  0.7478  1.6935  0.9383
 3923TIP3   OH235963   1.534   3.705  17.343  0.2569  0.2485 -0.5088
 3923TIP3    H135964   1.521   3.651  17.265  0.9211 -1.3598  0.4297
 3923TIP3    H235965   1.628   3.722  17.345  0.4854 -0.9581  0.6587
 3924TIP3   OH235966   4.425   1.456  18.227 -0.5566 -0.2429  0.0479
 3924TIP3    H135967   4.431   1.475  18.134 -2.1751 -1.2951 -0.3002
 3924TIP3    H235968   4.417   1.541  18.269  0.2280  0.2368 -0.7600
 3925TIP3   OH235969   0.112   2.024  19.223  0.9225  0.1315 -0.0020
 3925TIP3    H135970   0.170   2.009  19.297  1.4536  1.0867 -0.2049
 3925TIP3    H235971   0.162   2.082  19.164  0.3429 -0.2473 -0.8895
 3926TIP3   OH235972   5.863   1.805  17.065  0.4108 -0.2469 -0.2600
 3926TIP3    H135973   5.925   1.767  17.128  0.1554  0.8387  0.6887
 3926TIP3    H235974   5.786   1.748  17.070  0.5991 -0.4843  0.0152
 3927TIP3   OH235975   6.656   3.672  17.661 -0.2455  0.4110  0.4235
 3927TIP3    H135976   6.631   3.694  17.751 -2.0371 -1.6900  0.5258
 3927TIP3    H235977   6.625   3.747  17.609 -0.5546  0.9770  1.4000
 3928TIP3   OH235978   5.064   2.232  19.772 -0.1603 -0.1849  0.3041
 3928TIP3    H135979   5.141   2.185  19.740  0.7513  0.6367  1.2030
 3928TIP3    H235980   5.007   2.164  19.807  0.4530 -0.7525  0.2139
 3929TIP3   OH235981   4.570   0.222  17.900  0.0575  0.1568  0.7860
 3929TIP3    H135982   4.607   0.310  17.895  0.1647  0.2472  2.4551
 3929TIP3    H235983   4.531   0.207  17.815  1.7141  1.0700 -0.1929
 3930TIP3   OH235984   4.432   2.703  18.109  0.1372 -0.1010  0.0137
 3930TIP3    H135985   4.521   2.728  18.085  0.8416 -1.4090  1.1022
 3930TIP3    H235986   4.443   2.638  18.178 -1.6999  1.2747  1.7585
 3931TIP3   OH235987   1.417   6.212  18.116 -0.0413  0.6737  0.4443
 3931TIP3    H135988   1.323   6.196  18.114 -0.0249  0.4340  1.3159
 3931TIP3    H235989   1.435   6.259  18.035 -0.8476  0.3866  0.0873
 3932TIP3   OH235990   4.581   1.725  19.750  0.1020 -0.4079 -0.1603
 3932TIP3    H135991   4.536   1.805  19.722  1.2817  0.2702 -0.1739
 3932TIP3    H235992   4.643   1.754  19.816  0.1816 -1.4008  0.2221
 3933TIP3   OH235993   5.537   0.055  18.003 -0.8118 -0.3589 -0.1216
 3933TIP3    H135994   5.481   0.109  18.059 -0.1057  0.2811 -0.0166
 3933TIP3    H235995   5.607   0.114  17.974  0.5035 -1.4198  0.7360
 3934TIP3   OH235996   6.474   3.316  17.843  0.1318  0.5258 -0.0356
 3934TIP3    H135997   6.534   3.242  17.848 -0.8194 -0.2244  0.8564
 3934TIP3    H235998   6.509   3.379  17.906 -0.6455 -0.4265  1.4202
 3935TIP3   OH235999   0.552   0.933  19.429 -0.7550 -0.5488  0.1886
 3935TIP3    H136000   0.646   0.946  19.415 -1.1404  1.3771 -0.9293
 3935TIP3    H236001   0.547   0.885  19.512  1.1845  1.0228  1.3160
 3936TIP3   OH236002   5.761   5.520  17.680  0.4453 -0.9514  0.5643
 3936TIP3    H136003   5.710   5.440  17.693  1.0451 -1.3211  0.6563
 3936TIP3    H236004   5.849   5.490  17.659  0.7286 -0.3146  0.7995
 3937TIP3   OH236005   6.134   1.334  18.503 -0.2654 -0.0662  0.6544
 3937TIP3    H136006   6.136   1.361  18.595 -1.2242 -1.9837  1.2812
 3937TIP3    H236007   6.042   1.340  18.478  0.1374  1.6269 -0.6049
 3938TIP3   OH236008   0.443   4.426  17.858  0.6746  0.7053  0.5008
 3938TIP3    H136009   0.365   4.449  17.908  0.5718  1.7599 -0.1088
 3938TIP3    H236010   0.481   4.352  17.905 -0.5815  0.3024  0.9111
 3939TIP3   OH236011   6.086   1.130  18.909 -0.3980  0.0307 -0.0213
 3939TIP3    H136012   6.089   1.199  18.842 -0.7278  0.5880  0.5275
 3939TIP3    H236013   6.177   1.121  18.938 -0.5075  1.0650  0.7177
 3940TIP3   OH236014   1.735   5.897  19.953 -0.2546 -0.3263 -0.3038
 3940TIP3    H136015   1.827   5.870  19.949 -0.1671 -0.1186  0.2120
 3940TIP3    H236016   1.735   5.974  20.011 -0.1937  2.0826 -3.2443
 3941TIP3   OH236017   1.467   2.045  19.842 -0.0666 -0.6577  0.1621
 3941TIP3    H136018   1.514   2.054  19.925  0.3166 -0.5236 -0.0730
 3941TIP3    H236019   1.378   2.073  19.863 -0.3646 -2.0382  0.8992
 3942TIP3   OH236020   0.200   2.175  17.079 -0.3396  0.4940 -0.5395
 3942TIP3    H136021   0.226   2.114  17.010 -2.4921 -0.7618 -0.3152
 3942TIP3    H236022   0.196   2.261  17.035  0.2523  0.0679 -1.4626
 3943TIP3   OH236023   1.448   6.411  19.295  0.2082 -0.5666 -0.1338
 3943TIP3    H136024   1.463   6.405  19.201 -1.4133  1.3937 -0.5868
 3943TIP3    H236025   1.369   6.360  19.310  0.9484 -1.6136  0.3564
 3944TIP3   OH236026   6.091   5.803  18.181  0.5237  0.0793  0.2360
 3944TIP3    H136027   6.071   5.744  18.109  1.1828  1.0580 -0.7998
 3944TIP3    H236028   6.012   5.856  18.192  0.3684 -0.1743  0.3247
 3945TIP3   OH236029   5.345   1.959  18.262  0.2548  0.4881  0.7966
 3945TIP3    H136030   5.314   2.049  18.262 -1.3564 -0.0211 -0.0846
 3945TIP3    H236031   5.266   1.907  18.278  0.3934 -0.9304 -2.4397
 3946TIP3   OH236032   6.221   5.406  17.446 -0.2058 -0.7167 -0.4539
 3946TIP3    H136033   6.171   5.487  17.437  1.4493  0.3714 -0.2253
 3946TIP3    H236034   6.155   5.337  17.441 -1.4339  0.5012 -3.0559
 3947TIP3   OH236035   1.422   1.396  19.602 -0.6834  0.5071  0.0500
 3947TIP3    H136036   1.360   1.327  19.578  0.8492 -1.7825  2.2939
 3947TIP3    H236037   1.466   1.417  19.520 -0.0822 -2.3977 -0.4843
 3948TIP3   OH236038   1.551   6.330  19.921  0.0228 -0.2073  0.6309
 3948TIP3    H136039   1.516   6.308  20.008 -1.1966  1.9620  0.7557
 3948TIP3    H236040   1.582   6.420  19.930 -1.3964  0.5712 -1.4967
 3949TIP3   OH236041   5.349   6.470  16.816 -0.6525 -0.1095  0.4313
 3949TIP3    H136042   5.321   6.536  16.879 -1.5797 -0.1397  0.0781
 3949TIP3    H236043   5.294   6.486  16.739 -0.3939 -0.8434  0.0835
 3950TIP3   OH236044   3.775   6.151  19.298 -0.2705  0.4397 -0.5133
 3950TIP3    H136045   3.684   6.120  19.303  0.1754 -0.8728 -0.2390
 3950TIP3    H236046   3.805   6.122  19.212  0.0883  0.3226 -0.3463
 3951TIP3   OH236047   0.119   5.733  17.456  0.1288  0.3025  0.0918
 3951TIP3    H136048   0.133   5.658  17.514  1.7077  0.6648  0.2295
 3951TIP3    H236049   0.195   5.732  17.398 -0.2426  1.3373 -0.4250
 3952TIP3   OH236050   2.017   0.487  17.840  0.3423  0.1192 -0.3033
 3952TIP3    H136051   2.013   0.438  17.757 -1.1893  1.2333 -0.9386
 3952TIP3    H236052   2.057   0.426  17.902  2.7221 -0.3312 -2.1323
 3953TIP3   OH236053   4.401   1.065  18.611 -0.0654 -0.2092 -0.0759
 3953TIP3    H136054   4.448   1.017  18.543 -1.7941 -0.8344 -0.8662
 3953TIP3    H236055   4.427   1.023  18.693  0.4105 -0.8166 -0.5315
 3954TIP3   OH236056   2.891   3.176  17.819 -0.0244  0.1623  0.2884
 3954TIP3    H136057   2.824   3.155  17.884 -0.0724  2.5905  1.1517
 3954TIP3    H236058   2.969   3.198  17.871  0.9229 -0.8772 -0.6335
 3955TIP3   OH236059   5.154   5.650  18.065  0.5280  0.1835 -0.0322
 3955TIP3    H136060   5.183   5.737  18.091  0.9320 -0.1457  0.6280
 3955TIP3    H236061   5.153   5.652  17.969  0.7885  0.8245 -0.0207
 3956TIP3   OH236062   0.523   6.336  18.246  0.0570 -0.3230 -0.0945
 3956TIP3    H136063   0.559   6.252  18.219 -0.7131 -0.7937  0.2918
 3956TIP3    H236064   0.566   6.401  18.189 -0.3750 -1.1195 -1.3795
 3957TIP3   OH236065   6.291   6.439  18.193 -0.0847  0.3209 -0.3005
 3957TIP3    H136066   6.232   6.366  18.209  1.0201 -0.1720  1.9845
 3957TIP3    H236067   6.331   6.420  18.109 -1.9819 -0.1172 -1.1625
 3958TIP3   OH236068   4.858   2.640  17.626  0.6030 -0.2998  0.1056
 3958TIP3    H136069   4.804   2.607  17.554 -0.0793  0.0041  0.4695
 3958TIP3    H236070   4.948   2.635  17.593  0.2370  0.6549 -1.0997
 3959TIP3   OH236071   0.432   5.240  17.850  0.0400 -0.4403  0.3623
 3959TIP3    H136072   0.392   5.286  17.923  1.4981  0.8734  0.3861
 3959TIP3    H236073   0.512   5.290  17.831 -0.8070 -0.0991 -2.8278
 3960TIP3   OH236074   1.258   6.784  19.531 -0.7343  0.0584 -0.3396
 3960TIP3    H136075   1.210   6.852  19.482 -0.0953 -0.3789 -1.6131
 3960TIP3    H236076   1.325   6.753  19.470 -0.2249 -0.8644  0.6560
 3961TIP3   OH236077   3.136   0.808  18.089  0.7970  0.0703 -0.1097
 3961TIP3    H136078   3.166   0.778  18.175  0.8253  0.0664 -0.1209
 3961TIP3    H236079   3.048   0.842  18.105  1.5694  1.9917  0.3289
 3962TIP3   OH236080   5.304   5.541  18.610 -0.2644 -0.7987 -0.2730
 3962TIP3    H136081   5.320   5.636  18.613  2.5655 -1.1686 -1.0109
 3962TIP3    H236082   5.304   5.514  18.702  2.5820 -0.5305 -0.1236
 3963TIP3   OH236083   0.045   5.222  17.721  0.1365  0.1288 -0.0594
 3963TIP3    H136084   0.113   5.239  17.656  0.6811  1.5123  0.8387
 3963TIP3    H236085   0.084   5.248  17.804 -0.8415 -0.8362  0.7274
 3964TIP3   OH236086   6.560   5.385  19.154 -0.1332  0.1611 -0.3775
 3964TIP3    H136087   6.500   5.394  19.229 -0.1213  2.9512 -0.5866
 3964TIP3    H236088   6.634   5.442  19.176  1.6739 -1.8516 -0.9305
 3965TIP3   OH236089   0.182   1.651  19.379  0.0733  0.3078 -0.1074
 3965TIP3    H136090   0.227   1.645  19.294  1.5165  0.1186  0.6413
 3965TIP3    H236091   0.089   1.651  19.357  0.4251  1.3762 -1.7636
 3966TIP3   OH236092   4.618   4.948  17.027 -0.2723  0.0354  0.1357
 3966TIP3    H136093   4.601   4.881  17.094  0.7430 -0.0007  0.3759
 3966TIP3    H236094   4.539   4.949  16.973  0.0650 -2.0813 -0.4825
 3967TIP3   OH236095   3.462   5.132  19.932 -0.6506  0.1493  0.2547
 3967TIP3    H136096   3.411   5.136  20.013  2.2423 -0.5545  2.2852
 3967TIP3    H236097   3.436   5.050  19.891 -0.4826 -0.7219  1.7858
 3968TIP3   OH236098   6.760   0.013  19.713 -0.5195 -0.6369  0.5897
 3968TIP3    H136099   6.744   0.079  19.780 -1.0274  0.5273 -0.6362
 3968TIP3    H236100   6.825   0.053  19.655 -0.8432 -1.2076 -0.1825
 3969TIP3   OH236101   0.713   4.759  18.482  0.4812 -0.3055  1.0029
 3969TIP3    H136102   0.647   4.689  18.476 -0.8900  0.9421  1.0187
 3969TIP3    H236103   0.675   4.822  18.543  1.3061  0.8631  0.3377
 3970TIP3   OH236104   5.436   6.253  18.995  0.4795 -0.3258 -0.1326
 3970TIP3    H136105   5.516   6.207  18.970 -0.4164 -0.5737 -2.8309
 3970TIP3    H236106   5.408   6.298  18.916 -1.2661  1.0064  1.1454
 3971TIP3   OH236107   5.191   4.891  18.134 -0.5777  0.7384 -0.1886
 3971TIP3    H136108   5.156   4.909  18.222  0.7326  1.9082  0.1387
 3971TIP3    H236109   5.271   4.943  18.130  0.8804 -1.4262 -1.0707
 3972TIP3   OH236110   4.799   2.379  19.757  1.1904 -0.3875  0.5491
 3972TIP3    H136111   4.814   2.285  19.768  2.3396 -0.9831 -3.9874
 3972TIP3    H236112   4.886   2.418  19.766  1.9112 -0.7318 -3.1374
 3973TIP3   OH236113   4.195   3.395  17.568  0.2102 -0.0768 -0.6533
 3973TIP3    H136114   4.120   3.335  17.570 -1.5523  1.9884 -0.5386
 3973TIP3    H236115   4.226   3.391  17.478 -3.1347  2.4155 -2.1492
 3974TIP3   OH236116   0.251   3.200  18.365 -0.1251  0.2926  0.2538
 3974TIP3    H136117   0.284   3.240  18.445 -0.2461  0.2492  0.3254
 3974TIP3    H236118   0.216   3.115  18.392  0.5483 -0.0667  0.0338
 3975TIP3   OH236119   5.379   2.165  19.410 -0.3107  0.1032 -0.1091
 3975TIP3    H136120   5.297   2.212  19.399 -0.7614 -0.7771 -0.6034
 3975TIP3    H236121   5.374   2.127  19.498 -1.1000 -1.1593 -0.6621
 3976TIP3   OH236122   1.778   2.590  17.720 -0.2019  0.0256 -0.5564
 3976TIP3    H136123   1.763   2.682  17.699  1.1236  0.0319 -1.6128
 3976TIP3    H236124   1.820   2.591  17.806 -1.3249  0.3074  0.0061
 3977TIP3   OH236125   5.417   2.074  17.666  0.2903 -0.1765 -0.2621
 3977TIP3    H136126   5.339   2.128  17.659  0.5891  0.5437  1.4954
 3977TIP3    H236127   5.490   2.133  17.647  0.5347 -0.2875  0.2950
 3978TIP3   OH236128   4.366   0.954  17.738  0.0614 -0.5877  0.7044
 3978TIP3    H136129   4.439   0.909  17.694  0.5096  0.3662  0.4371
 3978TIP3    H236130   4.399   0.973  17.826  0.6466  0.9804  0.1836
 3979TIP3   OH236131   6.391   6.602  16.636  0.1954  0.2791 -0.2369
 3979TIP3    H136132   6.454   6.673  16.652  1.9280 -0.5726 -2.6519
 3979TIP3    H236133   6.350   6.587  16.720 -0.0807  3.9683  0.4722
 3980TIP3   OH236134   4.562   6.341  17.463  0.3715 -0.0075 -0.4485
 3980TIP3    H136135   4.486   6.345  17.404 -0.9855  0.7491  1.2474
 3980TIP3    H236136   4.548   6.413  17.524  1.2227 -1.2887  1.3239
 3981TIP3   OH236137   4.838   3.654  19.114  0.6077 -0.4973  0.2892
 3981TIP3    H136138   4.804   3.577  19.161  0.6515 -0.4228  0.4422
 3981TIP3    H236139   4.760   3.691  19.072  0.8827 -1.8148 -1.5303
 3982TIP3   OH236140   2.371   6.506  18.711  0.8495 -0.5524 -0.0447
 3982TIP3    H136141   2.448   6.457  18.739  0.0258 -1.0127  1.5455
 3982TIP3    H236142   2.401   6.559  18.637  2.1843 -2.1728 -0.7180
 3983TIP3   OH236143   4.522   6.385  18.071 -0.2979  0.2104  0.2937
 3983TIP3    H136144   4.531   6.292  18.094  3.4973  0.2280 -0.4936
 3983TIP3    H236145   4.516   6.385  17.975 -0.2674  0.7537  0.2902
 3984TIP3   OH236146   3.950   3.725  19.424 -0.3416 -0.3998  0.1751
 3984TIP3    H136147   3.925   3.745  19.334 -0.1179 -0.2054  0.1565
 3984TIP3    H236148   4.004   3.799  19.451 -2.9710  1.2108  1.5537
 3985TIP3   OH236149   3.235   5.339  19.009  0.2143 -0.3785  0.2723
 3985TIP3    H136150   3.225   5.372  19.098 -2.5371  1.3009 -0.5325
 3985TIP3    H236151   3.182   5.260  19.006  1.2106 -1.0701  0.3782
 3986TIP3   OH236152   2.652   2.711  18.278 -0.3898  0.1344  0.7340
 3986TIP3    H136153   2.692   2.684  18.196  0.0610 -0.4490  1.1328
 3986TIP3    H236154   2.558   2.717  18.260 -0.3083 -0.1451  0.2246
 3987TIP3   OH236155   1.304   3.777  19.322  0.3212  0.1131  0.1424
 3987TIP3    H136156   1.345   3.858  19.351 -0.7751  0.5365  0.5637
 3987TIP3    H236157   1.222   3.804  19.281  0.5316 -0.6970 -0.8606
 3988TIP3   OH236158   3.387   5.105  17.911  0.5636 -0.2661 -0.2043
 3988TIP3    H136159   3.313   5.132  17.965 -0.0878 -0.8352 -0.8028
 3988TIP3    H236160   3.454   5.172  17.927  0.5668 -0.6380  1.6404
 3989TIP3   OH236161   4.992   1.767  18.001 -0.4066  0.2272  0.0504
 3989TIP3    H136162   4.979   1.691  17.945 -2.0332  2.1808 -2.4126
 3989TIP3    H236163   5.067   1.812  17.963  1.0675 -0.4257  1.9771
 3990TIP3   OH236164   2.928   1.242  18.530  0.5506  0.6089  0.2410
 3990TIP3    H136165   2.861   1.174  18.542  1.5492 -0.3249  0.8072
 3990TIP3    H236166   3.009   1.193  18.512  1.1331  1.6875 -0.1675
 3991TIP3   OH236167   2.856   3.137  18.540  0.1560  0.0205 -0.3121
 3991TIP3    H136168   2.888   3.139  18.449  0.6909 -0.4043 -0.1400
 3991TIP3    H236169   2.915   3.076  18.584  0.1958  0.5938  0.4330
 3992TIP3   OH236170   5.923   4.801  17.720 -0.5363  0.0714  0.3395
 3992TIP3    H136171   5.892   4.716  17.690  1.4575 -0.4952 -0.2863
 3992TIP3    H236172   5.968   4.838  17.644  1.5242  0.1677  1.5325
 3993TIP3   OH236173   6.776   2.205  19.544 -0.8641 -0.2598  0.1126
 3993TIP3    H136174   6.825   2.285  19.524  0.9808 -1.6337 -1.2968
 3993TIP3    H236175   6.841   2.148  19.587 -2.6504 -0.3506  2.9430
 3994TIP3   OH236176   0.331   1.609  19.160 -0.3265 -0.0743 -0.1536
 3994TIP3    H136177   0.308   1.570  19.075 -0.7684  0.4865 -0.2986
 3994TIP3    H236178   0.419   1.644  19.146  0.0458 -0.9388 -0.0426
 3995TIP3   OH236179   1.434   2.754  19.973 -0.5724 -0.5180 -0.2859
 3995TIP3    H136180   1.398   2.759  20.061 -1.7111 -2.5294 -0.5649
 3995TIP3    H236181   1.426   2.843  19.938  0.4058  0.4428  1.7727
 3996TIP3   OH236182   2.143   1.300  17.065 -0.6412 -0.0512  0.0464
 3996TIP3    H136183   2.078   1.254  17.013 -1.8189  1.1515  0.4001
 3996TIP3    H236184   2.222   1.300  17.010 -1.9630  1.5689 -1.9857
 3997TIP3   OH236185   2.568   3.151  18.182  0.8520  0.0003  0.0276
 3997TIP3    H136186   2.484   3.197  18.187  0.5828 -0.2257 -1.7901
 3997TIP3    H236187   2.572   3.099  18.262 -0.6426  0.1810  0.2442
 3998TIP3   OH236188   5.874   5.088  18.227 -0.0244  0.2498  0.1788
 3998TIP3    H136189   5.918   5.170  18.246  0.9663 -0.4082  0.8650
 3998TIP3    H236190   5.876   5.080  18.131 -1.3949  1.6631 -0.0049
 3999TIP3   OH236191   6.082   3.852  19.738  0.1718 -0.3739  0.1892
 3999TIP3    H136192   6.122   3.772  19.771  1.5149  1.5344  3.6297
 3999TIP3    H236193   6.149   3.890  19.681 -0.1153 -1.1351 -0.7036
 4000TIP3   OH236194   2.868   0.988  17.219  0.1927  0.4981  0.2222
 4000TIP3    H136195   2.932   0.940  17.168  1.0407 -1.2407  2.7602
 4000TIP3    H236196   2.853   1.069  17.168  0.1403 -1.4766 -3.2280
 4001TIP3   OH236197   1.207   3.151  17.521  0.0237  0.1798  0.3433
 4001TIP3    H136198   1.150   3.096  17.467 -1.3511  0.6783  1.2210
 4001TIP3    H236199   1.222   3.229  17.469 -1.4633  0.7484  0.6951
 4002TIP3   OH236200   4.464   6.648  19.233 -0.1127  0.5518 -0.6018
 4002TIP3    H136201   4.393   6.712  19.230 -0.4511  0.1560 -1.0857
 4002TIP3    H236202   4.544   6.701  19.234 -0.3433  0.9960 -2.3854
 4003TIP3   OH236203   5.757   1.036  18.792  0.0118 -0.6564 -0.3072
 4003TIP3    H136204   5.785   1.016  18.703 -0.2950 -2.1623 -0.0893
 4003TIP3    H236205   5.721   0.953  18.826 -1.9238  0.4343  0.4638
 4004TIP3   OH236206   2.671   5.820  18.094 -0.0077  0.1350  0.8132
 4004TIP3    H136207   2.640   5.745  18.145  1.2723 -0.5699  0.5960
 4004TIP3    H236208   2.601   5.836  18.031  0.0242 -1.4176  0.3303
 4005TIP3   OH236209   1.526   2.377  16.900  0.4119  0.1966  0.2199
 4005TIP3    H136210   1.437   2.361  16.867  0.4261  1.2621 -0.3631
 4005TIP3    H236211   1.523   2.465  16.936  0.7616 -0.4356  1.8999
 4006TIP3   OH236212   5.882   3.137  19.136 -0.5012 -0.1351 -0.1534
 4006TIP3    H136213   5.812   3.195  19.166  0.5471  0.7969  0.5623
 4006TIP3    H236214   5.926   3.109  19.216  0.1282 -0.4640 -0.6088
 4007TIP3   OH236215   1.769   4.486  19.409 -0.3489  0.4175  0.3964
 4007TIP3    H136216   1.689   4.502  19.459 -0.2932 -0.6866  0.8714
 4007TIP3    H236217   1.750   4.406  19.360 -0.9649  2.2237 -2.5726
 4008TIP3   OH236218   2.575   6.457  19.386  0.1367 -0.3432 -0.2976
 4008TIP3    H136219   2.647   6.393  19.381  0.2856 -0.2665  0.7335
 4008TIP3    H236220   2.554   6.462  19.479 -0.8522  0.0404 -0.5327
 4009TIP3   OH236221   3.103   0.256  19.176  0.0364 -0.5995 -0.1467
 4009TIP3    H136222   3.018   0.298  19.172  0.4629  0.2969  0.0356
 4009TIP3    H236223   3.098   0.184  19.113 -2.0162 -2.7508  2.2097
 4010TIP3   OH236224   0.593   2.127  18.500 -0.4675  0.1234 -0.1635
 4010TIP3    H136225   0.595   2.074  18.580 -0.8477  0.6554  0.2043
 4010TIP3    H236226   0.509   2.105  18.459  0.2455 -1.0462 -1.0451
 4011TIP3   OH236227   0.255   3.611  19.923  0.4913 -0.1341 -0.6437
 4011TIP3    H136228   0.326   3.588  19.862  0.0338 -0.3192 -1.1100
 4011TIP3    H236229   0.199   3.534  19.925  1.6008 -0.9481  1.6406
 4012TIP3   OH236230   6.559   2.059  17.609  0.6759 -0.5893 -0.1030
 4012TIP3    H136231   6.556   2.155  17.607  0.1428 -0.6026  0.0109
 4012TIP3    H236232   6.588   2.035  17.522 -1.4510 -0.3993 -0.9071
 4013TIP3   OH236233   5.650   6.510  15.860  0.6237 -0.3402  0.1166
 4013TIP3    H136234   5.612   6.423  15.869 -0.7925  0.1904 -0.4504
 4013TIP3    H236235   5.634   6.552  15.944 -1.5527  0.4124 -0.6000
 4014TIP3   OH236236   6.516   2.035  20.027 -0.7424  0.1309  0.3644
 4014TIP3    H136237   6.525   1.943  20.003 -0.3773  0.2802 -0.0797
 4014TIP3    H236238   6.602   2.073  20.008 -1.1467  0.7472 -0.2900
 4015TIP3   OH236239   5.425   1.322  17.623 -0.4241  0.8063  0.1400
 4015TIP3    H136240   5.477   1.373  17.560  1.0865 -0.2791  0.4553
 4015TIP3    H236241   5.454   1.232  17.611 -1.6303  0.2805  0.9596
 4016TIP3   OH236242   3.044   4.025  18.549  0.8386  0.2018  0.0412
 4016TIP3    H136243   3.130   3.998  18.580 -0.0808  0.0484  2.6375
 4016TIP3    H236244   2.983   3.961  18.585 -0.5053  0.9439 -0.8025
 4017TIP3   OH236245   3.729   5.898  17.644 -0.0353 -0.3065  0.7401
 4017TIP3    H136246   3.803   5.900  17.705  1.7217 -1.1171 -1.2354
 4017TIP3    H236247   3.717   5.989  17.618  0.7016 -0.2372  0.6146
 4018TIP3   OH236248   4.351   6.143  16.998 -0.4438 -0.0884  0.1957
 4018TIP3    H136249   4.259   6.119  17.002 -0.5034 -0.2932 -1.3875
 4018TIP3    H236250   4.352   6.228  16.953 -0.0540  1.6849  3.3027
 4019TIP3   OH236251   6.506   6.576  17.122 -0.0567  0.9532 -0.1850
 4019TIP3    H136252   6.476   6.558  17.211 -0.0053 -0.7530 -0.4918
 4019TIP3    H236253   6.591   6.620  17.134 -0.5841  1.7982  0.6047
 4020TIP3   OH236254   3.067   3.428  17.290  0.5000  0.2605  0.1470
 4020TIP3    H136255   3.086   3.522  17.288 -1.5986  0.8009  1.8797
 4020TIP3    H236256   3.005   3.415  17.219  0.5808  0.2345  0.0802
 4021TIP3   OH236257   6.077   2.504  18.263 -0.3735  0.2688 -0.3218
 4021TIP3    H136258   6.152   2.479  18.317 -0.1836  0.3243 -0.5613
 4021TIP3    H236259   6.112   2.513  18.175 -0.9171 -1.0554 -0.7072
 4022TIP3   OH236260   1.443   6.705  19.350  0.3290  0.5157  0.1232
 4022TIP3    H136261   1.462   6.727  19.259  0.1879  0.9904  0.2120
 4022TIP3    H236262   1.425   6.611  19.348 -0.4138  0.6651 -0.4530
 4023TIP3   OH236263   3.027   4.254  19.409 -0.5517  0.4149 -0.1614
 4023TIP3    H136264   3.112   4.209  19.412  0.1447  1.6054 -1.1765
 4023TIP3    H236265   2.963   4.185  19.426  0.6005 -0.5566  0.3945
 4024TIP3   OH236266   2.383   3.042  19.175 -0.2610 -0.1780 -0.0735
 4024TIP3    H136267   2.319   3.050  19.245  1.3449  2.7317  1.2420
 4024TIP3    H236268   2.468   3.047  19.219  0.9790 -3.1670 -1.8171
 4025TIP3   OH236269   6.793   1.019  19.653  0.5035 -0.4685  0.7935
 4025TIP3    H136270   6.738   1.036  19.729  1.1419 -0.5627  1.2852
 4025TIP3    H236271   6.745   0.954  19.602 -1.1676  1.4583 -0.2275
 4026TIP3   OH236272   5.500   4.797  16.480  0.5478 -0.4829  0.2524
 4026TIP3    H136273   5.436   4.838  16.423  0.4610 -1.5683 -0.4691
 4026TIP3    H236274   5.549   4.737  16.423  1.2175 -0.7605  1.0827
 4027TIP3   OH236275   5.771   4.174  18.320 -0.0179  0.0686  0.2233
 4027TIP3    H136276   5.720   4.093  18.328  0.8009 -0.4910 -0.1644
 4027TIP3    H236277   5.725   4.236  18.377  0.2484 -1.1168  1.8015
 4028TIP3   OH236278   0.105   1.427  19.102  0.4114 -0.1831  0.7541
 4028TIP3    H136279   0.138   1.460  19.185  1.4994 -0.0054  0.2726
 4028TIP3    H236280   0.096   1.333  19.115  0.1726 -0.0984  1.1986
 4029TIP3   OH236281   1.526   5.913  18.621  0.0452 -0.0175  0.5510
 4029TIP3    H136282   1.616   5.896  18.596  0.0340  0.6325  0.0224
 4029TIP3    H236283   1.473   5.868  18.555 -0.0097 -0.0583  0.6225
 4030TIP3   OH236284   5.688   4.276  18.073  0.3911 -0.0592  0.1357
 4030TIP3    H136285   5.605   4.319  18.092 -0.0385 -1.2309  1.0206
 4030TIP3    H236286   5.729   4.263  18.158  0.6286 -1.1525 -0.1327
 4031TIP3   OH236287   0.897   5.780  19.941  0.2989 -0.4116  0.0513
 4031TIP3    H136288   0.859   5.707  19.990  1.2235  1.1439  3.3798
 4031TIP3    H236289   0.987   5.752  19.924  0.5117 -0.2574  0.8920
 4032TIP3   OH236290   2.077   1.961  19.597 -0.4210  0.1188  0.0685
 4032TIP3    H136291   2.025   1.927  19.524 -2.5592 -1.0250  2.0024
 4032TIP3    H236292   2.168   1.941  19.574 -1.0990 -0.9041 -1.8922
 4033TIP3   OH236293   4.504   5.237  16.923 -0.8086 -0.2086 -0.3060
 4033TIP3    H136294   4.481   5.298  16.853 -0.5825 -0.2774 -0.4400
 4033TIP3    H236295   4.567   5.178  16.884 -0.0020  0.2969  0.2032
 4034TIP3   OH236296   6.195   5.128  17.448  0.0082 -0.4576  0.3486
 4034TIP3    H136297   6.249   5.055  17.479 -0.8145 -0.6939  1.2818
 4034TIP3    H236298   6.182   5.110  17.355  0.3448 -1.1603  0.4291
 4035TIP3   OH236299   5.607   3.486  17.968 -0.0805  0.5289  1.0230
 4035TIP3    H136300   5.603   3.542  17.890 -0.3305  0.4707  0.9928
 4035TIP3    H236301   5.685   3.433  17.956 -0.6526 -0.1714  0.3442
 4036TIP3   OH236302   5.960   6.364  18.073 -0.6405 -0.4221  0.7036
 4036TIP3    H136303   5.872   6.365  18.033 -0.8247 -0.3564  1.1066
 4036TIP3    H236304   5.985   6.456  18.076  0.2189 -0.5470 -1.0731
 4037TIP3   OH236305   1.223   0.028  19.046  0.1182 -0.3449 -0.0512
 4037TIP3    H136306   1.313  -0.006  19.040  0.6754  0.9115  0.7132
 4037TIP3    H236307   1.168  -0.051  19.050  1.3459 -1.1840  1.4948
 4038TIP3   OH236308   5.943   0.040  18.292  0.0497 -0.0246  0.0305
 4038TIP3    H136309   5.878   0.082  18.348  0.6725  3.2440 -1.4681
 4038TIP3    H236310   5.893  -0.025  18.242 -2.4182  2.8632 -1.6134
 4039TIP3   OH236311   4.108   3.089  19.061 -0.0455  0.5526 -0.5446
 4039TIP3    H136312   4.101   3.172  19.108  0.8442  0.4270 -0.1681
 4039TIP3    H236313   4.181   3.102  19.001  0.2659 -0.0427 -0.2996
 4040TIP3   OH236314   3.984   0.710  18.158 -0.3955  0.2903 -0.3656
 4040TIP3    H136315   4.017   0.625  18.189 -1.6083  0.3806  1.3262
 4040TIP3    H236316   3.921   0.688  18.090 -0.8834 -0.1986  0.2331
 4041TIP3   OH236317   0.068   5.217  16.764 -0.0955  0.5046  0.3471
 4041TIP3    H136318   0.072   5.131  16.807 -2.5135  0.5819  0.8363
 4041TIP3    H236319   0.086   5.197  16.671 -0.5888 -0.5256  0.4552
 4042TIP3   OH236320   1.747   1.296  19.932 -0.2729  0.1820 -0.1930
 4042TIP3    H136321   1.680   1.356  19.967  0.2246 -0.0836  1.2916
 4042TIP3    H236322   1.735   1.216  19.982 -0.2699 -0.6407 -1.4737
 4043TIP3   OH236323   2.195   1.802  18.159 -0.0608  0.4603  0.3758
 4043TIP3    H136324   2.109   1.838  18.138 -0.3996 -0.3092  0.4316
 4043TIP3    H236325   2.221   1.848  18.239 -1.0166 -0.2489  1.1147
 4044TIP3   OH236326   1.055   2.323  17.510 -0.1201 -0.1815 -0.6964
 4044TIP3    H136327   1.107   2.389  17.555 -1.3264  0.4726 -0.2083
 4044TIP3    H236328   1.067   2.244  17.562  0.2267  0.0146 -0.4746
 4045TIP3   OH236329   4.261   4.564  18.512  0.4627  0.6724  0.2058
 4045TIP3    H136330   4.186   4.615  18.483 -0.3327 -0.3329  0.4486
 4045TIP3    H236331   4.316   4.555  18.434 -0.8393 -0.6071 -0.5971
 4046TIP3   OH236332   1.707   5.266  18.493 -0.2590 -0.2739 -0.5926
 4046TIP3    H136333   1.723   5.231  18.405 -1.4216 -0.0829 -0.8939
 4046TIP3    H236334   1.674   5.192  18.543  2.2023 -0.8830  0.2699
 4047TIP3   OH236335   5.765   1.051  17.005 -0.3683 -0.5834  0.5302
 4047TIP3    H136336   5.809   1.045  16.920  0.6258 -0.8188  1.0491
 4047TIP3    H236337   5.760   1.145  17.022  1.0270 -0.5804  1.0098
 4048TIP3   OH236338   6.351   2.943  18.528 -0.0552  0.5567 -0.1151
 4048TIP3    H136339   6.426   2.931  18.586 -0.6312  0.5854  0.6466
 4048TIP3    H236340   6.286   2.990  18.581 -1.6340 -1.7163  0.1247
 4049TIP3   OH236341   4.757   3.248  17.690 -0.0570 -0.3681  0.3774
 4049TIP3    H136342   4.705   3.171  17.669  0.2386 -0.2548 -0.8301
 4049TIP3    H236343   4.696   3.321  17.683  0.2964 -0.2074 -1.2972
 4050TIP3   OH236344   5.028   4.702  18.000  0.0402  0.1781  0.1382
 4050TIP3    H136345   5.066   4.638  17.940 -1.7546 -0.3578 -0.4951
 4050TIP3    H236346   5.103   4.745  18.040  1.2940 -1.5621 -0.2354
 4051TIP3   OH236347   4.976   5.043  18.262 -0.0709 -0.1931  0.1556
 4051TIP3    H136348   4.932   5.022  18.180 -0.9143  0.8320  0.3163
 4051TIP3    H236349   4.908   5.029  18.329  0.0707  0.6677  0.4874
 4052TIP3   OH236350   1.080   2.663  17.046  0.2884  0.0583  0.5318
 4052TIP3    H136351   1.009   2.624  16.996  1.9661 -2.2456 -0.2370
 4052TIP3    H236352   1.142   2.693  16.980  0.5463  1.0531  1.2009
 4053TIP3   OH236353   0.546   5.218  19.369  0.0189  0.2242  0.4776
 4053TIP3    H136354   0.641   5.224  19.369 -0.0027  1.0632  1.9125
 4053TIP3    H236355   0.517   5.295  19.319  0.0797  0.4887  0.8501
 4054TIP3   OH236356   1.763   3.446  17.802  0.1968  0.1579  0.2001
 4054TIP3    H136357   1.692   3.502  17.770  1.5627  1.3700 -0.8451
 4054TIP3    H236358   1.777   3.475  17.892  0.2532  0.8535 -0.0249
 4055TIP3   OH236359   2.118   3.263  18.317  0.0233  0.0460  0.5590
 4055TIP3    H136360   2.053   3.333  18.308  0.8274  0.8633  0.9352
 4055TIP3    H236361   2.155   3.254  18.229  1.8473  2.0483  1.0362
 4056TIP3   OH236362   0.192   4.476  17.974 -0.3714  0.4393 -0.0533
 4056TIP3    H136363   0.169   4.500  18.064  0.8596  0.2635  0.3388
 4056TIP3    H236364   0.135   4.530  17.919 -1.5789  0.0991  0.8245
 4057TIP3   OH236365   1.769   5.447  18.869 -0.2484 -0.3436  0.2181
 4057TIP3    H136366   1.688   5.406  18.838 -0.1859 -0.0996 -0.2717
 4057TIP3    H236367   1.794   5.508  18.799  0.1509 -0.1367  0.5379
 4058TIP3   OH236368   5.323   6.641  18.041 -0.1031  0.3538  0.0921
 4058TIP3    H136369   5.345   6.553  18.012 -0.3858 -0.3989  2.0000
 4058TIP3    H236370   5.373   6.699  17.984 -0.5473 -0.9881 -1.7476
 4059TIP3   OH236371   5.846   3.802  19.856 -0.3058  0.3771  0.0743
 4059TIP3    H136372   5.927   3.852  19.845 -0.9106  1.9057  1.9174
 4059TIP3    H236373   5.779   3.869  19.868 -1.3310 -0.8424  1.6357
 4060TIP3   OH236374   5.169   2.218  20.077 -0.0633  0.9033  0.2989
 4060TIP3    H136375   5.175   2.297  20.024  0.1762  0.3370 -0.5519
 4060TIP3    H236376   5.206   2.242  20.162 -0.6164  1.8777  0.2665
 4061TIP3   OH236377   0.896   4.521  18.047  0.0628  0.5065  0.1491
 4061TIP3    H136378   0.846   4.573  18.110  0.2018 -0.1394  0.8036
 4061TIP3    H236379   0.917   4.582  17.977 -0.7236  1.0561  0.3797
 4062TIP3   OH236380   5.314   6.074  19.182  0.0076 -0.2499  0.0060
 4062TIP3    H136381   5.293   6.056  19.274  0.2234  0.7559  0.2618
 4062TIP3    H236382   5.368   6.153  19.185 -0.8695  0.4194 -1.0548
 4063TIP3   OH236383   5.918   2.692  17.468  0.0549 -0.1437  0.1953
 4063TIP3    H136384   5.929   2.744  17.547  0.4023 -1.0367  0.7519
 4063TIP3    H236385   5.826   2.665  17.469 -0.4922  1.5572 -0.8096
 4064TIP3   OH236386   6.684   5.144  19.183 -0.0848  0.2690 -0.1213
 4064TIP3    H136387   6.654   5.235  19.179  1.4709  0.7574 -1.9868
 4064TIP3    H236388   6.776   5.150  19.208 -0.4383 -0.9655  1.6977
 4065TIP3   OH236389   6.530   2.482  19.678 -0.7397  0.1299 -0.2849
 4065TIP3    H136390   6.519   2.555  19.739 -0.7578  0.9936 -1.2938
 4065TIP3    H236391   6.607   2.506  19.626 -0.2602 -0.9565 -0.0939
 4066TIP3   OH236392   0.834   5.059  17.964  0.3835 -0.5382  0.1262
 4066TIP3    H136393   0.828   4.998  18.038  0.7218  0.5538  1.0739
 4066TIP3    H236394   0.755   5.113  17.970  0.4860 -0.3483 -0.2189
 4067TIP3   OH236395   3.642   1.837  19.986  0.0611  0.3359 -0.2243
 4067TIP3    H136396   3.556   1.803  20.012  0.9901 -1.1131  1.1082
 4067TIP3    H236397   3.688   1.762  19.951  0.5005  1.3061 -1.8438
 4068TIP3   OH236398   4.416   6.512  19.007  0.7610  0.2076 -0.3436
 4068TIP3    H136399   4.473   6.436  19.004  0.8913  0.3120 -0.5576
 4068TIP3    H236400   4.428   6.548  19.096  0.1907 -0.4004 -0.0114
 4069TIP3   OH236401   1.562   3.995  19.568 -0.8618  0.8377  0.8155
 4069TIP3    H136402   1.641   4.015  19.618 -0.0479 -1.3068  0.4760
 4069TIP3    H236403   1.554   3.900  19.572 -2.2275  0.8165 -0.9640
 4070TIP3   OH236404   4.484   2.107  19.876 -0.3788 -0.0147 -0.2043
 4070TIP3    H136405   4.534   2.086  19.955  0.6873 -2.2479 -1.3828
 4070TIP3    H236406   4.399   2.066  19.890  0.4099 -2.0282 -0.8742
 4071TIP3   OH236407   0.541   3.691  19.516  0.4176  0.4876 -1.0330
 4071TIP3    H136408   0.601   3.645  19.458 -0.1290  0.3066 -1.4602
 4071TIP3    H236409   0.500   3.757  19.461  0.2610  0.6457 -0.7285
 4072TIP3   OH236410   0.310   0.691  18.826 -0.6280  0.4507 -0.5013
 4072TIP3    H136411   0.343   0.621  18.882 -0.4149  0.9211 -0.0343
 4072TIP3    H236412   0.223   0.661  18.799 -1.2286  0.7249  1.0199
 4073TIP3   OH236413   2.528   0.119  19.015  0.2421 -0.2132  0.6999
 4073TIP3    H136414   2.532   0.214  19.005  4.8199 -0.1009  1.2574
 4073TIP3    H236415   2.601   0.099  19.074 -1.1798 -4.0281  1.3971
 4074TIP3   OH236416   1.529   4.368  18.217 -0.6734 -0.4480  0.1409
 4074TIP3    H136417   1.561   4.359  18.127  0.5103  2.0637  0.2396
 4074TIP3    H236418   1.435   4.349  18.210 -0.3329 -1.9165 -1.2777
 4075TIP3   OH236419   3.933   5.576  16.950 -0.4470 -0.3051  0.3169
 4075TIP3    H136420   3.941   5.553  16.857 -0.7822  1.9413 -0.3179
 4075TIP3    H236421   4.016   5.546  16.988 -0.2410 -1.1483 -0.7178
 4076TIP3   OH236422   6.441   0.533  16.420 -0.1062  0.2971  0.5902
 4076TIP3    H136423   6.520   0.584  16.400  0.3097 -0.5967 -0.0969
 4076TIP3    H236424   6.386   0.542  16.343  0.5649 -1.3696 -0.1509
 4077TIP3   OH236425   2.285   6.374  18.351 -0.4280  0.2299 -0.0486
 4077TIP3    H136426   2.278   6.455  18.403  1.2049  1.6923 -1.9340
 4077TIP3    H236427   2.357   6.326  18.392  0.1973  0.9030 -0.3323
 4078TIP3   OH236428   1.020   5.040  18.761 -0.6548  0.0841  0.2379
 4078TIP3    H136429   0.992   4.953  18.791 -0.2013  0.0389  0.5582
 4078TIP3    H236430   0.993   5.100  18.830 -0.5218  0.1247  0.2566
 4079TIP3   OH236431   1.336   2.033  17.860 -0.1444 -0.8054 -0.1554
 4079TIP3    H136432   1.319   1.946  17.826 -0.9382 -0.2407 -1.2742
 4079TIP3    H236433   1.420   2.058  17.821  0.2880 -1.2315  0.5026
 4080TIP3   OH236434   4.862   4.647  16.803 -0.6956 -0.4874  0.0146
 4080TIP3    H136435   4.849   4.728  16.851  0.5614 -0.9356  1.1445
 4080TIP3    H236436   4.783   4.595  16.822 -0.5862 -0.3290  0.9410
 4081TIP3   OH236437   3.936   4.050  19.949  0.0037  0.4366 -0.0661
 4081TIP3    H136438   3.845   4.058  19.978  0.5903  0.4405  1.9059
 4081TIP3    H236439   3.950   3.955  19.942  0.0873  0.4087  0.4599
 4082TIP3   OH236440   3.347   1.357  18.702  0.5791 -0.0327 -0.0747
 4082TIP3    H136441   3.422   1.324  18.752  0.1473 -1.1768 -0.1408
 4082TIP3    H236442   3.271   1.329  18.752  0.1592  2.8984  1.0933
 4083TIP3   OH236443   3.732   2.934  18.909  0.1929 -0.1917  0.4459
 4083TIP3    H136444   3.723   3.029  18.904 -0.2471 -0.2020  1.0083
 4083TIP3    H236445   3.728   2.914  19.003 -3.1833 -1.0742  0.2505
 4084TIP3   OH236446   1.849   6.262  18.164  0.0382  0.9709 -0.4093
 4084TIP3    H136447   1.945   6.270  18.167  0.0840  1.0790 -1.8747
 4084TIP3    H236448   1.832   6.176  18.203  0.5723  1.7053  1.5858
 4085TIP3   OH236449   5.883   3.498  17.508  0.0614  0.3263  0.2708
 4085TIP3    H136450   5.843   3.578  17.543 -0.4522  1.5336 -2.7717
 4085TIP3    H236451   5.815   3.431  17.518 -0.9542  1.2097 -0.4844
 4086TIP3   OH236452   3.785   1.510  18.368  0.1537  0.1646 -0.4186
 4086TIP3    H136453   3.718   1.560  18.416  1.4891 -0.5345  2.3398
 4086TIP3    H236454   3.741   1.428  18.345 -0.8494  0.9578 -1.4775
 4087TIP3   OH236455   5.802   2.047  18.469  0.5766  0.3696 -0.0223
 4087TIP3    H136456   5.714   2.013  18.457  0.4121  1.0097 -0.6894
 4087TIP3    H236457   5.815   2.107  18.396  1.0082  1.4253  0.8883
 4088TIP3   OH236458   2.568   4.678  19.489 -0.1819 -0.1015 -0.2592
 4088TIP3    H136459   2.652   4.665  19.533 -0.6169  0.0361  0.6358
 4088TIP3    H236460   2.505   4.691  19.561 -0.9366 -0.0384 -0.9201
 4089TIP3   OH236461   2.116   0.727  19.383  0.6030 -0.8452 -0.4685
 4089TIP3    H136462   2.062   0.672  19.327  2.8658 -1.3861 -2.2303
 4089TIP3    H236463   2.161   0.786  19.323  1.8011 -0.2396  0.9567
 4090TIP3   OH236464   4.093   5.260  19.815  0.0515 -0.1877 -0.1414
 4090TIP3    H136465   4.141   5.338  19.842 -0.0012 -0.9371  2.4135
 4090TIP3    H236466   4.007   5.269  19.857  0.5293 -2.2273  1.4353
 4091TIP3   OH236467   3.025   0.394  18.636  0.4726 -0.3762  0.2238
 4091TIP3    H136468   3.070   0.476  18.617 -0.4387  0.3334  1.0298
 4091TIP3    H236469   3.095   0.331  18.651  1.2052 -0.1363 -1.8589
 4092TIP3   OH236470   0.732   6.239  17.003 -0.6705  0.6979 -0.0618
 4092TIP3    H136471   0.722   6.334  16.999 -1.2563  0.7267  1.2893
 4092TIP3    H236472   0.662   6.210  17.063 -0.3257 -0.5466 -0.2204
 4093TIP3   OH236473   6.128   4.479  18.216 -0.1098  0.2071 -0.0310
 4093TIP3    H136474   6.176   4.506  18.295 -0.4205  0.5848  0.0313
 4093TIP3    H236475   6.091   4.394  18.238  0.2231  0.0815  0.0520
 4094TIP3   OH236476   4.758   6.698  17.924 -0.9273  0.8553  0.2709
 4094TIP3    H136477   4.691   6.697  17.993 -0.3588 -1.8342  0.9189
 4094TIP3    H236478   4.724   6.638  17.857  0.3070  0.2914  0.1228
 4095TIP3   OH236479   6.300   5.569  18.981 -0.0321 -0.1451  0.2264
 4095TIP3    H136480   6.375   5.539  18.929 -2.1851 -1.9871 -2.0557
 4095TIP3    H236481   6.276   5.494  19.035 -1.1761 -0.1524 -0.2645
 4096TIP3   OH236482   1.251   3.832  18.126  0.2140  0.1979 -0.1922
 4096TIP3    H136483   1.266   3.781  18.046  0.3419 -1.7669  1.0124
 4096TIP3    H236484   1.291   3.779  18.196 -0.6506  1.4183  1.2935
 4097TIP3   OH236485   4.792   6.572  20.124  0.1239 -0.2609 -0.3308
 4097TIP3    H136486   4.752   6.647  20.081 -0.6127 -0.0098  0.7601
 4097TIP3    H236487   4.725   6.539  20.183  1.0476 -0.6580  0.5417
 4098TIP3   OH236488   5.107   0.675  16.522 -0.2775  0.0344  0.1653
 4098TIP3    H136489   5.121   0.583  16.545  0.3673 -0.1693 -0.9396
 4098TIP3    H236490   5.179   0.696  16.462  0.6431  1.8059  1.7781
 4099TIP3   OH236491   0.353   6.179  17.769 -0.5639  0.1615  0.0532
 4099TIP3    H136492   0.295   6.105  17.748 -0.4564  0.1668 -0.2720
 4099TIP3    H236493   0.367   6.223  17.685  1.2800 -0.8217 -0.2116
 4100TIP3   OH236494   1.219   3.222  20.015 -0.6541  0.4649  0.3009
 4100TIP3    H136495   1.154   3.276  20.060 -2.2444  0.0182 -1.3154
 4100TIP3    H236496   1.268   3.285  19.961  0.0432  0.7505  1.2370
 4101TIP3   OH236497   4.994   5.802  18.346 -0.4358 -0.4132  0.3994
 4101TIP3    H136498   5.007   5.840  18.259 -2.5653 -0.4837 -0.0068
 4101TIP3    H236499   4.936   5.864  18.390 -1.4215 -1.6260  0.8541
 4102TIP3   OH236500   1.500   0.772  19.111 -0.6810  0.6891 -0.4225
 4102TIP3    H136501   1.436   0.779  19.181 -0.2574  2.7647 -0.1771
 4102TIP3    H236502   1.448   0.759  19.032 -1.2605  0.0589  0.0510
 4103TIP3   OH236503   4.312   6.093  19.943  0.0241 -0.2313  0.1188
 4103TIP3    H136504   4.314   6.001  19.969 -0.3172 -0.1597  0.4128
 4103TIP3    H236505   4.396   6.109  19.901 -0.1370 -0.8209 -0.4316
 4104TIP3   OH236506   3.096   0.838  18.890  0.3467  0.6852 -0.0452
 4104TIP3    H136507   3.115   0.826  18.797  2.6335 -0.1142  0.4815
 4104TIP3    H236508   3.180   0.862  18.930 -0.3893  0.1286  1.9676
 4105TIP3   OH236509   0.385   2.621  17.358 -0.1529  0.3402 -0.7137
 4105TIP3    H136510   0.437   2.619  17.438  1.0824  1.6569 -1.4387
 4105TIP3    H236511   0.351   2.532  17.349 -1.2414  0.4074  1.8332
 4106TIP3   OH236512   6.519   0.521  15.679  0.5178 -0.4918 -0.0948
 4106TIP3    H136513   6.448   0.574  15.643  1.2528  0.7294  0.1976
 4106TIP3    H236514   6.495   0.507  15.771  0.0086 -1.2381 -0.3319
 4107TIP3   OH236515   6.111   3.570  17.350 -0.1905  0.0585 -0.0211
 4107TIP3    H136516   6.035   3.516  17.371  0.3998 -0.8321 -0.1419
 4107TIP3    H236517   6.074   3.658  17.336 -1.1901 -0.3459 -0.0394
 4108TIP3   OH236518   2.216   1.213  18.377  0.7675 -0.2783 -1.0123
 4108TIP3    H136519   2.300   1.212  18.332 -0.2109  1.1369 -2.9953
 4108TIP3    H236520   2.155   1.175  18.315 -0.3434  0.2051 -0.2444
 4109TIP3   OH236521   0.463   6.639  18.261 -0.4322 -0.1854  0.1695
 4109TIP3    H136522   0.531   6.594  18.212 -0.3359 -0.2763  0.3862
 4109TIP3    H236523   0.473   6.731  18.238  0.2337 -0.1055  0.7678
 4110TIP3   OH236524   4.140   1.465  17.158  0.4737 -0.0297 -0.3945
 4110TIP3    H136525   4.168   1.496  17.071 -0.1506 -1.9948 -1.3526
 4110TIP3    H236526   4.221   1.450  17.206  0.9389 -1.3298 -1.5369
 4111TIP3   OH236527   2.884   1.769  18.805  0.1860  0.0265 -0.6803
 4111TIP3    H136528   2.822   1.714  18.756 -0.7315  0.8068 -0.4136
 4111TIP3    H236529   2.946   1.706  18.841 -0.4733 -0.7922 -0.9091
 4112TIP3   OH236530   0.969   4.191  19.146  0.2058 -0.3327 -0.5821
 4112TIP3    H136531   0.941   4.257  19.209 -1.0752  0.4296 -1.8714
 4112TIP3    H236532   0.897   4.128  19.144  0.5622 -0.7352 -0.7502
 4113TIP3   OH236533   3.315   0.606  19.650  0.2276 -0.2375 -0.0501
 4113TIP3    H136534   3.381   0.538  19.636  0.9880  0.1371  1.5642
 4113TIP3    H236535   3.343   0.679  19.594  1.7484  0.2696  1.2926
 4114TIP3   OH236536   3.826   2.129  17.606  0.3444 -0.1155 -0.2706
 4114TIP3    H136537   3.815   2.220  17.578  1.1103 -0.0154 -0.2822
 4114TIP3    H236538   3.824   2.078  17.525 -2.3115 -0.3833 -0.1162
 4115TIP3   OH236539   2.988   4.466  18.695 -0.3485 -0.1685 -0.1411
 4115TIP3    H136540   3.008   4.431  18.609 -0.6818 -2.2769  0.5774
 4115TIP3    H236541   2.906   4.515  18.683  0.7935  1.5402 -1.4291
 4116TIP3   OH236542   1.851   4.187  18.573 -0.0736  0.2719 -0.2460
 4116TIP3    H136543   1.908   4.110  18.565  0.6937  0.8482 -0.3896
 4116TIP3    H236544   1.824   4.187  18.665 -0.3368 -0.3529 -0.3217
 4117TIP3   OH236545   1.093   4.445  18.740  0.5698 -0.7048  0.2719
 4117TIP3    H136546   1.062   4.398  18.817  0.8327  1.2943  1.6396
 4117TIP3    H236547   1.047   4.403  18.667 -1.7721 -0.8596  1.7540
 4118TIP3   OH236548   5.439   6.445  19.565  0.2832 -0.5366 -0.0191
 4118TIP3    H136549   5.506   6.510  19.586  0.7403 -1.0587  0.1659
 4118TIP3    H236550   5.400   6.423  19.649  0.0614 -0.4347 -0.0934
 4119TIP3   OH236551   1.217   5.446  18.132  0.4457 -0.0708  0.0804
 4119TIP3    H136552   1.200   5.486  18.217 -2.8386  1.1379 -0.9722
 4119TIP3    H236553   1.164   5.366  18.131  0.9033 -0.3825 -0.6394
 4120TIP3   OH236554   1.030   1.185  17.545  0.1552  0.0612 -0.2316
 4120TIP3    H136555   1.075   1.258  17.588 -0.6549  0.4275  0.0198
 4120TIP3    H236556   0.941   1.217  17.532 -0.4821 -1.2347  0.7588
 4121TIP3   OH236557   2.510   1.162  18.542 -0.5233 -0.2636  0.2902
 4121TIP3    H136558   2.579   1.095  18.544 -0.9345 -0.7257 -0.4468
 4121TIP3    H236559   2.521   1.205  18.457 -0.6628  0.1768  0.4964
 4122TIP3   OH236560   4.658   5.664  19.452  0.3639 -0.1238  0.6878
 4122TIP3    H136561   4.633   5.728  19.519 -0.5371 -0.8245  1.0461
 4122TIP3    H236562   4.583   5.604  19.447  0.6809 -0.4489 -0.5062
 4123TIP3   OH236563   4.632   4.287  18.019  0.4977 -0.0393  0.3085
 4123TIP3    H136564   4.545   4.264  17.987  0.3622 -0.2421  0.8088
 4123TIP3    H236565   4.690   4.221  17.982  0.5833  0.5991 -0.7398
 4124TIP3   OH236566   3.286   4.423  17.151  0.4815  0.2605 -0.3410
 4124TIP3    H136567   3.340   4.348  17.176 -0.1154  0.0535  0.3823
 4124TIP3    H236568   3.200   4.385  17.134  0.4229  0.6596 -0.9487
 4125TIP3   OH236569   5.751   5.903  19.704  0.0085  0.4106 -0.2760
 4125TIP3    H136570   5.787   5.914  19.616 -0.5571  1.5099 -0.3852
 4125TIP3    H236571   5.819   5.938  19.762  0.1396  0.2155 -0.3109
 4126TIP3   OH236572   5.982   2.800  18.156  0.4416 -0.0648  0.0247
 4126TIP3    H136573   5.988   2.710  18.123 -0.2014 -0.2477  0.3863
 4126TIP3    H236574   6.061   2.811  18.208  0.6513 -0.3334 -0.2289
 4127TIP3   OH236575   3.837   1.308  17.658 -0.1406  0.0264  0.1593
 4127TIP3    H136576   3.885   1.268  17.730 -0.8589 -1.3867 -0.1167
 4127TIP3    H236577   3.744   1.295  17.680 -0.4094  1.6059  0.0823
 4128TIP3   OH236578   2.818   2.514  18.676  0.1090 -0.1392 -0.0287
 4128TIP3    H136579   2.834   2.575  18.748  0.4695  0.9365 -0.9946
 4128TIP3    H236580   2.738   2.468  18.701 -0.4654  1.0991  0.4900
 4129TIP3   OH236581   5.337   6.194  17.368 -0.3184  0.1142 -0.2176
 4129TIP3    H136582   5.243   6.182  17.382 -0.4279  1.6385  0.5555
 4129TIP3    H236583   5.366   6.248  17.441  1.1951 -0.3819 -0.4085
 4130TIP3   OH236584   2.974   0.980  19.711  0.1624 -0.4618  0.1511
 4130TIP3    H136585   2.988   0.995  19.804 -2.4314 -2.7192  1.0426
 4130TIP3    H236586   2.985   0.886  19.700  0.9353 -0.1733 -1.9630
 4131TIP3   OH236587   4.137   5.466  18.189  0.2676  1.0138  0.4471
 4131TIP3    H136588   4.166   5.552  18.158  0.9004  1.2364  1.5975
 4131TIP3    H236589   4.217   5.414  18.192 -0.1743  0.2392 -0.6354
 4132TIP3   OH236590   6.438   5.520  17.666 -0.0111  0.4194  0.7710
 4132TIP3    H136591   6.527   5.487  17.676  0.2756  1.1743  0.7671
 4132TIP3    H236592   6.425   5.525  17.571 -0.0106  0.4419  0.7721
 4133TIP3   OH236593   4.083   5.922  17.488  0.3537 -0.0718 -0.2614
 4133TIP3    H136594   4.079   6.018  17.494  2.4575  0.2839 -2.8097
 4133TIP3    H236595   4.160   5.899  17.541  0.6130 -0.1933 -0.6854
 4134TIP3   OH236596   1.387   3.616  17.549 -0.5809 -0.5151 -0.1050
 4134TIP3    H136597   1.455   3.626  17.616  0.1145  1.1190 -0.9995
 4134TIP3    H236598   1.435   3.622  17.466 -1.9165  1.7412 -0.7724
 4135TIP3   OH236599   0.840   5.266  16.950 -0.1059 -0.4853 -0.3641
 4135TIP3    H136600   0.884   5.351  16.947 -0.6247 -0.1472  0.9185
 4135TIP3    H236601   0.754   5.282  16.911 -0.2210 -0.4055 -0.0798
 4136TIP3   OH236602   2.950   3.992  19.906  0.0078 -0.2173  0.2166
 4136TIP3    H136603   3.026   4.004  19.964  0.7656 -0.0680 -0.7759
 4136TIP3    H236604   2.988   3.979  19.819 -1.1117 -0.2624 -0.2861
 4137TIP3   OH236605   5.656   2.097  17.412  0.1106  0.0294 -0.0517
 4137TIP3    H136606   5.709   2.059  17.342 -1.5430 -0.9238 -0.8698
 4137TIP3    H236607   5.608   2.168  17.369  1.6104  1.7334  0.9770
 4138TIP3   OH236608   4.037   4.933  16.736 -0.3825  0.4337 -0.5108
 4138TIP3    H136609   4.117   4.980  16.756 -1.3483  1.2658  1.6761
 4138TIP3    H236610   3.972   5.001  16.719 -1.1515 -0.1590 -0.0292
 4139TIP3   OH236611   3.635   1.684  18.154 -0.2369 -0.0420  0.1699
 4139TIP3    H136612   3.573   1.610  18.161  0.3409 -0.4310  1.6617
 4139TIP3    H236613   3.718   1.648  18.185  0.4689  0.7949 -0.7139
 4140TIP3   OH236614   5.142   5.637  17.791  0.8380  0.0300 -0.0440
 4140TIP3    H136615   5.172   5.569  17.731  0.1936  0.4647 -0.8778
 4140TIP3    H236616   5.077   5.686  17.741  0.7198  0.7718  0.8163
 4141TIP3   OH236617   2.562   5.505  18.842 -0.0184 -0.6507 -0.2872
 4141TIP3    H136618   2.528   5.417  18.857 -1.5136  0.1088  1.0919
 4141TIP3    H236619   2.653   5.501  18.873 -0.8479 -1.0791  2.3265
 4142TIP3   OH236620   3.453   4.535   9.023 -0.3702 -0.0674  0.5046
 4142TIP3    H136621   3.512   4.510   8.952 -2.1084  0.4828 -1.1847
 4142TIP3    H236622   3.437   4.453   9.070 -0.2280 -0.7050 -0.5147
 4143TIP3   OH236623   6.271   4.856  18.972 -0.9374  0.0458 -0.2407
 4143TIP3    H136624   6.345   4.799  18.956 -2.0907 -0.7446 -3.3817
 4143TIP3    H236625   6.306   4.928  19.025  1.7473 -0.8455 -0.7043
 4144TIP3   OH236626   6.395   3.678  18.178  0.0925  0.2312  0.7438
 4144TIP3    H136627   6.377   3.726  18.259 -2.2997 -0.5769  0.7595
 4144TIP3    H236628   6.380   3.587  18.199  1.6989 -0.2769 -0.0716
 4145TIP3   OH236629   2.281   0.126  19.620  0.5389 -0.1221 -0.4472
 4145TIP3    H136630   2.302   0.043  19.577  3.1190  1.6266 -2.9448
 4145TIP3    H236631   2.297   0.111  19.713 -0.4835 -2.7308 -0.6211
 4146TIP3   OH236632   2.429   2.592  18.621  0.6185  0.1805 -0.3196
 4146TIP3    H136633   2.334   2.600  18.629  0.4435 -1.1126 -0.7695
 4146TIP3    H236634   2.445   2.497  18.625  1.7273  0.2708 -1.8352
 4147TIP3   OH236635   1.404   2.986  17.627 -0.4999  0.0333  0.1515
 4147TIP3    H136636   1.346   3.062  17.627  0.7953  1.1417  2.5491
 4147TIP3    H236637   1.492   3.023  17.624  0.1538 -1.4222  0.4408
 4148TIP3   OH236638   0.726   1.191  17.596 -0.0253 -0.2096 -0.2779
 4148TIP3    H136639   0.759   1.168  17.683 -0.8752 -0.6528 -0.0612
 4148TIP3    H236640   0.723   1.109  17.549 -0.4098 -0.1095 -0.4313
 4149TIP3   OH236641   3.161   0.277  19.983  0.2313  0.1493  0.3814
 4149TIP3    H136642   3.111   0.358  19.968  0.2238 -0.1005 -1.1704
 4149TIP3    H236643   3.246   0.294  19.943  1.5081  0.6139  3.1236
 4150TIP3   OH236644   5.223   5.306  17.904 -0.1437 -0.3028  0.5627
 4150TIP3    H136645   5.174   5.352  17.835  0.4367  3.2490  2.2933
 4150TIP3    H236646   5.310   5.347  17.902  0.9305 -2.4247  1.3379
 4151TIP3   OH236647   1.982   1.352  16.244  0.2633  0.0573  0.0428
 4151TIP3    H136648   2.064   1.378  16.285 -0.4583  2.0080  0.3405
 4151TIP3    H236649   1.973   1.411  16.169 -1.6681  1.0850  1.0017
 4152TIP3   OH236650   0.909   6.604  18.873 -0.4134 -0.5417  0.4732
 4152TIP3    H136651   0.990   6.653  18.885 -1.0485  1.0708 -1.3476
 4152TIP3    H236652   0.912   6.574  18.782 -1.9209 -0.3040  0.3107
 4153TIP3   OH236653   4.649   1.303  18.365 -0.1455  0.1170  0.0621
 4153TIP3    H136654   4.700   1.367  18.317  0.0890  0.0846  0.2639
 4153TIP3    H236655   4.558   1.324  18.345 -0.0400 -0.2828 -0.8853
 4154TIP3   OH236656   2.627   5.233  18.928 -0.9057  0.7601 -0.1038
 4154TIP3    H136657   2.609   5.162  18.990 -0.8743  0.6073 -0.2680
 4154TIP3    H236658   2.698   5.282  18.968 -0.5903  0.4043 -0.2269
 4155TIP3   OH236659   4.558   1.362  16.045 -0.4810 -0.3651  0.0963
 4155TIP3    H136660   4.622   1.414  16.095  0.9731 -1.5368 -0.4832
 4155TIP3    H236661   4.514   1.426  15.989  0.0833  0.4884  0.6014
 4156TIP3   OH236662   3.928   1.460  19.185  0.1657  0.2917 -0.0466
 4156TIP3    H136663   4.021   1.453  19.207 -0.1234  1.5475  1.8845
 4156TIP3    H236664   3.895   1.528  19.244 -1.4109  1.9682 -2.6600
 4157TIP3   OH236665   1.016   0.400  18.488  0.1506  0.4442 -0.2438
 4157TIP3    H136666   1.057   0.438  18.566  3.4784 -0.4038 -1.4115
 4157TIP3    H236667   1.081   0.412  18.419 -1.6061 -1.1213 -2.2941
 4158TIP3   OH236668   5.432   2.917  17.032  0.0343 -0.1092  0.1370
 4158TIP3    H136669   5.365   2.851  17.015 -0.7120  0.9168 -1.0414
 4158TIP3    H236670   5.515   2.871  17.018 -0.4710 -0.8353 -0.5291
 4159TIP3   OH236671   5.499   3.555  17.096  0.4753  0.0584 -0.8372
 4159TIP3    H136672   5.424   3.544  17.154  0.6076 -0.8459 -0.8141
 4159TIP3    H236673   5.533   3.642  17.115 -0.8328  0.6617 -1.1715
 4160TIP3   OH236674   0.317   0.815  18.440 -0.0327 -0.0527 -0.6686
 4160TIP3    H136675   0.385   0.840  18.378 -0.6631 -2.2373 -2.3824
 4160TIP3    H236676   0.316   0.719  18.437 -2.5001 -0.1244  0.0094
 4161TIP3   OH236677   2.999   4.734  17.049  0.0515  0.0926  0.2062
 4161TIP3    H136678   3.066   4.789  17.089  0.4107 -0.6104  0.5926
 4161TIP3    H236679   3.040   4.700  16.969 -0.2768  0.6161 -0.1940
 4162TIP3   OH236680   3.925   1.166  19.687 -0.1417 -0.0206 -0.2522
 4162TIP3    H136681   3.851   1.226  19.684 -1.2469 -1.2441  1.1184
 4162TIP3    H236682   3.886   1.081  19.710  1.6881 -0.6905  0.5455
 4163TIP3   OH236683   6.687   2.236  19.293 -0.2946 -0.2428  0.6284
 4163TIP3    H136684   6.672   2.208  19.383  0.1472 -2.9975 -0.0577
 4163TIP3    H236685   6.780   2.219  19.277 -0.6763 -1.2161 -0.7583
 4164TIP3   OH236686   2.515   4.468  17.779  0.5671  0.4817 -0.5397
 4164TIP3    H136687   2.503   4.484  17.685  1.1468 -1.1391 -0.9196
 4164TIP3    H236688   2.610   4.464  17.790  0.5058  0.7969  0.1549
 4165TIP3   OH236689   3.930   6.410  18.715  0.2246 -0.5404  0.1381
 4165TIP3    H136690   4.017   6.382  18.684  0.4313 -0.7642  0.8994
 4165TIP3    H236691   3.939   6.413  18.810 -0.5461 -0.3542  0.2055
 4166TIP3   OH236692   6.562   5.814  16.872 -0.1677  0.0154 -0.3460
 4166TIP3    H136693   6.562   5.903  16.906  0.8511  0.9141 -2.4821
 4166TIP3    H236694   6.549   5.824  16.777  0.2677 -2.0823 -0.6877
 4167TIP3   OH236695   0.086   6.409  17.558  0.1464  0.5387  0.2630
 4167TIP3    H136696   0.012   6.349  17.552  1.8743 -1.6606 -0.8195
 4167TIP3    H236697   0.055   6.490  17.517 -1.1289 -0.9362 -1.8974
 4168TIP3   OH236698   0.966   4.578  19.042 -0.5733  0.1363  0.2533
 4168TIP3    H136699   0.959   4.533  19.126  0.5964 -1.2954 -0.3690
 4168TIP3    H236700   0.959   4.508  18.977 -1.8085  1.2517 -0.8867
 4169TIP3   OH236701   0.110   4.093  19.305 -0.6458  0.6108  0.4421
 4169TIP3    H136702   0.190   4.070  19.258 -0.7842  1.3017 -0.1443
 4169TIP3    H236703   0.077   4.009  19.339 -1.2574 -0.1455 -1.8152
 4170TIP3   OH236704   1.783   2.495  19.584  0.3069 -0.3548  0.1294
 4170TIP3    H136705   1.801   2.516  19.493 -0.0759  0.2283  0.1907
 4170TIP3    H236706   1.746   2.406  19.581 -1.9004  0.5392 -0.5193
 4171TIP3   OH236707   4.279   5.689  18.085  0.2295  0.1158  0.2522
 4171TIP3    H136708   4.374   5.698  18.088  0.2934 -0.3000 -0.5739
 4171TIP3    H236709   4.251   5.752  18.019  0.0342 -0.5579 -0.3144
 4172TIP3   OH236710   1.009   3.284  18.165  0.9228  0.3527 -0.1137
 4172TIP3    H136711   1.074   3.222  18.133 -0.5730 -0.5460 -1.5472
 4172TIP3    H236712   0.956   3.305  18.089 -0.0204  1.6481  0.8503
 4173TIP3   OH236713   0.522   3.217  17.502  0.0541  0.1222  0.3316
 4173TIP3    H136714   0.582   3.179  17.565  0.5670  0.0779 -0.1803
 4173TIP3    H236715   0.514   3.151  17.433 -0.2882  0.2852  0.2099
 4174TIP3   OH236716   5.554   1.180  18.618  0.3108  0.3015  0.3672
 4174TIP3    H136717   5.610   1.105  18.639 -1.2758 -0.9956  0.1473
 4174TIP3    H236718   5.550   1.181  18.522  0.2397  0.6037  0.3721
 4175TIP3   OH236719   5.714   6.157  18.748 -0.1680  0.1793 -0.2730
 4175TIP3    H136720   5.807   6.154  18.727 -0.2213 -1.0803 -0.4400
 4175TIP3    H236721   5.677   6.083  18.700 -1.6998  2.0958 -2.2170
 4176TIP3   OH236722   3.704   1.074  19.319  0.2811 -0.1985 -0.0021
 4176TIP3    H136723   3.778   1.134  19.316  1.0435 -1.1262 -0.0270
 4176TIP3    H236724   3.628   1.131  19.330  1.1106  0.7080  1.3708
 4177TIP3   OH236725   4.813   0.130  16.778  0.9573  0.0033  0.1371
 4177TIP3    H136726   4.814   0.119  16.873  1.1564  1.8846  0.3960
 4177TIP3    H236727   4.905   0.123  16.752  0.8614 -0.8865  0.0248
 4178TIP3   OH236728   4.178   3.737  17.993  0.1056 -0.5875 -0.0313
 4178TIP3    H136729   4.238   3.762  18.064 -0.0882 -0.1998 -0.0013
 4178TIP3    H236730   4.106   3.800  17.999 -0.1729 -0.8834 -0.2384
 4179TIP3   OH236731   4.241   0.592  19.323  0.7188  0.0735 -0.7720
 4179TIP3    H136732   4.277   0.681  19.318  2.4112 -0.3940  1.5737
 4179TIP3    H236733   4.156   0.603  19.364  0.7029  0.6659 -0.9561
 4180TIP3   OH236734   5.114   0.500  17.666 -0.5441  0.0102 -0.6301
 4180TIP3    H136735   5.089   0.408  17.667 -1.0423  0.1113  1.3932
 4180TIP3    H236736   5.077   0.535  17.747  0.3859  1.7839 -0.9311
 4181TIP3   OH236737   6.288   2.738  18.991  0.3647  0.3588 -0.6033
 4181TIP3    H136738   6.370   2.786  18.998  0.7509 -0.5312  1.9473
 4181TIP3    H236739   6.224   2.792  19.036 -0.2517  0.5610 -1.6810
 4182TIP3   OH236740   2.477   2.112  19.142 -0.2708  0.1607  0.6160
 4182TIP3    H136741   2.442   2.027  19.168 -1.3949 -0.3192 -2.0756
 4182TIP3    H236742   2.571   2.100  19.139 -0.4344 -1.1046  0.0027
 4183TIP3   OH236743   5.677   5.190  16.989  0.0423 -0.0201 -0.4579
 4183TIP3    H136744   5.619   5.125  17.028  0.8116  0.2196  1.1653
 4183TIP3    H236745   5.672   5.174  16.895 -0.6941 -1.6506 -0.1613
 4184TIP3   OH236746   5.170   0.210  18.014  0.1945  0.0127 -0.5671
 4184TIP3    H136747   5.204   0.226  17.926 -0.2597 -2.0867 -1.1801
 4184TIP3    H236748   5.130   0.124  18.009 -1.7066  0.7155  1.1829
 4185TIP3   OH236749   5.856   1.716  19.526 -1.0343  0.6184  0.1437
 4185TIP3    H136750   5.936   1.675  19.558 -1.8108 -0.9049  0.2159
 4185TIP3    H236751   5.803   1.731  19.605 -0.9130  1.4560  0.0797
 4186TIP3   OH236752   1.285   5.071  18.736 -0.4051 -0.1047  0.0881
 4186TIP3    H136753   1.303   5.155  18.694  1.1392 -0.8318 -0.7926
 4186TIP3    H236754   1.192   5.056  18.721 -1.1355  2.1983  1.7261
 4187TIP3   OH236755   5.047   5.443  19.425  0.3476  0.3665  0.2316
 4187TIP3    H136756   5.133   5.405  19.443  0.0187  0.1717  1.4870
 4187TIP3    H236757   4.996   5.371  19.388  0.8267  0.5895 -0.9125
 4188TIP3   OH236758   2.088   4.261  18.026 -0.1031 -0.8508 -0.0941
 4188TIP3    H136759   2.005   4.296  17.996  0.1453 -1.7321 -2.0088
 4188TIP3    H236760   2.066   4.204  18.100 -0.8494  0.8822  1.0528
 4189TIP3   OH236761   3.517   1.150  18.023  0.4616 -0.2683  0.6644
 4189TIP3    H136762   3.587   1.084  18.019 -1.0616 -1.9437  0.3457
 4189TIP3    H236763   3.443   1.103  18.061 -1.6517  0.3238 -2.3580
 4190TIP3   OH236764   4.443   0.539  18.797  0.2582  0.4161  0.2906
 4190TIP3    H136765   4.531   0.546  18.761  0.1526 -0.6355 -0.2415
 4190TIP3    H236766   4.441   0.600  18.870  1.5453  0.1801  0.5466
 4191TIP3   OH236767   1.252   3.467  17.145 -0.6085  0.2469  0.3269
 4191TIP3    H136768   1.211   3.525  17.081  0.6181 -0.9881 -1.7081
 4191TIP3    H236769   1.202   3.386  17.140  1.7831 -1.2616 -2.1515
 4192TIP3   OH236770   2.251   5.525  18.286  0.1879  0.2681 -0.5167
 4192TIP3    H136771   2.214   5.451  18.335  0.1475  0.0739 -0.8351
 4192TIP3    H236772   2.234   5.503  18.194 -0.8657  1.2374 -0.5657
 4193TIP3   OH236773   0.532   5.898  17.566  0.5207 -0.0522  0.5041
 4193TIP3    H136774   0.441   5.897  17.596  0.9616 -1.2911  1.9309
 4193TIP3    H236775   0.529   5.942  17.481 -1.6893 -1.8026 -0.4077
 4194TIP3   OH236776   4.096   2.933  17.725 -0.5149 -0.0364 -0.0042
 4194TIP3    H136777   4.141   3.015  17.745  2.2066 -1.3529 -0.4062
 4194TIP3    H236778   4.145   2.866  17.772 -1.2422 -1.7367 -1.5596
 4195TIP3   OH236779   4.153   5.982  18.004  0.3203  0.3572 -0.6998
 4195TIP3    H136780   4.176   6.075  18.002 -3.3323  1.4176 -2.3697
 4195TIP3    H236781   4.077   5.978  18.062 -2.0615 -0.7550 -3.6318
 4196TIP3   OH236782   1.730   5.774  17.371  0.2462  0.3008 -0.0186
 4196TIP3    H136783   1.825   5.776  17.363  0.2488 -0.2894 -0.1386
 4196TIP3    H236784   1.702   5.700  17.317 -0.0347 -1.4917  2.4339
 4197TIP3   OH236785   4.923   0.665  17.175 -0.3819 -0.8379 -0.1850
 4197TIP3    H136786   4.921   0.614  17.257 -0.1228 -0.2066  0.2230
 4197TIP3    H236787   4.957   0.604  17.110 -1.5862 -1.6917 -0.0728
 4198TIP3   OH236788   6.604   2.919  18.661  0.4362 -0.0770 -0.1068
 4198TIP3    H136789   6.680   2.949  18.712  1.9739 -1.2249 -1.6015
 4198TIP3    H236790   6.622   2.827  18.643 -1.6313 -0.5383 -0.0389
 4199TIP3   OH236791   4.966   2.607  18.358  0.2388 -0.2166 -0.1200
 4199TIP3    H136792   4.956   2.679  18.420 -0.2222  0.4509 -0.9418
 4199TIP3    H236793   4.999   2.534  18.410 -1.0166  0.0452  1.0855
 4200TIP3   OH236794   4.506   2.968  17.185 -0.1337 -0.5183  0.3736
 4200TIP3    H136795   4.497   2.878  17.155 -0.8008 -0.5579  0.6880
 4200TIP3    H236796   4.431   3.014  17.149  0.5094  0.0527 -0.2610
 4201TIP3   OH236797   0.808   1.962  18.440 -0.1840  0.2959 -0.2250
 4201TIP3    H136798   0.739   2.026  18.426  0.1612  0.5843 -0.6223
 4201TIP3    H236799   0.761   1.881  18.460 -0.6105  0.8016  0.8999
 4202TIP3   OH236800   2.270   0.112  18.517  1.0450  0.4708 -0.5699
 4202TIP3    H136801   2.265   0.129  18.611  0.2224 -0.2682 -0.4681
 4202TIP3    H236802   2.209   0.173  18.477 -2.1146 -2.1599 -0.1823
 4203TIP3   OH236803   0.199   2.947  17.061  0.5757  0.3597  0.3508
 4203TIP3    H136804   0.238   2.932  17.147 -0.0489 -0.2737  0.5385
 4203TIP3    H236805   0.112   2.908  17.068  1.5427 -2.3683 -1.4724
 4204TIP3   OH236806   0.562   0.686  18.635  0.1499  0.2460  0.3501
 4204TIP3    H136807   0.480   0.662  18.678 -0.2626 -1.1074 -1.0890
 4204TIP3    H236808   0.631   0.647  18.689 -0.3091 -0.7788  0.2129
 4205TIP3   OH236809   2.391   6.699  18.952  0.0189  0.3059 -0.3331
 4205TIP3    H136810   2.375   6.683  18.859 -2.9351  0.5695  0.0386
 4205TIP3    H236811   2.435   6.784  18.954  0.7502 -0.0165 -1.4919
 4206TIP3   OH236812   2.187   3.580  20.642 -0.2054 -0.1450  0.2328
 4206TIP3    H136813   2.141   3.623  20.714 -1.0877  2.4397 -1.7157
 4206TIP3    H236814   2.273   3.623  20.640 -1.3219  2.2282 -2.1385
 4207TIP3   OH236815   0.297   3.262  18.083 -0.3699 -0.3014 -0.0163
 4207TIP3    H136816   0.346   3.203  18.027 -0.8257 -0.6659 -0.0377
 4207TIP3    H236817   0.297   3.220  18.169 -1.7125 -0.9401 -0.3071
 4208TIP3   OH236818   5.719   0.350  19.755 -0.8873 -0.7423  0.0865
 4208TIP3    H136819   5.636   0.301  19.751 -2.0247  1.1370 -0.7934
 4208TIP3    H236820   5.751   0.335  19.844 -2.0974 -1.6401  0.4034
 4209TIP3   OH236821   3.004   3.414  19.899  0.2781  0.2349  0.5122
 4209TIP3    H136822   2.972   3.503  19.886  0.6792  0.3274  0.1171
 4209TIP3    H236823   2.945   3.360  19.845  0.6883  0.3893 -0.1054
 4210TIP3   OH236824   1.551   5.550  19.179 -0.0146 -0.1547  0.1353
 4210TIP3    H136825   1.515   5.526  19.264 -0.7106  0.1976 -0.0577
 4210TIP3    H236826   1.588   5.469  19.144  0.7773 -0.1862  1.0093
 4211TIP3   OH236827   5.598   2.908  19.507  0.5244 -0.5450  0.3937
 4211TIP3    H136828   5.560   2.990  19.538 -2.4421 -1.8481  0.5198
 4211TIP3    H236829   5.584   2.910  19.412 -1.0407 -1.5473  0.5777
 4212TIP3   OH236830   4.435   0.616  19.091 -0.3642  0.1247  0.3348
 4212TIP3    H136831   4.473   0.531  19.113 -1.4048 -1.0556 -2.1120
 4212TIP3    H236832   4.449   0.669  19.170  1.9160 -1.7101  1.2881
 4213TIP3   OH236833   0.041   4.925  18.724 -0.0647 -0.1190 -0.1576
 4213TIP3    H136834   0.019   4.945  18.633 -0.6119 -1.4937 -0.3497
 4213TIP3    H236835  -0.011   4.847  18.745  0.2230  0.0408  1.2662
 4214TIP3   OH236836   1.577   3.686  19.535 -0.0024  0.1654 -0.1845
 4214TIP3    H136837   1.663   3.665  19.573  0.7851 -0.4699 -2.2267
 4214TIP3    H236838   1.540   3.602  19.510 -0.3555  0.5794 -1.0993
 4215TIP3   OH236839   5.962   3.566  18.964  0.4598  0.1128 -0.1210
 4215TIP3    H136840   6.014   3.646  18.961 -0.8002  1.0634  1.6389
 4215TIP3    H236841   6.011   3.507  19.021 -0.1447  0.8689  1.2295
 4216TIP3   OH236842   1.529   6.559  17.443  0.2708 -0.3394 -0.4096
 4216TIP3    H136843   1.436   6.575  17.458  0.3494 -0.7379  0.5927
 4216TIP3    H236844   1.555   6.499  17.514  0.9147 -1.5433 -1.6152
 4217TIP3   OH236845   1.166   4.774  18.393 -0.3303  0.2612  0.1411
 4217TIP3    H136846   1.104   4.802  18.326  0.7680  0.9320 -0.6322
 4217TIP3    H236847   1.241   4.833  18.382 -0.4498  0.9630  2.5237
 4218TIP3   OH236848   5.758   0.397  19.358 -0.1250 -0.1143  0.3758
 4218TIP3    H136849   5.766   0.464  19.426 -3.1705 -0.0242  0.8228
 4218TIP3    H236850   5.786   0.441  19.278 -1.3462  1.5263  0.7767
 4219TIP3   OH236851   1.548   4.123  17.794 -0.2398  0.0329  0.1210
 4219TIP3    H136852   1.495   4.166  17.862  0.3395  0.5530  0.2531
 4219TIP3    H236853   1.567   4.193  17.732 -0.1171 -0.2652 -0.1768
 4220TIP3   OH236854   3.733   2.263  19.632 -0.0073  0.2180  0.8476
 4220TIP3    H136855   3.686   2.343  19.655 -1.0361 -0.5632  1.5433
 4220TIP3    H236856   3.816   2.271  19.679 -0.1476  0.8203  1.0108
 4221TIP3   OH236857   2.623   4.910  18.621 -0.1858 -0.2456  0.5333
 4221TIP3    H136858   2.532   4.917  18.650 -0.9571 -2.4120 -1.1510
 4221TIP3    H236859   2.658   4.998  18.634 -2.0328  0.2743  2.6651
 4222TIP3   OH236860   2.025   5.914  18.526 -0.3552 -0.2659  0.2284
 4222TIP3    H136861   2.066   5.884  18.445 -3.3446  2.3753 -2.5752
 4222TIP3    H236862   2.072   5.994  18.549 -0.5071 -0.1697  0.2031
 4223TIP3   OH236863   3.823   6.154  19.014  0.2414 -0.2072  0.4170
 4223TIP3    H136864   3.752   6.217  19.003  0.1145 -0.2358  1.0166
 4223TIP3    H236865   3.903   6.203  18.994 -0.0092 -0.4739 -1.3820
 4224TIP3   OH236866   6.717   0.858  16.854 -0.1610 -0.0154  0.1617
 4224TIP3    H136867   6.772   0.887  16.927  0.3339  0.2433 -0.3102
 4224TIP3    H236868   6.777   0.853  16.779 -0.6932 -0.1444 -0.2596
 4225TIP3   OH236869   4.466   6.326  18.460  0.1825  0.1992  0.4167
 4225TIP3    H136870   4.515   6.255  18.420  0.2787 -0.0635  0.9956
 4225TIP3    H236871   4.534   6.389  18.487  0.1193  0.3701  0.1764
 4226TIP3   OH236872   5.962   2.403  17.337  0.0793 -0.0419  0.1343
 4226TIP3    H136873   6.052   2.402  17.370 -0.5367  0.9244  2.0387
 4226TIP3    H236874   5.908   2.388  17.415 -1.4095 -0.6344 -0.9627
 4227TIP3   OH236875   4.302   0.299  17.286  0.0978  0.9251 -0.2192
 4227TIP3    H136876   4.364   0.247  17.235 -0.6625  0.6485 -0.9001
 4227TIP3    H236877   4.351   0.327  17.363  0.5249 -0.9002  0.2401
 4228TIP3   OH236878   3.036   4.531  18.092  0.3571  0.5095 -0.3106
 4228TIP3    H136879   3.036   4.614  18.046  0.8266 -0.4360 -2.1154
 4228TIP3    H236880   3.100   4.477  18.045 -1.9212 -1.8005 -1.0395
 4229TIP3   OH236881   5.201   1.314  17.785  0.1566 -0.2824 -0.3609
 4229TIP3    H136882   5.279   1.314  17.730  0.7736  1.8035  0.4350
 4229TIP3    H236883   5.129   1.293  17.725  0.8426  1.6680 -1.9643
 4230TIP3   OH236884   5.123   1.840  15.988  0.1629 -0.3722  0.1106
 4230TIP3    H136885   5.086   1.761  15.949  3.3693 -2.2528  0.4923
 4230TIP3    H236886   5.105   1.831  16.082  1.3193 -1.1783  0.2712
 4231TIP3   OH236887   0.821   1.036  19.349  0.3754  0.3342  0.0142
 4231TIP3    H136888   0.875   1.115  19.356 -0.1979  0.8479 -1.1686
 4231TIP3    H236889   0.813   1.020  19.255  0.6093 -1.2359  0.2351
 4232TIP3   OH236890   1.920   3.856  18.434  1.0131 -0.4058 -0.8850
 4232TIP3    H136891   1.947   3.825  18.520  1.2354  1.7547 -0.1309
 4232TIP3    H236892   1.825   3.844  18.432  0.8691  0.4478  0.0843
 4233TIP3   OH236893   1.121   1.688  17.866  0.4188 -0.1410  0.3166
 4233TIP3    H136894   1.185   1.709  17.934  0.5021  0.5696  0.0281
 4233TIP3    H236895   1.119   1.593  17.863  1.2880 -0.1681  0.4913
 4234TIP3   OH236896   0.034   1.081  17.554  0.3407  0.2650  0.3391
 4234TIP3    H136897   0.037   1.026  17.476  1.1517 -0.5514  0.9241
 4234TIP3    H236898   0.107   1.143  17.542  0.9399 -0.3402  0.7760
 4235TIP3   OH236899   4.730   2.036  18.528  0.6048 -0.9569  0.5113
 4235TIP3    H136900   4.684   2.111  18.565 -2.4222 -2.7575  0.7937
 4235TIP3    H236901   4.760   1.986  18.604  0.1653 -1.3673  0.4240
 4236TIP3   OH236902   3.590   5.850  18.605 -0.8896  0.1075  0.2195
 4236TIP3    H136903   3.671   5.800  18.591  0.2737  2.2685 -1.3499
 4236TIP3    H236904   3.617   5.925  18.657 -2.4905 -0.5241  2.0573
 4237TIP3   OH236905   1.134   5.701  19.830 -0.7863 -0.5314  0.1470
 4237TIP3    H136906   1.212   5.674  19.879 -0.5725 -2.1181 -0.9771
 4237TIP3    H236907   1.168   5.755  19.759 -0.8285 -0.3562  0.2591
 4238TIP3   OH236908   1.751   2.602  17.274  0.3072 -0.0361  0.1549
 4238TIP3    H136909   1.778   2.627  17.186  1.2917 -0.4936  0.3164
 4238TIP3    H236910   1.822   2.632  17.330  1.5219 -2.9815  0.3763
 4239TIP3   OH236911   0.917   5.212  18.962  0.5947  0.1218  0.2544
 4239TIP3    H136912   0.831   5.246  18.939  0.4831 -0.2090  0.1737
 4239TIP3    H236913   0.919   5.213  19.058  0.3307 -0.2770  0.2669
 4240TIP3   OH236914   1.908   5.777  17.980 -0.1877 -0.2871 -0.1586
 4240TIP3    H136915   1.888   5.707  17.918 -0.4504  1.1818 -1.7840
 4240TIP3    H236916   1.992   5.812  17.950 -2.0009  2.8301 -2.0077
 4241TIP3   OH236917   5.546   3.314  18.394 -0.5436 -0.1882  0.1662
 4241TIP3    H136918   5.493   3.328  18.316 -0.1014  0.4161 -0.0295
 4241TIP3    H236919   5.633   3.292  18.360 -0.3773 -0.0290  0.4934
 4242TIP3   OH236920   3.345   5.530  19.991 -0.1654 -0.2483 -0.3940
 4242TIP3    H136921   3.314   5.512  19.902  0.9128  0.3133 -0.9117
 4242TIP3    H236922   3.427   5.578  19.978  0.1487 -0.3938  0.9111
 4243TIP3   OH236923   4.409   1.492  19.107 -0.2754 -0.3509  0.2231
 4243TIP3    H136924   4.453   1.558  19.160  0.1629  0.7053 -1.4046
 4243TIP3    H236925   4.478   1.457  19.050 -0.5385 -2.1125  0.9072
 4244TIP3   OH236926   4.664   0.008  18.452  0.2670 -0.3193  0.8508
 4244TIP3    H136927   4.593  -0.055  18.458 -0.5657  0.5072 -0.1217
 4244TIP3    H236928   4.646   0.058  18.373  1.4052  0.5545  1.1165
 4245TIP3   OH236929   6.099   0.443  17.578 -0.6385  0.4439 -0.1460
 4245TIP3    H136930   6.037   0.504  17.617 -0.4187 -0.1414  1.1787
 4245TIP3    H236931   6.103   0.468  17.486 -1.8489  1.3108  0.0179
 4246TIP3   OH236932   5.910   1.896  18.940 -0.1131 -0.1957  0.3532
 4246TIP3    H136933   5.927   1.924  19.030  0.1805 -0.8450  0.4994
 4246TIP3    H236934   5.816   1.911  18.928  0.0450  0.9192  0.4043
 4247TIP3   OH236935   6.780   1.854  16.748  0.0470  0.1211  0.2157
 4247TIP3    H136936   6.809   1.827  16.661 -0.7880 -1.1365  0.3096
 4247TIP3    H236937   6.860   1.857  16.801  0.1010 -3.8544  0.6272
 4248TIP3   OH236938   2.131   6.073  17.940  0.3069  0.2227 -0.4441
 4248TIP3    H136939   2.177   6.156  17.928  0.8664  0.4016  2.1332
 4248TIP3    H236940   2.107   6.074  18.033 -1.3848 -1.6638 -0.8161
 4249TIP3   OH236941   5.198   5.021  19.864 -0.1107 -0.0848 -0.7623
 4249TIP3    H136942   5.159   4.978  19.940 -0.3108  1.0056 -0.2157
 4249TIP3    H236943   5.126   5.071  19.825 -0.3529 -1.6913 -2.5101
 4250TIP3   OH236944   3.039   1.891  17.302 -0.0417 -0.4865  0.5078
 4250TIP3    H136945   3.069   1.956  17.238 -1.2610  1.2248  1.5894
 4250TIP3    H236946   2.987   1.829  17.251  1.2881 -0.7621 -0.5788
 4251TIP3   OH236947   6.693   6.444  17.944  0.3076  0.1983 -0.8773
 4251TIP3    H136948   6.722   6.353  17.951 -0.1230  0.1137 -0.1647
 4251TIP3    H236949   6.725   6.487  18.023  1.6741  1.0135 -1.8201
 4252TIP3   OH236950   0.873   4.317  18.900  0.0448 -0.3712  0.0180
 4252TIP3    H136951   0.898   4.260  18.973  2.2007  0.3690 -0.0683
 4252TIP3    H236952   0.778   4.326  18.908  0.0676 -1.3093  1.9708
 4253TIP3   OH236953   3.595   4.528  18.683  0.1704 -0.0968 -0.5620
 4253TIP3    H136954   3.592   4.497  18.773  1.7433 -0.5565 -0.6414
 4253TIP3    H236955   3.509   4.506  18.648 -0.3709 -0.1549  0.7384
 4254TIP3   OH236956   1.502   3.553  17.123 -0.3441 -0.3407 -0.1193
 4254TIP3    H136957   1.540   3.504  17.050 -0.3638 -0.4381 -0.0650
 4254TIP3    H236958   1.426   3.501  17.149 -0.1911 -0.4390  0.1334
 4255TIP3   OH236959   0.720   1.229  19.777  0.2545 -0.1719  0.9445
 4255TIP3    H136960   0.691   1.237  19.686 -0.8275 -0.4681  1.2536
 4255TIP3    H236961   0.644   1.254  19.830  0.7813 -0.2752  1.7763
 4256TIP3   OH236962   5.283   2.536  19.077  0.3585 -0.7688  0.0711
 4256TIP3    H136963   5.231   2.506  19.002  0.1071 -0.9971  0.3314
 4256TIP3    H236964   5.239   2.498  19.153 -1.0999  1.7609  0.6047
 4257TIP3   OH236965   0.817   0.548  18.689 -0.0575  0.2725 -0.0328
 4257TIP3    H136966   0.811   0.473  18.748  0.5805  1.3632  1.4833
 4257TIP3    H236967   0.856   0.513  18.609 -2.7459 -1.6697 -0.6406
 4258TIP3   OH236968   5.327   6.030  16.249 -0.0745  0.1558 -0.7493
 4258TIP3    H136969   5.413   6.031  16.291  0.3898  1.2127 -1.6728
 4258TIP3    H236970   5.294   5.941  16.264  0.3682  0.2636  1.1751
 4259TIP3   OH236971   1.431   4.604  18.213  0.4248  0.7021 -0.4677
 4259TIP3    H136972   1.410   4.593  18.306  0.0783 -0.3060 -0.6556
 4259TIP3    H236973   1.470   4.521  18.187 -0.1054  0.7244 -1.3844
 4260TIP3   OH236974   1.239   0.577  19.794  0.2703  0.0952  0.1877
 4260TIP3    H136975   1.301   0.570  19.867  1.0455  0.7835 -0.3977
 4260TIP3    H236976   1.287   0.623  19.725 -0.7123  0.1526 -0.4805
 4261TIP3   OH236977   5.541   3.913  17.561  0.5071 -0.5247 -0.0689
 4261TIP3    H136978   5.615   3.856  17.581 -0.6576 -1.4913  1.7580
 4261TIP3    H236979   5.534   3.971  17.637  0.1012  0.3598 -0.7600
 4262TIP3   OH236980   6.626   6.364  19.811  0.2417  0.0303 -0.3968
 4262TIP3    H136981   6.697   6.423  19.836 -0.7658  1.0532  0.1392
 4262TIP3    H236982   6.548   6.401  19.853 -0.8901 -0.1870 -2.2165
 4263TIP3   OH236983   6.209   2.626  19.273 -0.3087  0.6853  0.7265
 4263TIP3    H136984   6.133   2.675  19.242  0.2034  0.9661 -0.1273
 4263TIP3    H236985   6.280   2.690  19.274 -0.6442  1.2053  4.2953
 4264TIP3   OH236986   6.751   3.013  18.864  0.1394 -0.2483 -0.5216
 4264TIP3    H136987   6.846   3.002  18.864  0.4677  1.9734 -0.1253
 4264TIP3    H236988   6.738   3.105  18.887 -2.1757 -0.9025  1.2140
 4265TIP3   OH236989   4.715   6.786  19.260 -0.8116 -0.7057  0.7245
 4265TIP3    H136990   4.803   6.800  19.227 -1.8716 -0.0623 -2.1145
 4265TIP3    H236991   4.690   6.870  19.298 -0.6966 -0.4518  0.2422
 4266TIP3   OH236992   0.781   1.783  17.470 -0.7667  0.3919 -0.0694
 4266TIP3    H136993   0.777   1.725  17.395  0.6939  1.1480 -0.7641
 4266TIP3    H236994   0.689   1.805  17.489 -1.2108 -0.7352 -0.8744
 4267TIP3   OH236995   6.005   2.542  19.752 -0.4120  0.8632  0.3226
 4267TIP3    H136996   6.058   2.489  19.811 -0.9991 -0.3318 -0.1721
 4267TIP3    H236997   6.064   2.563  19.680 -0.2412  0.6269  0.3903
 4268TIP3   OH236998   5.954   4.895  16.961  0.4392 -0.5975  0.2954
 4268TIP3    H136999   5.943   4.880  16.867  0.3587  0.5388  0.1192
 4268TIP3    H237000   5.941   4.808  17.000 -3.0602 -0.5510 -0.4297
 4269TIP3   OH237001   5.112   1.797  18.265 -0.2669 -0.3284  0.8486
 4269TIP3    H137002   5.069   1.868  18.313  0.0194  0.1439  0.4063
 4269TIP3    H237003   5.053   1.778  18.192 -0.6616 -0.9923  1.3253
 4270TIP3   OH237004   1.147   3.766  17.522 -0.0357 -0.1900  0.2764
 4270TIP3    H137005   1.225   3.712  17.530 -0.5264 -1.2659 -1.6867
 4270TIP3    H237006   1.126   3.765  17.429 -0.1240  3.3600  0.0999
 4271TIP3   OH237007   2.398   4.182  17.727  0.3760  0.6795 -0.1316
 4271TIP3    H137008   2.441   4.268  17.725  1.4406  0.2702  1.6714
 4271TIP3    H237009   2.467   4.121  17.701  0.1034  0.2375  0.1800
 4272TIP3   OH237010   1.793   0.844  18.061 -0.0061 -0.4402  0.6013
 4272TIP3    H137011   1.773   0.779  17.994  1.5218 -0.4573  0.1163
 4272TIP3    H237012   1.827   0.919  18.013 -4.2541  1.9333  0.9056
 4273TIP3   OH237013   2.419   0.948  20.109  0.8584 -0.1063 -0.1002
 4273TIP3    H137014   2.495   1.002  20.130  0.3183  0.8908 -0.6350
 4273TIP3    H237015   2.455   0.869  20.070  1.6084  0.6324 -0.9401
 4274TIP3   OH237016   0.355   1.618  17.655  0.2790 -0.7618  0.6353
 4274TIP3    H137017   0.336   1.600  17.747  0.6981  0.6145  1.0237
 4274TIP3    H237018   0.449   1.639  17.654  0.7759 -2.8269 -0.4700
 4275TIP3   OH237019   1.366   6.083  17.723  0.2780 -0.1884  0.4866
 4275TIP3    H137020   1.340   6.034  17.802  1.9202 -1.0012  0.5701
 4275TIP3    H237021   1.455   6.052  17.704  0.2584  0.6686 -1.1680
 4276TIP3   OH237022   2.636   6.421  18.659  0.0957 -0.1749 -0.1668
 4276TIP3    H137023   2.673   6.339  18.691  0.2692  0.0207  0.1360
 4276TIP3    H237024   2.680   6.436  18.575  1.0814  0.3117  0.4239
 4277TIP3   OH237025   5.445   6.411  17.976  0.5757  0.5226  0.2426
 4277TIP3    H137026   5.501   6.336  17.997  0.5815  1.0164  2.1322
 4277TIP3    H237027   5.356   6.375  17.975  0.5942  0.4300  0.9949
 4278TIP3   OH237028   5.301   0.008  18.248  0.0539  0.1481  0.0576
 4278TIP3    H137029   5.330  -0.052  18.179 -1.1929 -0.4033 -0.0146
 4278TIP3    H237030   5.311   0.095  18.210  2.0531  0.0292  0.2271
 4279TIP3   OH237031   6.422   1.351  16.904  0.3540  0.0802  0.1631
 4279TIP3    H137032   6.404   1.350  16.998 -1.5809 -0.9727 -0.1670
 4279TIP3    H237033   6.412   1.442  16.878 -0.4349  0.1707  0.7580
 4280TIP3   OH237034   2.341   6.068  19.985 -0.2139  0.1010  0.4646
 4280TIP3    H137035   2.318   6.128  19.913 -1.8724 -0.1457  0.7448
 4280TIP3    H237036   2.429   6.094  20.010  0.4210  0.2052 -1.6578
 4281TIP3   OH237037   2.877   3.782  17.888 -0.5918  0.3451 -0.3954
 4281TIP3    H137038   2.865   3.689  17.908  2.5856 -0.1675 -0.3428
 4281TIP3    H237039   2.849   3.828  17.967 -3.6097 -0.3592 -0.9409
 4282TIP3   OH237040   1.723   3.711  20.034 -0.3004 -0.0726  0.2579
 4282TIP3    H137041   1.722   3.756  20.118 -0.5647 -1.8005  1.2158
 4282TIP3    H237042   1.630   3.699  20.012 -0.2424 -1.0056  0.4986
 4283TIP3   OH237043   1.275   6.060  19.118  0.1117 -0.0460  0.2709
 4283TIP3    H137044   1.224   6.137  19.097  0.1462 -0.4693 -1.5390
 4283TIP3    H237045   1.278   6.010  19.037  2.3672 -0.6245  0.6255
 4284TIP3   OH237046   5.472   6.701  16.613  0.1878  0.1108  0.5433
 4284TIP3    H137047   5.468   6.609  16.588  1.0559 -0.0922  1.1022
 4284TIP3    H237048   5.432   6.748  16.539  0.0118 -0.6850  0.1239
 4285TIP3   OH237049   1.736   0.996  19.706  0.5543  0.0646  0.0469
 4285TIP3    H137050   1.749   1.080  19.751  1.7746  0.3500 -0.7915
 4285TIP3    H237051   1.817   0.982  19.658 -0.0576 -1.0788 -0.6894
 4286TIP3   OH237052   5.278   3.919  16.677  0.3230  0.4973  0.2180
 4286TIP3    H137053   5.214   3.940  16.745  0.0482 -0.3424  0.2406
 4286TIP3    H237054   5.310   4.003  16.645  0.7265  0.9106  1.6424
 4287TIP3   OH237055   5.249   3.102  19.066 -0.2344  0.4778 -0.5850
 4287TIP3    H137056   5.214   3.012  19.065  0.2430  0.2815  0.0120
 4287TIP3    H237057   5.265   3.122  18.974 -0.5364  0.0286 -0.7420
 4288TIP3   OH237058   1.466   6.534  18.405 -0.5016 -0.1860 -0.0835
 4288TIP3    H137059   1.512   6.455  18.376 -3.4033 -2.1285  0.0868
 4288TIP3    H237060   1.476   6.595  18.332  1.1272 -0.9889 -0.5877
 4289TIP3   OH237061   1.970   5.731  17.685 -0.4592  0.4176  0.3283
 4289TIP3    H137062   1.928   5.663  17.632 -1.9578  1.8158 -0.3496
 4289TIP3    H237063   2.060   5.733  17.654  0.0557 -2.2145  1.3762
 4290TIP3   OH237064   6.730   2.129  17.836 -0.0166  0.5570 -0.3288
 4290TIP3    H137065   6.804   2.103  17.782  0.4311  1.4928 -0.1689
 4290TIP3    H237066   6.653   2.106  17.784  0.3764 -0.3216 -0.5409
 4291TIP3   OH237067   1.806   1.637  19.717  0.3112 -0.0853  0.1728
 4291TIP3    H137068   1.861   1.603  19.788 -1.1604 -0.4397  1.2125
 4291TIP3    H237069   1.823   1.731  19.716  1.3451 -0.2610  0.0703
 4292TIP3   OH237070   1.795   2.644  16.954  0.7009 -0.0743 -0.8121
 4292TIP3    H137071   1.732   2.630  16.883  0.8863  1.4372 -1.3130
 4292TIP3    H237072   1.828   2.732  16.940  2.3645 -0.5320 -0.1024
 4293TIP3   OH237073   4.526   5.115  18.773 -0.5431 -0.2470 -0.0920
 4293TIP3    H137074   4.479   5.167  18.838  0.7187  0.9399 -0.0766
 4293TIP3    H237075   4.461   5.095  18.706 -0.7968  2.6349 -0.8468
 4294TIP3   OH237076   6.397   4.501  16.485 -0.2190  0.3577 -0.2607
 4294TIP3    H137077   6.385   4.483  16.579  1.9781 -1.0046 -0.1666
 4294TIP3    H237078   6.476   4.556  16.482 -0.0866  0.1102 -1.3371
 4295TIP3   OH237079   4.605   5.386  17.155  0.1983 -0.2567 -0.0398
 4295TIP3    H137080   4.543   5.451  17.188  0.6189 -0.5897  1.4967
 4295TIP3    H237081   4.565   5.353  17.074 -1.3658 -0.0785  0.6317
 4296TIP3   OH237082   2.521   6.601  17.080  0.2984 -0.5872 -0.5095
 4296TIP3    H137083   2.518   6.596  17.175  0.7283 -1.2798 -0.5257
 4296TIP3    H237084   2.614   6.600  17.059  0.2227  0.3396 -0.9038
 4297TIP3   OH237085   1.509   3.332  16.524 -0.2296  0.2249  0.6702
 4297TIP3    H137086   1.544   3.283  16.599  0.8511  0.9505  0.6467
 4297TIP3    H237087   1.518   3.272  16.450  1.4831  0.5762  0.5592
 4298TIP3   OH237088   3.249   4.491  18.320 -0.1379  0.2126  0.6641
 4298TIP3    H137089   3.235   4.584  18.298  0.1572 -0.0022 -0.5423
 4298TIP3    H237090   3.322   4.492  18.382  1.2704  0.6902 -0.9194
 4299TIP3   OH237091   4.533   2.593  19.531 -0.3776  0.4729 -0.6118
 4299TIP3    H137092   4.620   2.557  19.549  0.0740  0.4019 -2.6876
 4299TIP3    H237093   4.543   2.687  19.546  0.2380  0.5456 -1.4343
 4300TIP3   OH237094   4.097   0.072  19.413 -0.4772  0.7003 -0.2298
 4300TIP3    H137095   4.036   0.009  19.451 -0.2220  0.8071  0.3760
 4300TIP3    H237096   4.072   0.156  19.453 -0.6206  0.9314 -0.8002
 4301TIP3   OH237097   5.917   4.786  19.730 -0.7390 -0.2105  0.3988
 4301TIP3    H137098   5.920   4.831  19.814 -2.1159  0.0731  0.3235
 4301TIP3    H237099   5.824   4.782  19.708 -0.3682  2.5653 -2.5982
 4302TIP3   OH237100   6.040   4.436  17.868  0.3637 -0.5635 -0.3449
 4302TIP3    H137101   5.976   4.370  17.894  1.3047 -1.3450  0.0148
 4302TIP3    H237102   6.003   4.518  17.900 -0.0700 -1.0994  0.5706
 4303TIP3   OH237103   5.155   2.656  17.524  0.6316  0.0002  0.2378
 4303TIP3    H137104   5.148   2.735  17.471 -1.9863 -0.2221  0.1320
 4303TIP3    H237105   5.170   2.687  17.613 -1.5131  0.7558  0.3935
 4304TIP3   OH237106   4.816   1.845  19.938  0.1251  0.6008 -0.1283
 4304TIP3    H137107   4.735   1.863  19.986  0.7678  0.2618  1.1088
 4304TIP3    H237108   4.846   1.761  19.972  1.6529  1.3058  0.3567
 4305TIP3   OH237109   2.761   3.990  19.241 -0.2339 -0.3809  0.0540
 4305TIP3    H137110   2.733   3.919  19.185 -0.3619 -0.0564 -0.2975
 4305TIP3    H237111   2.685   4.048  19.246  0.7780  1.2747 -2.1072
 4306TIP3   OH237112   1.954   2.472  18.355 -0.2615 -0.4168  0.1820
 4306TIP3    H137113   1.881   2.462  18.416 -1.1361 -2.2256 -1.0748
 4306TIP3    H237114   1.928   2.545  18.298 -1.0235 -0.9004 -0.1149
 4307TIP3   OH237115   3.009   5.847  19.845 -0.3274 -0.5215  0.6123
 4307TIP3    H137116   3.011   5.937  19.877 -0.6025 -0.7286  1.2250
 4307TIP3    H237117   3.029   5.793  19.922  0.3627 -0.9583  0.1378
 4308TIP3   OH237118   0.215   1.933  16.146 -0.3131  0.3069  0.3199
 4308TIP3    H137119   0.162   1.953  16.068 -0.2007 -1.0585 -0.1238
 4308TIP3    H237120   0.161   1.963  16.219 -1.7053 -0.9800 -0.1208
 4309TIP3   OH237121   6.185   4.114  18.118  0.3899  0.4938  0.0348
 4309TIP3    H137122   6.144   4.027  18.119  0.9605  0.2210  0.9950
 4309TIP3    H237123   6.139   4.163  18.187 -0.5256  1.2638 -1.0804
 4310TIP3   OH237124   0.346   1.560  18.863 -0.3280 -0.3330 -0.3385
 4310TIP3    H137125   0.402   1.496  18.818 -1.8947 -2.6949  0.8327
 4310TIP3    H237126   0.258   1.541  18.830 -0.9719  0.5274  0.8179
 4311TIP3   OH237127   0.558   1.697  19.418  0.1188  0.5160 -0.3123
 4311TIP3    H137128   0.471   1.733  19.438  1.0021  2.0946  0.8587
 4311TIP3    H237129   0.568   1.624  19.479  0.3363  1.5051  0.8825
 4312TIP3   OH237130   2.478   5.888  18.386 -0.4138 -0.1856 -0.3383
 4312TIP3    H137131   2.468   5.862  18.478  2.2486 -0.1050  0.0583
 4312TIP3    H237132   2.487   5.805  18.339 -0.6379 -0.1975 -0.3615
 4313TIP3   OH237133   1.298   0.710  17.377 -0.4956 -0.0725 -0.6750
 4313TIP3    H137134   1.242   0.651  17.427  0.3577 -1.3820 -1.2239
 4313TIP3    H237135   1.263   0.797  17.397 -1.2394 -0.6672  0.8416
 4314TIP3   OH237136   3.339   4.793  19.053  0.2267 -0.2715 -0.7841
 4314TIP3    H137137   3.340   4.760  18.963  0.7939 -0.4918 -0.7019
 4314TIP3    H237138   3.249   4.781  19.082  0.0533 -0.2557 -1.2990
 4315TIP3   OH237139   5.175   3.656  16.794  0.5005  0.4343 -0.5541
 4315TIP3    H137140   5.161   3.601  16.717  0.4074 -0.9504  0.4255
 4315TIP3    H237141   5.087   3.670  16.829  0.6882 -0.5683  0.3758
 4316TIP3   OH237142   2.763   6.719  18.097  0.1506 -0.1728 -0.5286
 4316TIP3    H137143   2.847   6.758  18.073  0.3627 -0.9627 -1.0892
 4316TIP3    H237144   2.724   6.693  18.014  0.3533 -1.8295 -0.1342
 4317TIP3   OH237145   1.134   0.257  17.769  0.2201  0.0962 -0.1469
 4317TIP3    H137146   1.161   0.166  17.759  0.9015  0.2740  0.0299
 4317TIP3    H237147   1.046   0.260  17.732  0.3803 -0.5331 -0.5997
 4318TIP3   OH237148   6.233   2.405  17.427  0.0051  0.2422  0.4035
 4318TIP3    H137149   6.237   2.398  17.522  1.2161 -0.6865  0.3006
 4318TIP3    H237150   6.289   2.335  17.395  1.4504  1.9271 -0.9564
 4319TIP3   OH237151   0.399   1.083  19.030  0.2624 -0.1017  0.4575
 4319TIP3    H137152   0.428   0.999  19.066 -0.6148 -0.6854 -0.1413
 4319TIP3    H237153   0.410   1.145  19.102 -0.8734 -1.1145  1.5514
 4320TIP3   OH237154   2.758   1.028  18.617  0.1033 -0.4692  0.2403
 4320TIP3    H137155   2.792   1.044  18.705  0.4037 -1.1276  0.2498
 4320TIP3    H237156   2.731   0.936  18.617 -1.1712 -0.1154  0.0530
 4321TIP3   OH237157   2.114   1.079  19.315  0.2443 -0.2949  0.0187
 4321TIP3    H137158   2.207   1.066  19.297  0.2525  0.2816 -0.3738
 4321TIP3    H237159   2.071   1.069  19.230  0.0149  0.0297  0.0935
 4322TIP3   OH237160   4.635   5.231  17.799 -0.1054  0.8415 -0.0076
 4322TIP3    H137161   4.620   5.228  17.893 -0.1111  1.0416 -0.0025
 4322TIP3    H237162   4.707   5.170  17.785  0.3696  1.3377  0.2212
 4323TIP3   OH237163   2.484   0.438  18.665 -0.1305  0.1076 -0.0050
 4323TIP3    H137164   2.451   0.524  18.689 -0.4988  0.1888 -0.7817
 4323TIP3    H237165   2.429   0.410  18.592 -1.8891 -1.9997  1.9630
 4324TIP3   OH237166   6.388   1.707  18.541 -0.0065  0.5341 -0.4240
 4324TIP3    H137167   6.483   1.701  18.534  0.1607  0.3711  1.5836
 4324TIP3    H237168   6.365   1.643  18.609 -1.2723  2.2399  0.8299
 4325TIP3   OH237169   5.613   2.213  19.288 -0.0100 -0.5022  0.1203
 4325TIP3    H137170   5.609   2.305  19.264  0.2714 -0.6765 -0.6442
 4325TIP3    H237171   5.529   2.194  19.328 -0.5937 -0.2396 -0.9492
 4326TIP3   OH237172   2.645   4.259  19.969 -0.1914  0.2530 -0.2102
 4326TIP3    H137173   2.660   4.164  19.976 -1.0193  0.1985  1.1933
 4326TIP3    H237174   2.554   4.267  19.944 -0.4985  0.6628  0.9451
 4327TIP3   OH237175   4.051   0.125  17.742  0.4117 -0.1564  0.0160
 4327TIP3    H137176   4.002   0.067  17.684 -0.5944 -0.2903  0.9704
 4327TIP3    H237177   4.134   0.140  17.696 -0.4248 -0.0740 -1.5604
 4328TIP3   OH237178   3.259   5.002  18.752 -0.2583 -0.6152 -0.2519
 4328TIP3    H137179   3.330   5.067  18.753  1.5601 -2.4864 -0.8211
 4328TIP3    H237180   3.301   4.920  18.777 -2.2936 -1.7755 -0.4322
 4329TIP3   OH237181   2.263   6.178  17.570  0.2343 -0.3620  0.2140
 4329TIP3    H137182   2.347   6.213  17.602  0.0483  0.0572  0.2474
 4329TIP3    H237183   2.287   6.121  17.497  0.7795 -2.2146  1.7576
 4330TIP3   OH237184   6.662   2.743  17.985 -0.2695  0.0340  0.0140
 4330TIP3    H137185   6.693   2.759  18.075 -2.0119  0.2693  0.6184
 4330TIP3    H237186   6.598   2.813  17.970  1.0019  0.8304 -1.9498
 4331TIP3   OH237187   5.191   2.930  17.543 -0.2346  0.2506 -0.4348
 4331TIP3    H137188   5.226   3.011  17.581 -2.8963  1.2825  0.0833
 4331TIP3    H237189   5.177   2.952  17.451 -0.5038  0.2324 -0.3994
 4332TIP3   OH237190   1.749   1.738  18.972 -0.2651  0.2773  0.0592
 4332TIP3    H137191   1.667   1.762  18.927 -0.2777  0.2249  0.0532
 4332TIP3    H237192   1.790   1.675  18.913 -0.3669  0.0739  0.2038
 4333TIP3   OH237193   3.652   6.667  19.795 -0.2621 -0.0792  0.2672
 4333TIP3    H137194   3.721   6.634  19.853 -1.4705 -0.1484  1.7513
 4333TIP3    H237195   3.604   6.589  19.768 -0.3456  0.0505  0.0426
 4334TIP3   OH237196   6.768   4.791  19.110  0.6118 -0.1113 -0.3117
 4334TIP3    H137197   6.845   4.843  19.131  0.1469  1.3808 -2.0472
 4334TIP3    H237198   6.803   4.704  19.089  1.8691  0.5999 -1.2878
 4335TIP3   OH237199   2.240   5.689  19.797  0.3798 -0.8850  0.3896
 4335TIP3    H137200   2.148   5.713  19.788  0.2583 -1.2672  0.5679
 4335TIP3    H237201   2.260   5.705  19.890  1.3045  1.9486 -0.2149
 4336TIP3   OH237202   3.205   1.711  18.597 -0.1095 -0.2896  0.4376
 4336TIP3    H137203   3.138   1.698  18.531 -1.0690 -0.6303  1.4514
 4336TIP3    H237204   3.189   1.799  18.631  1.4914  0.6006 -0.9767
 4337TIP3   OH237205   0.867   5.842  19.134  0.2165 -0.8040  0.2366
 4337TIP3    H137206   0.856   5.825  19.228 -0.4284  0.6804  0.4634
 4337TIP3    H237207   0.961   5.852  19.122  0.2866 -0.7788  0.7719
 4338TIP3   OH237208   1.214   3.496  19.443 -0.3234 -0.0780  0.2168
 4338TIP3    H137209   1.249   3.585  19.440 -2.5511  0.8472 -0.7796
 4338TIP3    H237210   1.241   3.457  19.360  1.4018 -0.6805  1.0273
 4339TIP3   OH237211   5.566   2.903  19.238 -0.0101  0.2376  0.0506
 4339TIP3    H137212   5.502   2.862  19.180 -0.2843 -0.8132  1.0471
 4339TIP3    H237213   5.604   2.974  19.187  1.3035 -1.9337 -2.2290
 4340TIP3   OH237214   0.778   4.377  17.788 -0.1864 -0.4862 -0.1226
 4340TIP3    H137215   0.872   4.373  17.771  0.0446 -0.5196  1.0850
 4340TIP3    H237216   0.771   4.422  17.872 -1.4077  2.3025 -1.5608
 4341TIP3   OH237217   3.743   0.739  18.998 -0.0702  0.3417  0.0325
 4341TIP3    H137218   3.762   0.830  18.977  0.2714  0.2663  0.0091
 4341TIP3    H237219   3.656   0.724  18.961 -0.9304  1.1739  1.5972
 4342TIP3   OH237220   0.400   1.999  17.236 -0.4412  0.1643  0.2444
 4342TIP3    H137221   0.374   1.920  17.283 -1.0691 -0.0049 -0.3759
 4342TIP3    H237222   0.345   2.000  17.158  1.1102  0.0337 -0.8964
 4343TIP3   OH237223   2.117   2.061  19.275  0.1468 -0.1031  0.0007
 4343TIP3    H137224   2.036   2.109  19.290 -0.4252 -1.4141  1.3830
 4343TIP3    H237225   2.097   1.970  19.299  2.1388 -0.3899  0.8257
 4344TIP3   OH237226   0.565   3.902  17.825  0.1416 -0.1760 -0.2966
 4344TIP3    H137227   0.620   3.870  17.897 -0.0719 -1.5501 -0.7121
 4344TIP3    H237228   0.612   3.978  17.791  1.1451 -0.5599  0.1831
 4345TIP3   OH237229   5.180   4.760  19.612  0.1588  0.4983 -0.0060
 4345TIP3    H137230   5.264   4.721  19.590  0.1996  0.0367  0.9197
 4345TIP3    H237231   5.184   4.775  19.706 -0.0471  2.3059 -0.2488
 4346TIP3   OH237232   5.048   2.238  17.267 -0.2657  0.1524 -0.1985
 4346TIP3    H137233   4.985   2.166  17.259  0.8957 -0.9895  0.4004
 4346TIP3    H237234   5.006   2.313  17.225 -2.0105 -0.5642  0.2013
 4347TIP3   OH237235   3.819   0.129  17.520  0.2740 -0.2736 -0.4337
 4347TIP3    H137236   3.888   0.194  17.534 -0.0795 -0.1686  0.9907
 4347TIP3    H237237   3.744   0.164  17.567 -0.0655 -1.4687 -0.0578
 4348TIP3   OH237238   1.681   4.781  19.305  0.2120 -0.3383  0.4810
 4348TIP3    H137239   1.711   4.791  19.395  0.1057 -2.3465  0.7883
 4348TIP3    H237240   1.706   4.692  19.281  2.1475  0.8185 -2.2552
 4349TIP3   OH237241   2.592   0.820  17.471  0.0849 -0.2217  0.0692
 4349TIP3    H137242   2.678   0.808  17.430  0.1105  0.7979 -0.2032
 4349TIP3    H237243   2.595   0.908  17.509 -0.3812 -0.6746  1.2138
 4350TIP3   OH237244   1.710   0.377  17.874  0.5146  0.1760  0.1288
 4350TIP3    H137245   1.787   0.323  17.892 -0.0467 -0.2960  1.2309
 4350TIP3    H237246   1.665   0.333  17.803  0.9167  0.1060 -0.0879
 4351TIP3   OH237247   4.637   2.250  18.708  0.1524 -0.0278 -0.3263
 4351TIP3    H137248   4.643   2.189  18.781 -0.9927 -1.3373 -1.2646
 4351TIP3    H237249   4.543   2.267  18.698  0.1176 -1.1868 -2.4840
 4352TIP3   OH237250   6.710   2.247  19.846 -0.4174  0.2126  0.4439
 4352TIP3    H137251   6.681   2.296  19.769 -0.9577  0.6878  0.9319
 4352TIP3    H237252   6.780   2.190  19.814  0.2092  1.2826 -0.1547
 4353TIP3   OH237253   4.479   5.969  18.933  0.3833  0.2832  0.6650
 4353TIP3    H137254   4.454   5.889  18.978  0.5477  0.0062  0.2606
 4353TIP3    H237255   4.561   5.995  18.974 -0.2039  0.8331  1.5349
 4354TIP3   OH237256   5.268   0.278  18.864  0.1183 -0.2509 -0.2622
 4354TIP3    H137257   5.192   0.220  18.855 -0.1229  0.1956 -1.2824
 4354TIP3    H237258   5.324   0.256  18.790  0.1248  0.6628 -0.5390
 4355TIP3   OH237259   1.726   1.848  18.151 -0.2227 -0.2778 -0.5845
 4355TIP3    H137260   1.723   1.848  18.247 -2.0156 -1.7455 -0.5828
 4355TIP3    H237261   1.817   1.827  18.129  0.4100  0.9267  0.7672
 4356TIP3   OH237262   6.512   1.045  16.719 -0.5288  0.2286  0.8726
 4356TIP3    H137263   6.482   0.984  16.651  1.8919  0.2837 -0.3538
 4356TIP3    H237264   6.584   0.998  16.763  1.0611  1.9593  0.2344
 4357TIP3   OH237265   2.452   3.465  18.128 -0.3152 -0.0357 -0.0016
 4357TIP3    H137266   2.493   3.487  18.044 -1.3284  1.6281 -0.1157
 4357TIP3    H237267   2.372   3.418  18.105  0.1631 -0.9053  0.1011
 4358TIP3   OH237268   5.784   0.461  18.843 -0.0308 -0.1120  0.6245
 4358TIP3    H137269   5.709   0.459  18.784  0.3917 -1.3493  0.1093
 4358TIP3    H237270   5.859   0.435  18.789  0.7057  0.6168  1.2494
 4359TIP3   OH237271   2.666   5.327  19.299 -0.0591 -0.0452 -0.3833
 4359TIP3    H137272   2.601   5.387  19.336 -1.0971 -0.9127 -0.7609
 4359TIP3    H237273   2.693   5.272  19.372 -1.8586 -1.5340 -0.7592
 4360TIP3   OH237274   0.505   0.878  17.240  0.0632  0.3944  0.1370
 4360TIP3    H137275   0.451   0.915  17.170 -2.1885 -2.0221  0.4107
 4360TIP3    H237276   0.482   0.928  17.318 -2.1572 -0.7434  0.3053
 4361TIP3   OH237277   3.928   1.791  18.637  0.0619 -0.0533  0.1058
 4361TIP3    H137278   3.909   1.749  18.721  0.1080  0.6170  0.4616
 4361TIP3    H237279   3.934   1.719  18.574 -0.9510 -0.4889  0.4896
 4362TIP3   OH237280   4.308   2.156  17.888 -0.5287  0.3975  0.2355
 4362TIP3    H137281   4.265   2.222  17.943  0.0186 -0.7625  2.1453
 4362TIP3    H237282   4.329   2.084  17.948 -0.2068 -1.1083 -1.5757
 4363TIP3   OH237283   4.008   4.987  18.404 -0.2857  0.6600 -0.4758
 4363TIP3    H137284   4.054   4.905  18.384  0.4355  1.0054 -0.2553
 4363TIP3    H237285   3.915   4.965  18.394 -0.0966 -0.1570 -0.5202
 4364TIP3   OH237286   2.318   0.474  17.152  0.4264 -0.3071  0.1609
 4364TIP3    H137287   2.336   0.503  17.242 -0.6644 -0.0942  0.3219
 4364TIP3    H237288   2.242   0.525  17.125  1.1491  0.1153 -1.1462
 4365TIP3   OH237289   4.651   6.480  17.781 -0.3170  0.0269 -0.1990
 4365TIP3    H137290   4.630   6.536  17.706  0.3597  1.1292  0.4117
 4365TIP3    H237291   4.569   6.435  17.800 -1.5295  2.3623  0.5769
 4366TIP3   OH237292   0.189   3.930  18.337  0.3767  0.1951 -0.4744
 4366TIP3    H137293   0.244   3.888  18.404  1.3766  0.5175 -1.0582
 4366TIP3    H237294   0.120   3.867  18.318  1.1555 -0.6737 -0.4661
 4367TIP3   OH237295   2.714   4.700  19.929 -0.2417 -0.0742 -0.2913
 4367TIP3    H137296   2.711   4.794  19.947  1.3854  0.1770 -1.1536
 4367TIP3    H237297   2.648   4.663  19.987 -0.2140  1.4852  0.8139
 4368TIP3   OH237298   3.747   5.025  19.866 -0.2953 -0.2553  0.6179
 4368TIP3    H137299   3.722   5.116  19.882  0.1774 -0.1867  0.9728
 4368TIP3    H237300   3.671   4.987  19.822 -0.5729  0.2559  0.6477
 4369TIP3   OH237301   1.355   0.849  18.325  0.5525  0.0871  0.2086
 4369TIP3    H137302   1.350   0.791  18.249  0.5256  0.6452 -0.2220
 4369TIP3    H237303   1.444   0.885  18.322  1.0583 -1.0020  1.2828
 4370TIP3   OH237304   1.497   6.741  19.051 -0.1552 -0.2925  0.2320
 4370TIP3    H137305   1.565   6.802  19.079  0.2596 -0.3765 -0.5743
 4370TIP3    H237306   1.527   6.708  18.966  0.6970 -3.2083  1.5258
 4371TIP3   OH237307   5.756   5.197  19.010 -0.0905  0.3252 -0.0247
 4371TIP3    H137308   5.691   5.265  19.027 -1.0262 -0.6356  0.2679
 4371TIP3    H237309   5.823   5.212  19.077 -1.2932 -0.2988  1.3761
 4372TIP3   OH237310   1.254   6.526  18.587  0.3040  0.6411 -0.5099
 4372TIP3    H137311   1.172   6.479  18.571 -0.8795  2.2216  0.5941
 4372TIP3    H237312   1.311   6.500  18.515 -0.9272 -1.0015 -0.9534
 4373TIP3   OH237313   4.955   5.781  17.633 -0.3368  0.8140  0.2365
 4373TIP3    H137314   4.923   5.793  17.543 -2.8417  1.4725  1.1273
 4373TIP3    H237315   4.953   5.869  17.671 -1.3116  0.2788  1.5093
 4374TIP3   OH237316   2.214   6.526  17.776  0.0592  0.3284  0.4824
 4374TIP3    H137317   2.208   6.491  17.687  2.0673  0.8075  0.1066
 4374TIP3    H237318   2.135   6.578  17.787 -0.0861  0.5200 -1.1628
 4375TIP3   OH237319   3.549   4.475  18.925 -0.4261  0.1746 -0.4058
 4375TIP3    H137320   3.599   4.540  18.974  0.8198  0.5917 -2.1754
 4375TIP3    H237321   3.508   4.421  18.993  1.1238  0.8023  1.0947
 4376TIP3   OH237322   2.057   2.855  18.853 -0.2825  0.2699 -0.3532
 4376TIP3    H137323   1.994   2.911  18.807 -0.0278  0.8576  0.0149
 4376TIP3    H237324   2.118   2.915  18.895  0.9166 -0.2903 -1.2117
 4377TIP3   OH237325   0.380   6.292  18.461 -0.0383 -0.1495 -0.2915
 4377TIP3    H137326   0.356   6.220  18.404 -0.9686  0.8179 -1.1592
 4377TIP3    H237327   0.426   6.354  18.405 -0.8059  0.7359  0.0311
 4378TIP3   OH237328   1.808   0.473  17.103 -0.2683 -0.5418  0.7765
 4378TIP3    H137329   1.849   0.463  17.189  2.6577  1.8752 -0.1599
 4378TIP3    H237330   1.779   0.565  17.102 -0.3961 -0.5798 -0.7757
 4379TIP3   OH237331   6.035   1.371  17.902 -0.2881  0.5603  0.3407
 4379TIP3    H137332   6.098   1.363  17.974 -0.9501  2.1381  1.1598
 4379TIP3    H237333   6.067   1.445  17.851 -2.2909  2.4979  1.7299
 4380TIP3   OH237334   2.713   0.700  18.108 -0.8512  0.7502  0.1326
 4380TIP3    H137335   2.724   0.610  18.078 -0.4138  1.1380 -0.9387
 4380TIP3    H237336   2.641   0.735  18.055 -0.7010  1.1657  0.1964
 4381TIP3   OH237337   3.675   6.393  18.982 -0.2593 -0.1032 -0.1331
 4381TIP3    H137338   3.617   6.434  18.917  0.1898  0.6103 -0.0935
 4381TIP3    H237339   3.748   6.454  18.991  0.4072 -0.8971 -0.0320
 4382TIP3   OH237340   3.976   2.835  19.040  0.2457  0.1030 -0.2663
 4382TIP3    H137341   4.010   2.831  18.951  0.1283  1.0370 -0.3662
 4382TIP3    H237342   3.997   2.924  19.070  0.5397 -0.2898  0.7406
 4383TIP3   OH237343   1.160   4.683  18.841  0.1616  0.1342  0.3913
 4383TIP3    H137344   1.165   4.592  18.812 -0.3369 -0.2850  1.5907
 4383TIP3    H237345   1.072   4.693  18.875  0.2122  1.0751  0.2653
 4384TIP3   OH237346   4.637   5.552  17.880 -0.2011  0.4527 -0.3624
 4384TIP3    H137347   4.700   5.624  17.888  1.0316 -0.7074  1.2156
 4384TIP3    H237348   4.691   5.473  17.888 -1.8325 -0.5900  1.0833
 4385TIP3   OH237349   4.860   6.011  18.507  0.1380 -0.1601  0.2567
 4385TIP3    H137350   4.805   5.935  18.525 -0.5593  0.1598 -0.4445
 4385TIP3    H237351   4.879   6.048  18.594  0.3071 -0.9927  0.5875
 4386TIP3   OH237352   1.788   2.811  19.353  0.3521  0.3732  0.0338
 4386TIP3    H137353   1.810   2.722  19.325  0.7610  0.8687 -1.3331
 4386TIP3    H237354   1.843   2.867  19.298  0.9969  1.4457  1.7080
 4387TIP3   OH237355   6.432   3.200  17.487 -0.4469  0.2449  0.6219
 4387TIP3    H137356   6.496   3.175  17.420 -0.8569 -2.7607  1.1899
 4387TIP3    H237357   6.480   3.257  17.547  2.3527 -3.0848  1.8905
 4388TIP3   OH237358   5.796   1.695  16.177 -0.2294 -0.0806  0.0943
 4388TIP3    H137359   5.727   1.762  16.176  0.1721  0.3474  0.7064
 4388TIP3    H237360   5.797   1.661  16.087 -1.1625 -0.0152  0.0447
 4389TIP3   OH237361   3.290   0.484  17.696  0.2483  0.5569 -0.0680
 4389TIP3    H137362   3.258   0.401  17.731  0.6659  0.6618  0.5808
 4389TIP3    H237363   3.363   0.508  17.753  0.3544  1.1967 -0.4575
 4390TIP3   OH237364   3.481   2.593  18.593 -0.1216 -0.0928  0.3817
 4390TIP3    H137365   3.489   2.519  18.653 -0.5732  0.0570  0.6362
 4390TIP3    H237366   3.561   2.643  18.605  0.4158 -0.8102 -0.1627
 4391TIP3   OH237367   1.514   4.834  17.812 -0.3953 -0.3902 -0.5608
 4391TIP3    H137368   1.522   4.923  17.847  0.9440  0.4969 -2.9252
 4391TIP3    H237369   1.541   4.778  17.885  3.4296  1.4209 -0.3112
 4392TIP3   OH237370   1.888   0.399  20.073 -0.4308  0.3840 -0.2704
 4392TIP3    H137371   1.873   0.457  19.998  2.2421  0.6976 -0.6696
 4392TIP3    H237372   1.928   0.456  20.139  0.6368 -0.6169 -0.0262
 4393TIP3   OH237373   3.288   4.134  17.198  0.3249  0.1376 -0.4664
 4393TIP3    H137374   3.303   4.053  17.149 -1.2534 -0.3264 -0.2362
 4393TIP3    H237375   3.193   4.146  17.197  0.3062  0.6032  1.6804
 4394TIP3   OH237376   5.272   3.121  17.105  0.6216 -0.5375  0.2784
 4394TIP3    H137377   5.337   3.072  17.054  1.1836  0.7352 -0.2662
 4394TIP3    H237378   5.312   3.133  17.190  0.3770 -1.2264  0.4953
 4395TIP3   OH237379   6.682   0.618  16.648 -0.0372  0.0695 -0.3648
 4395TIP3    H137380   6.656   0.637  16.558  0.4071 -1.7167 -0.8865
 4395TIP3    H237381   6.604   0.577  16.687 -0.2842  0.9799  0.1500
 4396TIP3   OH237382   4.900   1.712  16.844 -0.6630  0.1140  0.0363
 4396TIP3    H137383   4.944   1.640  16.799 -0.2982  0.5059 -0.2354
 4396TIP3    H237384   4.843   1.751  16.778 -0.2826  0.5589 -0.0296
 4397TIP3   OH237385   2.982   6.732  16.501 -0.2440 -0.4023  0.0601
 4397TIP3    H137386   3.043   6.660  16.486 -0.4521 -0.3173 -1.2593
 4397TIP3    H237387   3.013   6.803  16.444 -1.0009 -0.0225  0.1061
 4398TIP3   OH237388   5.403   2.478  18.206  0.0153 -0.5951 -0.7549
 4398TIP3    H137389   5.492   2.458  18.236  0.5210  0.1744 -1.6913
 4398TIP3    H237390   5.378   2.557  18.255  0.5136  0.1667 -1.6949
 4399TIP3   OH237391   0.581   2.793  18.517 -1.0858  0.2769  0.0846
 4399TIP3    H137392   0.630   2.757  18.443  0.0216  1.4355  0.1979
 4399TIP3    H237393   0.519   2.853  18.477 -0.7260  0.6392  0.0572
 4400TIP3   OH237394   4.146   3.510  19.409  0.4596  0.3526  0.1012
 4400TIP3    H137395   4.063   3.557  19.408  0.5823  0.5693  0.0967
 4400TIP3    H237396   4.140   3.453  19.486  0.3414  0.4297  0.1488
 4401TIP3   OH237397   0.155   5.260  19.288  0.0128  0.6316  0.5317
 4401TIP3    H137398   0.246   5.233  19.273  0.1854  1.4147  0.1258
 4401TIP3    H237399   0.148   5.266  19.384  0.0797 -0.4297  0.6155
 4402TIP3   OH237400   6.282   4.748  16.843 -0.0898  0.2964  0.0168
 4402TIP3    H137401   6.231   4.693  16.783 -0.5479  1.4655 -0.7070
 4402TIP3    H237402   6.372   4.743  16.811  0.0445 -0.7727  0.5341
 4403TIP3   OH237403   5.204   4.241  17.985 -0.5376 -0.0876  0.3167
 4403TIP3    H137404   5.272   4.198  18.038  1.3555  1.6627 -0.5583
 4403TIP3    H237405   5.204   4.332  18.015 -0.1250  0.7242 -1.9325
 4404TIP3   OH237406   2.620   3.725  19.903  0.1731 -0.1347 -0.0295
 4404TIP3    H137407   2.627   3.647  19.958 -0.9513 -0.7081 -0.6701
 4404TIP3    H237408   2.571   3.696  19.826  1.4879  0.7159 -1.2285
 4405TIP3   OH237409   1.258   1.630  18.729  0.2547  0.7560 -0.2903
 4405TIP3    H137410   1.179   1.576  18.736  1.2083 -0.6016  0.4215
 4405TIP3    H237411   1.227   1.719  18.745 -1.4333  0.5200 -1.9181
 4406TIP3   OH237412   5.558   1.862  18.455 -0.2692 -0.0536  0.3676
 4406TIP3    H137413   5.491   1.837  18.391 -2.6861  0.4523  2.5166
 4406TIP3    H237414   5.563   1.787  18.514 -1.6230  1.2312  2.2285
 4407TIP3   OH237415   5.407   4.460  17.229 -0.1367 -0.3957  0.0054
 4407TIP3    H137416   5.487   4.508  17.209 -0.6632 -0.1634 -1.6695
 4407TIP3    H237417   5.429   4.368  17.215 -0.7761 -0.1793 -2.9316
 4408TIP3   OH237418   2.609   0.162  17.289 -0.2820  0.0632  0.3522
 4408TIP3    H137419   2.597   0.083  17.341 -0.5252  0.2453  0.5790
 4408TIP3    H237420   2.694   0.197  17.317 -1.0194  0.9102  1.6626
 4409TIP3   OH237421   4.847   5.234  19.336 -0.1307  0.7100 -0.4276
 4409TIP3    H137422   4.808   5.237  19.424 -1.1500 -0.9747 -0.7932
 4409TIP3    H237423   4.810   5.310  19.291 -0.7878  0.7296  0.1240
 4410TIP3   OH237424   4.716   1.485  19.850  0.5772 -0.2524  0.0979
 4410TIP3    H137425   4.678   1.399  19.831  0.8479 -0.4061  0.2591
 4410TIP3    H237426   4.659   1.547  19.803 -0.4549 -0.3995  1.0901
 4411TIP3   OH237427   0.559   3.141  19.112 -0.1903 -0.2525  0.0206
 4411TIP3    H137428   0.599   3.059  19.143 -0.5904 -0.5694 -0.2940
 4411TIP3    H237429   0.551   3.194  19.191  2.9179  0.7430 -0.1928
 4412TIP3   OH237430   5.908   2.971  19.647 -0.0089 -0.7395 -0.2472
 4412TIP3    H137431   5.933   3.062  19.665  0.4419 -1.1749  1.4422
 4412TIP3    H237432   5.814   2.967  19.668  0.0639 -0.7581  0.0788
 4413TIP3   OH237433   5.154   4.223  17.500 -0.0122 -0.2127 -0.0480
 4413TIP3    H137434   5.081   4.279  17.472 -0.7853 -0.6239  1.0520
 4413TIP3    H237435   5.188   4.186  17.419 -1.5506 -0.6158 -0.5430
 4414TIP3   OH237436   0.806   4.997  18.265 -0.1899 -0.2330  0.1393
 4414TIP3    H137437   0.828   5.019  18.356 -0.6707 -0.1728  0.2450
 4414TIP3    H237438   0.885   4.955  18.231 -0.1106 -0.5353  0.6820
 4415TIP3   OH237439   5.985   3.410  16.788  0.2016  0.4138  0.3179
 4415TIP3    H137440   5.947   3.342  16.732 -0.3014  1.8640 -1.1764
 4415TIP3    H237441   6.067   3.371  16.820  1.4114  0.1022 -2.8447
 4416TIP3   OH237442   6.558   2.476  17.893  0.6276  0.5030 -0.3604
 4416TIP3    H137443   6.602   2.537  17.952  1.1139  0.4634 -0.6781
 4416TIP3    H237444   6.504   2.533  17.837  1.1770  0.6560 -0.7377
 4417TIP3   OH237445   5.322   0.249  17.782 -0.2469  0.0965 -0.3344
 4417TIP3    H137446   5.287   0.242  17.693  0.9392  2.0964 -1.0184
 4417TIP3    H237447   5.397   0.308  17.774  1.3107 -1.4646  1.6149
 4418TIP3   OH237448   3.401   0.699  17.486 -0.2562  0.4855 -0.7057
 4418TIP3    H137449   3.449   0.750  17.552  1.8092  1.0664 -2.5195
 4418TIP3    H237450   3.413   0.749  17.405 -1.1834 -1.1141 -1.8641
 4419TIP3   OH237451   5.392   2.911  19.761  0.2901 -0.1787 -0.0221
 4419TIP3    H137452   5.391   2.884  19.669 -0.5530 -2.2005  0.5261
 4419TIP3    H237453   5.305   2.948  19.776  0.9070  1.4995 -0.3579
 4420TIP3   OH237454   4.992   6.526  17.583  0.0371  0.6454  0.2966
 4420TIP3    H137455   4.934   6.602  17.586  1.2816  1.5738  2.2227
 4420TIP3    H237456   5.079   6.562  17.565  0.3922 -0.5234 -0.5096
 4421TIP3   OH237457   4.605   4.286  19.760 -0.0636 -0.4533 -0.2676
 4421TIP3    H137458   4.535   4.335  19.717 -1.1657 -1.1042  0.7707
 4421TIP3    H237459   4.632   4.342  19.833 -0.4423 -0.8214  0.1528
 4422TIP3   OH237460   3.123   1.061  18.623 -0.1164 -0.2206  0.0714
 4422TIP3    H137461   3.155   1.095  18.706 -1.4177 -0.2558  0.6166
 4422TIP3    H237462   3.139   0.966  18.627  1.9952  0.0474 -0.7520
 4423TIP3   OH237463   0.866   2.084  18.207 -0.3696 -0.3567 -0.0069
 4423TIP3    H137464   0.899   2.150  18.267 -0.7828 -0.2239  0.0791
 4423TIP3    H237465   0.863   2.003  18.258 -1.4070 -0.0934  0.3792
 4424TIP3   OH237466   5.424   5.184  19.864 -0.3181  0.5521 -0.5015
 4424TIP3    H137467   5.368   5.108  19.851 -0.6736  0.6735  0.2869
 4424TIP3    H237468   5.475   5.164  19.942 -0.9584  1.4386  0.1566
 4425TIP3   OH237469   2.094   4.391  16.621 -0.1732  0.0025 -0.3087
 4425TIP3    H137470   2.047   4.451  16.679 -1.8215 -1.4357 -0.0824
 4425TIP3    H237471   2.101   4.439  16.538  3.1694  2.5257  1.2154
 4426TIP3   OH237472   3.532   3.960  19.087  0.0137 -0.7725  0.3354
 4426TIP3    H137473   3.596   3.889  19.084  1.6996  0.7068 -1.4400
 4426TIP3    H237474   3.577   4.031  19.135 -0.6167 -0.0235 -0.1519
 4427TIP3   OH237475   0.970   1.050  16.574 -0.6849  1.1899 -0.0895
 4427TIP3    H137476   0.897   1.110  16.558 -1.4887 -0.0328 -1.2118
 4427TIP3    H237477   0.984   1.006  16.491 -0.8606 -0.9628  0.9416
 4428TIP3   OH237478   0.476   6.764  18.847  0.2644  0.7279  0.0260
 4428TIP3    H137479   0.530   6.689  18.872 -0.9530 -0.7128 -1.4064
 4428TIP3    H237480   0.445   6.800  18.930 -0.4501 -1.3991  0.7359
 4429TIP3   OH237481   6.297   3.226  19.197  0.2067  0.0318 -0.0694
 4429TIP3    H137482   6.378   3.274  19.212  0.3687 -0.2288 -0.0957
 4429TIP3    H237483   6.228   3.282  19.233  0.5639 -0.4758  1.4728
 4430TIP3   OH237484   6.480   6.070  17.830 -0.1884 -0.0949 -0.5729
 4430TIP3    H137485   6.536   5.993  17.822  1.2281  0.9555 -1.1369
 4430TIP3    H237486   6.462   6.097  17.740  1.9783  2.0376 -0.4591
 4431TIP3   OH237487   5.707   3.290  19.260  0.6653 -0.2258  0.2121
 4431TIP3    H137488   5.624   3.260  19.222 -0.7750 -0.5190  3.3067
 4431TIP3    H237489   5.721   3.377  19.222 -0.7323 -0.4007 -0.7805
 4432TIP3   OH237490   4.710   6.378  19.307  0.4110 -0.2352 -0.3077
 4432TIP3    H137491   4.740   6.326  19.381 -0.2216 -0.1873 -0.0090
 4432TIP3    H237492   4.625   6.340  19.284 -1.2973  2.1325  1.5096
 4433TIP3   OH237493   6.607   5.807  19.408 -0.3834  0.1024  0.7403
 4433TIP3    H137494   6.573   5.722  19.437  0.4626  0.2039  2.1417
 4433TIP3    H237495   6.655   5.788  19.328 -1.3212 -0.5100  0.3134
 4434TIP3   OH237496   4.500   3.507  19.589  0.8907  0.1419 -0.2204
 4434TIP3    H137497   4.436   3.556  19.642  0.5285 -0.2045 -0.3369
 4434TIP3    H237498   4.580   3.508  19.642  0.5538 -0.1270  0.2994
 4435TIP3   OH237499   0.696   1.516  19.573  0.0612 -0.0326 -0.3538
 4435TIP3    H137500   0.669   1.468  19.651 -1.4302  0.7758 -0.3394
 4435TIP3    H237501   0.769   1.570  19.603 -0.2761  0.0200  0.3966
 4436TIP3   OH237502   3.163   2.012  16.588 -0.4770 -0.0722  0.0709
 4436TIP3    H137503   3.163   1.916  16.586  0.3339 -0.0761  0.1717
 4436TIP3    H237504   3.136   2.033  16.678 -0.5493 -0.2028  0.0811
 4437TIP3   OH237505   5.422   5.655  17.463  0.0666  0.3786  0.0410
 4437TIP3    H137506   5.492   5.679  17.401 -0.0752 -0.1624 -0.3370
 4437TIP3    H237507   5.350   5.626  17.407  0.1645 -0.7277  0.4711
 4438TIP3   OH237508   0.463   1.379  19.233  0.0398 -0.0967  0.1254
 4438TIP3    H137509   0.416   1.307  19.275  0.1710 -0.2893 -0.0602
 4438TIP3    H237510   0.394   1.441  19.206 -0.1662 -0.7293 -0.8249
 4439TIP3   OH237511   2.579   5.007  16.971 -0.3173 -0.4499  0.0477
 4439TIP3    H137512   2.590   5.078  17.033  0.7082 -0.7478  0.2299
 4439TIP3    H237513   2.628   5.035  16.894  1.0343 -1.4095  0.5205
 4440TIP3   OH237514   2.593   1.897  16.953 -0.2491  0.2715 -0.7050
 4440TIP3    H137515   2.564   1.857  16.871 -0.7093 -0.6057 -0.1378
 4440TIP3    H237516   2.624   1.823  17.006  2.6241  1.1095 -1.0619
 4441TIP3   OH237517   6.089   6.625  18.770  1.0584 -0.2870  0.0527
 4441TIP3    H137518   6.145   6.573  18.713  0.9470 -0.8459  0.4498
 4441TIP3    H237519   6.000   6.594  18.752  0.8230  0.7958 -0.7882
 4442TIP3   OH237520   3.778   4.345  18.539  0.3944  0.2227  0.1244
 4442TIP3    H137521   3.703   4.404  18.549  0.9421  0.9250  0.1390
 4442TIP3    H237522   3.830   4.384  18.468  0.3938 -0.6404 -0.3751
 4443TIP3   OH237523   1.731   4.708  18.975  0.5127  0.3725 -0.4889
 4443TIP3    H137524   1.642   4.726  18.946  0.5586  0.3371 -0.6531
 4443TIP3    H237525   1.778   4.685  18.895  1.2491  2.7003 -0.8055
 4444TIP3   OH237526   6.426   6.354  16.987  0.0513 -0.3243 -0.0698
 4444TIP3    H137527   6.383   6.336  16.903 -2.3090 -0.4648  1.0765
 4444TIP3    H237528   6.456   6.444  16.980 -1.1339  0.0358 -0.6817
 4445TIP3   OH237529   6.610   4.125  18.372  0.5521 -0.2300  0.0750
 4445TIP3    H137530   6.636   4.042  18.333  1.4071 -0.4960  1.1503
 4445TIP3    H237531   6.598   4.184  18.298  0.2454 -1.2199 -0.6790
 4446TIP3   OH237532   0.708   3.190  18.649  0.5524  0.0346  0.2801
 4446TIP3    H137533   0.636   3.164  18.591  0.4462  0.3741  0.2552
 4446TIP3    H237534   0.772   3.230  18.590 -0.1104  1.5481  0.5360
 4447TIP3   OH237535   4.707   1.223  17.265 -0.1351 -0.7432 -0.0128
 4447TIP3    H137536   4.758   1.173  17.329  1.0672  1.0161  0.4825
 4447TIP3    H237537   4.731   1.314  17.282 -0.8389 -0.1300 -2.0820
 4448TIP3   OH237538   0.631   2.293  19.033  0.5583 -0.0326 -0.0283
 4448TIP3    H137539   0.578   2.341  19.097 -0.3465 -1.8651  0.6597
 4448TIP3    H237540   0.716   2.338  19.033 -0.7304  2.6164 -0.7048
 4449TIP3   OH237541   1.091   2.797  19.661 -0.6308 -0.0897 -0.2847
 4449TIP3    H137542   1.143   2.737  19.607 -0.3875 -0.6823  0.6051
 4449TIP3    H237543   1.118   2.779  19.751 -2.1751 -0.1941  0.1790
 4450TIP3   OH237544   1.102   4.118  19.420 -0.1057 -0.2280  0.2857
 4450TIP3    H137545   1.051   4.123  19.501  1.3540  0.6154  1.2109
 4450TIP3    H237546   1.070   4.039  19.376  0.4531 -1.9701  2.7250
 4451TIP3   OH237547   3.498   0.682  18.866 -0.3197 -0.3747 -0.3402
 4451TIP3    H137548   3.433   0.749  18.888 -0.5782 -1.0743  1.1938
 4451TIP3    H237549   3.465   0.642  18.786 -1.5151 -0.3749  0.1345
 4452TIP3   OH237550   1.408   4.400  18.766  0.1933  0.1470  0.2572
 4452TIP3    H137551   1.421   4.441  18.680  0.0283 -1.2475 -0.4634
 4452TIP3    H237552   1.313   4.397  18.777  0.2297  1.6701  1.1880
 4453TIP3   OH237553   5.437   0.184  17.004 -0.1232  0.2114 -0.3832
 4453TIP3    H137554   5.393   0.222  16.927 -3.1743 -1.3748  0.4163
 4453TIP3    H237555   5.459   0.260  17.058 -2.8868  1.1407 -0.4080
 4454TIP3   OH237556   6.719   5.958  19.023  0.2427 -0.5840 -0.4461
 4454TIP3    H137557   6.727   5.883  19.083  0.4464 -1.1128 -1.1193
 4454TIP3    H237558   6.644   6.007  19.057  0.2345 -0.9778  0.1288
 4455TIP3   OH237559   4.057   4.727  17.710  0.0411  0.3891 -0.4099
 4455TIP3    H137560   3.982   4.668  17.709 -0.1198  0.5943 -0.6011
 4455TIP3    H237561   4.023   4.810  17.674  0.4725  0.3355 -0.9593
 4456TIP3   OH237562   6.190   1.247  17.025 -0.0791  0.6087 -0.7606
 4456TIP3    H137563   6.120   1.183  17.041  1.4899 -0.9827  0.0426
 4456TIP3    H237564   6.144   1.325  16.995 -2.1435 -0.6248 -1.0175
 4457TIP3   OH237565   3.449   2.939  18.052  0.1054  0.5016 -0.3188
 4457TIP3    H137566   3.511   2.868  18.069 -0.3381  0.3684  0.8117
 4457TIP3    H237567   3.503   3.017  18.044  0.4825  0.2542 -0.1889
 4458TIP3   OH237568   1.074   3.775  17.274 -0.1633  0.6173  0.0347
 4458TIP3    H137569   0.981   3.767  17.253 -0.2639  0.4306  0.5384
 4458TIP3    H237570   1.112   3.818  17.197 -0.7322  1.0382 -0.0228
 4459TIP3   OH237571   3.553   2.417  16.781 -0.1886 -0.1623  0.5128
 4459TIP3    H137572   3.464   2.443  16.802  0.2769  1.4959  0.5922
 4459TIP3    H237573   3.590   2.492  16.734  0.2505 -1.9505 -2.2374
 4460TIP3   OH237574   5.625   4.945  17.717 -0.0993 -0.3827  0.2545
 4460TIP3    H137575   5.610   4.854  17.741 -2.1259  0.0728  0.8901
 4460TIP3    H237576   5.582   4.996  17.786 -1.3006  1.0166 -1.4316
 4461TIP3   OH237577   0.427   2.581  19.787  0.5359 -0.3941  0.0677
 4461TIP3    H137578   0.336   2.553  19.775  0.1476  1.0408 -0.6571
 4461TIP3    H237579   0.476   2.532  19.721 -0.0098  0.0941 -0.7240
 4462TIP3   OH237580   4.778   5.772  17.856  0.1291  0.2955 -0.3415
 4462TIP3    H137581   4.824   5.765  17.772  1.1590  0.8879  0.1601
 4462TIP3    H237582   4.711   5.839  17.840  0.6260  0.7451 -0.5592
 4463TIP3   OH237583   4.508   4.058  19.855 -0.1837 -0.3196  0.3982
 4463TIP3    H137584   4.534   4.141  19.816 -0.6011 -0.5977 -0.4931
 4463TIP3    H237585   4.425   4.077  19.899  0.9090  0.3032  2.3025
 4464TIP3   OH237586   2.986   2.867  18.604 -0.8228 -0.4845  0.1640
 4464TIP3    H137587   3.073   2.833  18.626  0.3085  2.0355 -0.0468
 4464TIP3    H237588   2.982   2.865  18.509 -0.0343  1.4050  0.0426
 4465TIP3   OH237589   3.574   5.074  19.610 -0.1585 -0.2064 -0.5202
 4465TIP3    H137590   3.547   4.987  19.581 -2.0322 -1.2150  3.4223
 4465TIP3    H237591   3.661   5.087  19.574  0.2797 -3.8472 -1.0958
 4466TIP3   OH237592   6.378   3.599  18.984  0.4709 -0.2065 -0.4011
 4466TIP3    H137593   6.347   3.575  19.071  1.2481 -2.7727 -0.7520
 4466TIP3    H237594   6.473   3.591  18.988  0.6125  0.7305 -1.2212
 4467TIP3   OH237595   0.741   5.629  17.877  0.2353  0.0003 -0.5525
 4467TIP3    H137596   0.744   5.714  17.832  1.0033  0.3234  0.0818
 4467TIP3    H237597   0.669   5.638  17.940  1.5472  0.9105  0.8851
 4468TIP3   OH237598   2.592   4.462  19.292 -0.0413 -0.7851  0.4199
 4468TIP3    H137599   2.546   4.498  19.216  0.5533 -2.5219 -0.8130
 4468TIP3    H237600   2.568   4.521  19.364 -0.7385  0.8339 -1.0563
 4469TIP3   OH237601   2.637   0.772  19.341  0.2730  0.0618  0.3196
 4469TIP3    H137602   2.580   0.746  19.268 -1.2600 -0.5655  1.6603
 4469TIP3    H237603   2.719   0.799  19.299 -0.3162 -0.8710 -1.5820
 4470TIP3   OH237604   1.750   0.814  18.628  0.0873 -0.1616  0.1440
 4470TIP3    H137605   1.818   0.861  18.582 -0.1398 -0.9276 -1.0093
 4470TIP3    H237606   1.690   0.882  18.658  1.3963  0.5366  1.3058
 4471TIP3   OH237607   0.888   5.082  17.507 -0.9744  0.3282 -0.0729
 4471TIP3    H137608   0.872   5.010  17.568 -0.6681  1.6918  1.7346
 4471TIP3    H237609   0.976   5.065  17.472 -0.8809 -0.1532  0.3763
 4472TIP3   OH237610   4.819   5.141  17.094 -0.0244  0.3359 -0.1979
 4472TIP3    H137611   4.882   5.069  17.089 -1.0147 -0.7313  1.8074
 4472TIP3    H237612   4.743   5.110  17.044  0.0490  0.5548 -0.4488
 4473TIP3   OH237613   6.384   5.203  16.151  0.0914 -0.0837  0.2297
 4473TIP3    H137614   6.350   5.286  16.185  0.5601  0.4248 -0.5111
 4473TIP3    H237615   6.319   5.138  16.177 -0.7394  0.6497  0.0531
 4474TIP3   OH237616   2.074   6.186  19.022 -0.3357  0.5073  0.3884
 4474TIP3    H137617   2.012   6.233  19.078 -1.3881  1.9859 -1.8764
 4474TIP3    H237618   2.114   6.254  18.968 -0.1926 -0.9381 -1.4310
 4475TIP3   OH237619   5.886   1.599  18.831 -0.0282  0.7383  0.0001
 4475TIP3    H137620   5.929   1.683  18.848  1.3550  0.0724 -0.0668
 4475TIP3    H237621   5.865   1.601  18.737  0.5186  0.7927 -0.1253
 4476TIP3   OH237622   0.006   6.791  15.974 -0.9183 -0.2540  0.1689
 4476TIP3    H137623  -0.052   6.865  15.952 -1.1816 -0.4067  0.3388
 4476TIP3    H237624  -0.025   6.762  16.060  0.1781  0.4172  0.8161
 4477TIP3   OH237625   2.822   2.584  17.739 -0.2956  0.0756 -0.0992
 4477TIP3    H137626   2.837   2.679  17.735 -1.7727  0.3251 -0.1963
 4477TIP3    H237627   2.727   2.575  17.737 -0.1740 -1.4110  0.1274
 4478TIP3   OH237628   5.537   6.642  19.380  0.1767  0.8849 -0.0400
 4478TIP3    H137629   5.520   6.575  19.313  1.3488  2.0616 -1.5900
 4478TIP3    H237630   5.628   6.629  19.404  0.0725  1.1741  0.5149
 4479TIP3   OH237631   5.408   4.943  18.424  0.1913 -0.2473  0.2096
 4479TIP3    H137632   5.439   4.896  18.501 -0.6177 -2.2562 -0.6093
 4479TIP3    H237633   5.313   4.932  18.425  0.0430  0.8281 -0.3718
 4480TIP3   OH237634   3.688   4.490  18.232 -0.2591  0.8846  0.2849
 4480TIP3    H137635   3.722   4.498  18.143 -1.1775  1.6623 -0.0161
 4480TIP3    H237636   3.625   4.562  18.240 -0.8579  0.2782  1.2528
 4481TIP3   OH237637   2.815   2.711  17.235 -0.5372  0.2005  0.2913
 4481TIP3    H137638   2.771   2.693  17.152  0.8684  1.6371 -0.8391
 4481TIP3    H237639   2.905   2.682  17.221 -0.8597 -2.1469  2.3390
 4482TIP3   OH237640   5.858   6.192  18.406  0.3231  0.1885  0.2592
 4482TIP3    H137641   5.891   6.163  18.491  0.8096  0.3270  0.1180
 4482TIP3    H237642   5.867   6.288  18.408 -0.9443  0.3194  0.5861
 4483TIP3   OH237643   3.803   4.706  19.516 -0.1695  0.1284  0.1495
 4483TIP3    H137644   3.880   4.702  19.573 -0.2181  0.5327  0.2457
 4483TIP3    H237645   3.763   4.619  19.524  1.8505 -1.1078 -2.1414
 4484TIP3   OH237646   2.653   4.895  19.333  0.7050 -0.1710  0.4867
 4484TIP3    H137647   2.719   4.894  19.263  1.0577  0.1544  0.8139
 4484TIP3    H237648   2.667   4.813  19.380  0.9403 -0.0612  0.6114
 4485TIP3   OH237649   6.602   4.202  19.737  0.8820  0.2045  0.0715
 4485TIP3    H137650   6.637   4.247  19.814  0.2921 -1.7373  1.5836
 4485TIP3    H237651   6.507   4.197  19.754  0.8259 -0.7809 -0.4648
 4486TIP3   OH237652   5.644   0.847  17.914 -0.2742  0.2140  0.1130
 4486TIP3    H137653   5.556   0.881  17.898 -0.1130  0.6021  0.0315
 4486TIP3    H237654   5.701   0.902  17.859  0.0093 -0.0832  0.1061
 4487TIP3   OH237655   4.303   5.003  18.091  0.6211 -0.2818  0.0349
 4487TIP3    H137656   4.210   5.004  18.066  0.4307 -0.5741  0.6973
 4487TIP3    H237657   4.341   4.931  18.040  1.0253  1.2952 -2.0280
 4488TIP3   OH237658   2.861   0.847  17.451  0.0391 -0.5133  0.0405
 4488TIP3    H137659   2.949   0.810  17.458 -0.2893 -1.1142  0.9888
 4488TIP3    H237660   2.866   0.903  17.373  0.8886 -1.5585 -0.6825
 4489TIP3   OH237661   1.397   3.009  19.918 -0.0101  0.0470  0.1126
 4489TIP3    H137662   1.448   3.072  19.867 -0.2992  0.7913  0.7079
 4489TIP3    H237663   1.324   3.060  19.952 -1.9644 -1.2965 -1.8312
 4490TIP3   OH237664   0.054   6.538  17.296  0.1864  0.5905 -0.5401
 4490TIP3    H137665   0.013   6.582  17.370 -0.0182  1.0085 -0.9008
 4490TIP3    H237666   0.006   6.456  17.287  0.6534  0.2191  0.2144
 4491TIP3   OH237667   3.251   5.046  19.108  0.0305  0.0308 -0.0421
 4491TIP3    H137668   3.296   4.962  19.091 -0.4268 -0.3404  0.5660
 4491TIP3    H237669   3.299   5.084  19.181  1.1014  0.9626 -1.1815
 4492TIP3   OH237670   2.118   2.374  17.575  0.1836 -0.0690  0.3570
 4492TIP3    H137671   2.057   2.303  17.559 -0.1197  0.4416 -0.8694
 4492TIP3    H237672   2.203   2.331  17.584 -0.1039 -0.6395  0.3653
 4493TIP3   OH237673   6.692   5.871  17.384 -0.1057  0.0249 -0.2116
 4493TIP3    H137674   6.766   5.817  17.410  0.0222  0.2923 -0.0106
 4493TIP3    H237675   6.632   5.866  17.459 -0.6407 -0.7990 -0.6767
 4494TIP3   OH237676   2.014   6.309  17.633 -0.0225  0.2111  0.0504
 4494TIP3    H137677   2.103   6.286  17.607 -0.1170  0.0228 -0.1144
 4494TIP3    H237678   1.972   6.225  17.651  0.1806  0.3605  1.2908
 4495TIP3   OH237679   0.299   0.956  18.702 -0.0816  0.1035  0.4543
 4495TIP3    H137680   0.317   0.876  18.751  3.5484 -0.5573 -1.6069
 4495TIP3    H237681   0.274   0.926  18.615  1.1960  1.1134 -0.3100
 4496TIP3   OH237682   1.157   6.552  19.053  0.3064 -0.4162 -0.5426
 4496TIP3    H137683   1.244   6.537  19.015  0.8282  0.3027  0.3228
 4496TIP3    H237684   1.120   6.465  19.063  1.0055 -0.7439 -0.7387
 4497TIP3   OH237685   3.667   4.231  19.510 -0.2405  0.4094  0.0376
 4497TIP3    H137686   3.731   4.163  19.489 -1.6831 -0.6753 -1.1825
 4497TIP3    H237687   3.613   4.237  19.431 -2.3288  0.4347  1.3767
 4498TIP3   OH237688   2.609   0.069  18.709  0.1022 -0.7224 -0.1316
 4498TIP3    H137689   2.635  -0.018  18.741 -1.2555 -0.8826  0.6047
 4498TIP3    H237690   2.555   0.105  18.779 -0.2433  0.2809 -0.8984
 4499TIP3   OH237691   5.377   5.497  18.169 -0.7362  0.4008 -0.3603
 4499TIP3    H137692   5.453   5.554  18.181 -0.1875 -0.5288  0.7249
 4499TIP3    H237693   5.308   5.556  18.140 -0.6275  1.9317  2.1817
 4500TIP3   OH237694   0.779   3.711  19.106  0.4230 -0.2299 -0.4034
 4500TIP3    H137695   0.742   3.654  19.174 -0.0183  1.8195  1.1455
 4500TIP3    H237696   0.873   3.700  19.114  0.3493 -2.1012 -1.3977
 4501TIP3   OH237697   1.495   6.444  17.172  0.4793 -0.2875  0.4497
 4501TIP3    H137698   1.481   6.491  17.254 -1.4543 -0.3644  0.2168
 4501TIP3    H237699   1.466   6.354  17.190  1.7678 -0.7746  0.1824
 4502TIP3   OH237700   0.161   3.049  19.295  0.3448  0.2523  0.4618
 4502TIP3    H137701   0.202   3.027  19.378 -1.0872 -0.0652  1.1180
 4502TIP3    H237702   0.187   2.978  19.236 -0.0174 -0.4515  1.1274
 4503TIP3   OH237703   2.685   2.728  19.012 -0.3105  0.5980 -0.5544
 4503TIP3    H137704   2.716   2.762  18.928  1.6369 -1.1961 -0.6243
 4503TIP3    H237705   2.671   2.634  18.996 -0.1217  0.2703  1.0639
 4504TIP3   OH237706   0.723   2.916  16.134  0.1083 -0.5746 -0.2425
 4504TIP3    H137707   0.814   2.916  16.101 -0.1182 -1.5371 -0.9238
 4504TIP3    H237708   0.690   3.003  16.114  0.9461 -0.1435  0.1997
 4505TIP3   OH237709   2.428   3.750  18.582 -0.2350  0.5179  0.2584
 4505TIP3    H137710   2.442   3.691  18.656  0.8906 -0.0218 -0.3544
 4505TIP3    H237711   2.443   3.695  18.505  1.7663  1.7962 -0.3372
 4506TIP3   OH237712   5.134   1.699  19.604 -0.3146 -0.2516  0.2623
 4506TIP3    H137713   5.227   1.674  19.604 -0.5847 -1.3251 -0.8036
 4506TIP3    H237714   5.110   1.698  19.697  0.6033 -0.4862  0.5122
 4507TIP3   OH237715   4.365   5.811  17.611 -0.3387 -0.0943  0.3928
 4507TIP3    H137716   4.386   5.747  17.679 -0.5928 -0.9631 -0.3276
 4507TIP3    H237717   4.430   5.880  17.622 -0.8157  0.1345  1.9662
 4508TIP3   OH237718   6.771   2.713  18.257 -0.0011 -0.0752  0.3138
 4508TIP3    H137719   6.864   2.727  18.237 -0.4424  1.4924 -0.8473
 4508TIP3    H237720   6.768   2.700  18.352  1.4027 -0.0935  0.3706
 4509TIP3   OH237721   1.881   4.962  19.102  0.2736  0.2128 -0.2137
 4509TIP3    H137722   1.849   5.010  19.026  1.6094 -0.2272 -1.0972
 4509TIP3    H237723   1.832   4.880  19.101 -1.1592  1.0274  0.6078
 4510TIP3   OH237724   2.988   2.699  19.696 -0.2188  0.2982 -1.3021
 4510TIP3    H137725   2.960   2.624  19.642 -0.6317  0.3291 -1.1329
 4510TIP3    H237726   3.052   2.745  19.641 -0.7731  0.4331 -1.8483
 4511TIP3   OH237727   0.918   3.504  17.304  0.7704  0.3265  0.0086
 4511TIP3    H137728   0.955   3.565  17.368 -1.6315 -0.8072  2.6975
 4511TIP3    H237729   0.887   3.560  17.232  0.9184  1.9946  1.1946
 4512TIP3   OH237730   1.594   5.358  16.556  0.2853 -0.7018  0.0139
 4512TIP3    H137731   1.584   5.399  16.470 -0.3035  0.5682  0.6693
 4512TIP3    H237732   1.656   5.286  16.541  0.0080 -0.6495 -1.5104
 4513TIP3   OH237733   4.101   2.102  16.872  0.3263  0.2506 -0.0804
 4513TIP3    H137734   4.086   2.008  16.861 -1.4954  0.3683  1.0774
 4513TIP3    H237735   4.033   2.131  16.933  1.1584  2.2386 -0.0142
 4514TIP3   OH237736   0.915   3.242  17.301  0.3124  0.3022  0.5523
 4514TIP3    H137737   0.946   3.331  17.319 -0.8806  0.8119  0.1732
 4514TIP3    H237738   0.836   3.254  17.248  1.1837 -1.0150 -1.1760
 4515TIP3   OH237739   0.138   1.433  18.569  0.1288  0.9702  0.2953
 4515TIP3    H137740   0.088   1.467  18.643  1.1363  0.3954  1.2844
 4515TIP3    H237741   0.187   1.359  18.606 -0.3367 -0.1614 -1.2602
 4516TIP3   OH237742   5.687   1.385  18.208 -0.0790 -0.5931  0.1723
 4516TIP3    H137743   5.661   1.445  18.279 -1.7816 -0.5593 -0.4376
 4516TIP3    H237744   5.703   1.442  18.133  1.1866 -0.6793  0.3530
 4517TIP3   OH237745   5.076   3.310  17.124  0.4515  0.2576  0.0213
 4517TIP3    H137746   5.157   3.263  17.103  0.2379  0.5367 -1.6100
 4517TIP3    H237747   5.058   3.361  17.045 -2.1002 -0.8996 -0.2385
 4518TIP3   OH237748   3.623   1.364  18.883  0.2114  0.5057 -0.6665
 4518TIP3    H137749   3.691   1.418  18.841  1.1881  0.0429  0.2681
 4518TIP3    H237750   3.672   1.298  18.932 -0.9470 -0.3534 -0.6322
 4519TIP3   OH237751   5.875   2.466  16.477 -0.0181 -0.3618  1.0775
 4519TIP3    H137752   5.798   2.412  16.458 -0.3292 -0.2936  2.0912
 4519TIP3    H237753   5.938   2.443  16.408 -0.7270 -0.8430  0.5767
 4520TIP3   OH237754   4.276   3.920  17.162 -0.3780  0.8629  0.0089
 4520TIP3    H137755   4.240   3.977  17.094 -0.0665  0.1808 -0.7503
 4520TIP3    H237756   4.302   3.841  17.115 -3.7185 -1.3000  1.3767
 4521TIP3   OH237757   4.744   0.409  18.007 -0.0222  0.7142  0.4199
 4521TIP3    H137758   4.768   0.317  18.013  0.6712  0.7405 -1.2793
 4521TIP3    H237759   4.695   0.427  18.087  2.3011 -0.3726  2.1972
 4522TIP3   OH237760   0.194   2.825  18.120  0.0668 -0.0266  0.0528
 4522TIP3    H137761   0.281   2.791  18.142 -0.4837 -1.6408 -0.1968
 4522TIP3    H237762   0.210   2.888  18.049  1.4116  2.3576  2.2764
 4523TIP3   OH237763   6.146   2.670  18.722  0.5276  0.0782 -0.1405
 4523TIP3    H137764   6.218   2.720  18.682  1.1864 -0.0129  0.8895
 4523TIP3    H237765   6.126   2.602  18.659  1.4616  0.0094 -0.3784
 4524TIP3   OH237766   3.388   4.223  18.991 -0.8924  0.4157 -0.3066
 4524TIP3    H137767   3.455   4.170  19.035 -0.6858  0.6829 -0.2939
 4524TIP3    H237768   3.348   4.274  19.061  0.2805  1.7591 -0.5753
 4525TIP3   OH237769   3.348   6.632  17.169  0.4671  0.3238 -0.1349
 4525TIP3    H137770   3.387   6.588  17.244 -0.9807  0.6503  0.8582
 4525TIP3    H237771   3.255   6.608  17.173  0.2970  0.6741 -1.5920
 4526TIP3   OH237772   6.274   5.576  19.727  0.3472 -0.5734  0.0104
 4526TIP3    H137773   6.277   5.663  19.768 -0.1507 -0.7328  0.3864
 4526TIP3    H237774   6.334   5.584  19.653 -1.2333  0.7384 -1.2165
 4527TIP3   OH237775   4.140   4.880  19.354  0.3886  0.3235 -0.5972
 4527TIP3    H137776   4.230   4.878  19.388 -0.2390 -0.5135  1.1400
 4527TIP3    H237777   4.128   4.794  19.314 -0.4550 -0.6282  1.5697
 4528TIP3   OH237778   3.378   0.893  17.955 -0.3796  0.3647 -0.1045
 4528TIP3    H137779   3.425   0.809  17.956  1.0543  1.1474  1.0563
 4528TIP3    H237780   3.303   0.879  18.014 -0.4052 -0.2198 -0.2664
 4529TIP3   OH237781   4.750   0.512  18.585  0.7145  0.3165  0.4330
 4529TIP3    H137782   4.804   0.516  18.506  0.4024 -0.2696  0.1842
 4529TIP3    H237783   4.714   0.423  18.585 -0.6890  0.8549  0.3001
 4530TIP3   OH237784   3.589   4.157  18.597 -0.3170  0.0282  0.2865
 4530TIP3    H137785   3.576   4.104  18.518 -0.4459  0.9030 -0.3008
 4530TIP3    H237786   3.675   4.198  18.585 -0.3017  0.1082  0.6415
 4531TIP3   OH237787   5.112   4.969  19.464  0.0788  0.0793  0.7155
 4531TIP3    H137788   5.140   4.887  19.505 -1.3763 -0.4504  0.6996
 4531TIP3    H237789   5.194   5.013  19.441  0.9442 -1.9316 -0.4056
 4532TIP3   OH237790   6.071   0.177  18.579  0.0062  0.4455 -0.1939
 4532TIP3    H137791   6.025   0.155  18.499  0.6085 -2.3014  0.1274
 4532TIP3    H237792   6.013   0.238  18.625 -1.3843  0.2534 -1.6417
 4533TIP3   OH237793   0.457   0.149  18.316 -0.0885 -0.2198 -0.2684
 4533TIP3    H137794   0.547   0.180  18.309 -0.3060  0.7521  0.9649
 4533TIP3    H237795   0.455   0.100  18.398 -0.8203  0.2279 -0.0141
 4534TIP3   OH237796   1.153   5.149  16.860 -0.2773  0.0303 -0.0726
 4534TIP3    H137797   1.157   5.054  16.853 -1.5937  0.0238 -1.2123
 4534TIP3    H237798   1.069   5.172  16.821 -0.2048  1.6258  0.6520
 4535TIP3   OH237799   1.627   4.112  17.458 -0.0591 -0.4993  0.1750
 4535TIP3    H137800   1.579   4.183  17.417 -0.8740 -0.8198  0.5490
 4535TIP3    H237801   1.563   4.041  17.467  0.6454 -1.1600  0.1164
 4536TIP3   OH237802   6.297   2.346  19.752  0.2753  0.2423  1.0907
 4536TIP3    H137803   6.388   2.359  19.725 -0.2991  0.5816 -0.8442
 4536TIP3    H237804   6.249   2.416  19.707 -1.5514 -2.5086 -1.5742
 4537TIP3   OH237805   1.350   3.369  19.813  0.4875  0.1288  0.1158
 4537TIP3    H137806   1.418   3.313  19.778 -0.1764 -1.3585  1.1059
 4537TIP3    H237807   1.378   3.458  19.792  0.6788 -0.5833 -3.0897
 4538TIP3   OH237808   1.962   1.833  17.977  0.3929  0.5812 -0.1467
 4538TIP3    H137809   1.944   1.924  17.956  0.4889  0.7992  0.6830
 4538TIP3    H237810   2.054   1.820  17.951  0.1773  0.5194 -0.9029
 4539TIP3   OH237811   5.297   3.681  18.932 -0.7309 -0.1374  0.1577
 4539TIP3    H137812   5.381   3.726  18.944 -0.6076 -0.5097  0.7433
 4539TIP3    H237813   5.319   3.588  18.931 -0.9371 -0.1891 -1.4526
 4540TIP3   OH237814   1.054   3.109  16.921 -0.1616 -0.2662  0.2171
 4540TIP3    H137815   1.126   3.075  16.869 -0.6818 -0.2902 -0.5116
 4540TIP3    H237816   0.995   3.035  16.931  0.4473 -0.5710  1.8096
 4541TIP3   OH237817   5.115   6.316  18.816 -0.2485  0.3928  0.1954
 4541TIP3    H137818   5.207   6.290  18.820 -0.5088 -0.4786  0.6749
 4541TIP3    H237819   5.100   6.334  18.723  0.4375  0.6816  0.1306
 4542TIP3   OH237820   6.375   1.603  16.861  0.5851  0.1601 -0.2518
 4542TIP3    H137821   6.356   1.695  16.880  0.2341  0.2441 -0.9952
 4542TIP3    H237822   6.322   1.583  16.784  0.3178 -0.7865  0.1679
 4543TIP3   OH237823   6.550   1.290  19.360 -0.2241  0.3815  0.1651
 4543TIP3    H137824   6.488   1.219  19.344 -0.8732  0.4759  2.0460
 4543TIP3    H237825   6.496   1.362  19.394  0.9573  0.1407  2.8013
 4544TIP3   OH237826   6.566   0.880  17.290 -0.2502  0.0160 -0.3810
 4544TIP3    H137827   6.554   0.957  17.345 -0.1069  0.1605 -0.5517
 4544TIP3    H237828   6.589   0.810  17.351  0.6143  0.3394 -0.3314
 4545TIP3   OH237829   4.798   1.680  17.108  0.0646  0.3650  0.1831
 4545TIP3    H137830   4.705   1.698  17.096 -0.2467 -0.0673  1.7924
 4545TIP3    H237831   4.839   1.713  17.028 -1.2503  2.1711  0.2027
 4546TIP3   OH237832   1.791   6.367  16.759 -0.0810  0.2254 -0.5123
 4546TIP3    H137833   1.824   6.411  16.837  0.1461 -1.9629  0.6848
 4546TIP3    H237834   1.855   6.388  16.691  0.9864  0.2704  0.4787
 4547TIP3   OH237835   0.495   6.542  17.368 -0.8127 -0.1866  0.2079
 4547TIP3    H137836   0.476   6.559  17.460 -0.6632 -3.1127  0.9025
 4547TIP3    H237837   0.590   6.528  17.366 -1.0002 -1.6312 -0.0308
 4548TIP3   OH237838   4.125   6.165  17.665  0.7132 -0.4042  0.4173
 4548TIP3    H137839   4.207   6.205  17.635  0.3867  0.7981  1.0544
 4548TIP3    H237840   4.057   6.215  17.621  0.2995 -0.8006  0.6082
 4549TIP3   OH237841   6.460   5.233  17.441 -0.4893 -0.3887 -0.2282
 4549TIP3    H137842   6.436   5.320  17.410 -0.6496 -0.0713  0.7439
 4549TIP3    H237843   6.398   5.174  17.397 -0.4597  0.0009 -0.7956
 4550TIP3   OH237844   2.265   0.162  18.785 -0.1303 -0.5114 -0.3760
 4550TIP3    H137845   2.302   0.175  18.872  0.7201 -0.1984 -0.7641
 4550TIP3    H237846   2.217   0.243  18.766  0.5841 -0.1276 -0.6103
 4551TIP3   OH237847   0.624   2.315  19.784  0.3081  0.4345 -0.3976
 4551TIP3    H137848   0.676   2.243  19.817  0.8888  0.4550 -1.2285
 4551TIP3    H237849   0.673   2.348  19.708 -0.4320  1.0657 -0.6239
 4552TIP3   OH237850   1.017   3.013  17.399 -0.0562  0.3313  0.3788
 4552TIP3    H137851   0.974   3.098  17.385 -0.0256  0.2981  0.0759
 4552TIP3    H237852   1.004   2.966  17.316  0.4210  0.2568  0.3473
 4553TIP3   OH237853   3.982   2.673  18.037 -0.9036  0.1968  0.7652
 4553TIP3    H137854   4.024   2.592  18.008 -1.0680  0.0395  0.9631
 4553TIP3    H237855   3.914   2.690  17.972  1.3502  2.0722 -1.2855
 4554TIP3   OH237856   4.123   4.551  18.157 -0.1909  0.3545  0.1092
 4554TIP3    H137857   4.137   4.608  18.232 -1.9278  1.6270 -0.4695
 4554TIP3    H237858   4.198   4.491  18.158  0.8739  1.6270  1.6528
 4555TIP3   OH237859   4.182   2.547  17.445  0.2144  0.1669  0.5282
 4555TIP3    H137860   4.174   2.639  17.471 -2.0570  0.4477 -0.9030
 4555TIP3    H237861   4.275   2.537  17.421  0.5038  2.0851  0.6839
 4556TIP3   OH237862   0.971   2.570  18.359 -0.2202  0.4366 -0.2278
 4556TIP3    H137863   1.031   2.553  18.432 -1.1394 -1.0431  0.2283
 4556TIP3    H237864   0.998   2.508  18.292 -0.0320  1.1039 -0.7853
 4557TIP3   OH237865   6.463   5.336  19.805  0.6633 -0.6356  0.2008
 4557TIP3    H137866   6.510   5.419  19.815  0.4516 -0.5616  0.5863
 4557TIP3    H237867   6.373   5.363  19.786  0.5219 -0.7792  0.6756
 4558TIP3   OH237868   4.145   2.973  17.145 -0.8254 -0.0810 -0.2313
 4558TIP3    H137869   4.131   2.907  17.077  2.0090 -1.0250 -0.0551
 4558TIP3    H237870   4.194   3.043  17.100 -0.8740  0.3381  0.3586
 4559TIP3   OH237871   1.770   1.839  17.371 -0.4625  0.1703 -0.1450
 4559TIP3    H137872   1.691   1.790  17.392 -1.3306  0.7058 -1.9737
 4559TIP3    H237873   1.740   1.929  17.355  0.6616  0.6191  0.1489
 4560TIP3   OH237874   4.707   2.023  19.292 -0.4848  0.6237  0.0317
 4560TIP3    H137875   4.678   2.106  19.330  1.7126  0.9554  1.2084
 4560TIP3    H237876   4.742   1.974  19.367 -0.3215 -0.7065 -0.8832
 4561TIP3   OH237877   5.822   2.630  16.691 -0.0320 -0.1728 -0.2655
 4561TIP3    H137878   5.906   2.639  16.736 -0.2288  1.1161 -0.1353
 4561TIP3    H237879   5.843   2.577  16.613  1.0613  0.7243 -0.6112
 4562TIP3   OH237880   3.252   6.413  16.956  0.7970 -0.6506  0.7065
 4562TIP3    H137881   3.205   6.456  17.028 -0.9099  0.5983 -1.0569
 4562TIP3    H237882   3.311   6.481  16.922  0.7628 -0.8662  0.2069
 4563TIP3   OH237883   6.695   2.574  18.948  0.4005  0.1907  0.0450
 4563TIP3    H137884   6.615   2.524  18.965  1.3237 -1.0564  0.9288
 4563TIP3    H237885   6.743   2.572  19.031  1.6554  0.3507 -0.6466
 4564TIP3   OH237886   0.418   2.265  19.612  0.2499 -0.3254  0.6669
 4564TIP3    H137887   0.504   2.286  19.649  0.3709 -0.6599  0.5780
 4564TIP3    H237888   0.383   2.197  19.670  0.2964 -0.6102  0.3641
 4565TIP3   OH237889   4.486   1.787  18.599 -0.0499 -0.2580 -0.1339
 4565TIP3    H137890   4.436   1.869  18.595  1.0224  0.3961 -0.5058
 4565TIP3    H237891   4.563   1.809  18.651  0.1583 -1.0811 -0.0919
 4566TIP3   OH237892   1.543   6.050  19.083  0.6092 -0.1058 -0.4050
 4566TIP3    H137893   1.450   6.057  19.107  1.1524 -2.1665  2.8756
 4566TIP3    H237894   1.554   5.957  19.060  1.5067  0.5467 -2.8766
 4567TIP3   OH237895   6.307   0.624  17.442 -0.0374 -0.0370 -0.3851
 4567TIP3    H137896   6.296   0.719  17.447 -0.2737 -0.0852  0.2282
 4567TIP3    H237897   6.331   0.599  17.532 -1.4243 -0.7194 -0.1767
 4568TIP3   OH237898   2.634   6.221  17.337 -0.1122  0.3040 -0.4027
 4568TIP3    H137899   2.602   6.168  17.410 -1.4778 -0.0637 -1.2379
 4568TIP3    H237900   2.729   6.217  17.344 -0.2103 -0.9508  0.4686
 4569TIP3   OH237901   4.544   1.687  19.243 -0.8570  0.0898  0.2307
 4569TIP3    H137902   4.625   1.697  19.194  0.6323 -0.2890  2.4512
 4569TIP3    H237903   4.572   1.651  19.328 -3.3366  0.0499  1.1054
 4570TIP3   OH237904   5.772   0.977  19.412  0.4472  0.1083 -0.8128
 4570TIP3    H137905   5.709   1.007  19.346 -0.4710 -0.0927 -0.0591
 4570TIP3    H237906   5.856   1.014  19.384 -0.2111  1.3664 -1.2194
 4571TIP3   OH237907   5.712   4.963  16.423  0.4173  0.2334 -0.4612
 4571TIP3    H137908   5.664   5.044  16.405  1.7872  0.8816 -1.4338
 4571TIP3    H237909   5.644   4.898  16.440 -0.8091  1.1441 -1.6163
 4572TIP3   OH237910   1.849   6.258  19.922  0.0543 -0.6675 -0.0633
 4572TIP3    H137911   1.761   6.246  19.887 -0.5172  1.1972  0.6254
 4572TIP3    H237912   1.867   6.351  19.912  1.4213 -0.7736  1.0303
 4573TIP3   OH237913   0.751   3.776  18.849 -0.0262 -0.3215 -0.5571
 4573TIP3    H137914   0.661   3.810  18.846  0.1081  0.1029  0.1176
 4573TIP3    H237915   0.770   3.768  18.942  2.1903  3.7462 -0.4467
 4574TIP3   OH237916   0.813   6.443  19.475  0.2493  0.6321 -0.3122
 4574TIP3    H137917   0.890   6.473  19.428  0.8158  0.9127  0.7589
 4574TIP3    H237918   0.809   6.349  19.460 -0.7386  0.9714 -2.5489
 4575TIP3   OH237919   0.375   2.662  18.984 -0.2213 -0.1555 -0.4154
 4575TIP3    H137920   0.412   2.703  18.905 -2.2752  1.7356 -0.4955
 4575TIP3    H237921   0.296   2.618  18.953 -0.3678 -0.4852  0.3983
 4576TIP3   OH237922   6.687   0.190  17.634 -0.7348  0.5023 -0.5870
 4576TIP3    H137923   6.774   0.193  17.595 -0.7445 -2.8280 -1.1657
 4576TIP3    H237924   6.696   0.238  17.716  2.5907 -2.0779  0.8403
 4577TIP3   OH237925   4.218   1.042  19.008 -0.5965  0.1174 -0.5476
 4577TIP3    H137926   4.159   0.972  19.034 -0.3593 -0.3617 -1.2798
 4577TIP3    H237927   4.261   1.068  19.090 -0.8736 -0.4105 -0.2286
 4578TIP3   OH237928   2.914   3.604  19.367  0.5718  0.0865  0.0647
 4578TIP3    H137929   2.924   3.699  19.357 -1.9079  0.2658 -1.7177
 4578TIP3    H237930   2.955   3.567  19.289 -1.2957 -0.0065 -0.9327
 4579TIP3   OH237931   6.013   4.557  19.503  0.5212  0.9072  0.6429
 4579TIP3    H137932   5.933   4.590  19.461 -0.3237 -0.8184  0.8391
 4579TIP3    H237933   6.015   4.600  19.588 -0.6847  0.3230  0.9869
 4580TIP3   OH237934   5.435   6.205  16.908 -0.4096  0.2914 -0.0313
 4580TIP3    H137935   5.510   6.156  16.941  0.9759  1.7793 -0.8252
 4580TIP3    H237936   5.392   6.239  16.987  1.3409  1.6273  0.4295
 4581TIP3   OH237937   6.411   2.468  18.938 -0.0003 -0.3120  0.2857
 4581TIP3    H137938   6.337   2.409  18.954 -0.1498 -0.0470  0.5888
 4581TIP3    H237939   6.372   2.555  18.933  0.3599 -0.0945  1.0714
 4582TIP3   OH237940   3.726   4.196  19.798  0.0369  0.3073 -0.1234
 4582TIP3    H137941   3.758   4.112  19.765  0.3545  0.6514 -0.6983
 4582TIP3    H237942   3.792   4.259  19.771 -0.7569  0.9203 -0.6778
 4583TIP3   OH237943   2.805   4.897  16.840 -0.2820 -0.7554 -0.0475
 4583TIP3    H137944   2.727   4.842  16.849  0.1546 -1.4889 -0.5863
 4583TIP3    H237945   2.874   4.836  16.813  0.1541  0.1034 -0.9504
 4584TIP3   OH237946   0.227   6.660  18.457 -0.0062 -0.2484  0.1489
 4584TIP3    H137947   0.175   6.581  18.470  0.6184 -0.9578 -1.4271
 4584TIP3    H237948   0.277   6.644  18.377  0.0607  1.7898 -0.2906
 4585TIP3   OH237949   6.094   3.653  18.416  0.6775  0.1532  0.7827
 4585TIP3    H137950   6.045   3.590  18.364  0.3463  0.7743  0.3219
 4585TIP3    H237951   6.032   3.684  18.481  0.4858  0.8200  0.3012
 4586TIP3   OH237952   5.763   0.009  18.580  0.0926  0.2913  0.6476
 4586TIP3    H137953   5.726  -0.028  18.500  2.1703 -0.6942  0.0756
 4586TIP3    H237954   5.777  -0.067  18.637  0.1733  0.7787  1.2919
 4587TIP3   OH237955   4.774   5.460  18.200 -0.3893 -0.0101  0.1601
 4587TIP3    H137956   4.773   5.544  18.154 -2.1401 -0.1680 -0.1726
 4587TIP3    H237957   4.863   5.428  18.188 -0.3827  0.5958 -1.9952
 4588TIP3   OH237958   2.022   1.816  19.370 -0.5258 -0.1455 -0.4550
 4588TIP3    H137959   2.100   1.762  19.376 -0.6208 -0.4624 -1.7705
 4588TIP3    H237960   1.954   1.757  19.336 -1.3181  0.1456  0.5585
 4589TIP3   OH237961   1.520   0.364  19.604 -0.3894 -0.3671  0.0730
 4589TIP3    H137962   1.565   0.448  19.600  0.6222 -0.9262 -1.0507
 4589TIP3    H237963   1.441   0.376  19.551  0.9401 -0.7659 -2.1132
 4590TIP3   OH237964   0.067   4.076  17.164  0.1240  0.1110 -0.0190
 4590TIP3    H137965   0.060   4.009  17.095  1.6543 -0.9027  0.7519
 4590TIP3    H237966   0.116   4.147  17.123  0.1403 -0.0510 -0.2867
 4591TIP3   OH237967   2.677   3.050  16.751 -0.2197 -0.1107 -0.1244
 4591TIP3    H137968   2.649   3.067  16.841  0.3610 -1.7134  0.3877
 4591TIP3    H237969   2.664   3.134  16.706  0.2451  0.9482  1.6325
 4592TIP3   OH237970   1.570   2.261  19.672  0.4990 -0.1277  0.5490
 4592TIP3    H137971   1.544   2.187  19.726  1.3299 -1.1790 -0.4552
 4592TIP3    H237972   1.497   2.273  19.611  0.8687 -0.8991 -0.0612
 4593TIP3   OH237973   1.614   0.796  17.635 -0.2234 -0.7771  0.3240
 4593TIP3    H137974   1.562   0.823  17.711 -0.1054 -0.0615  0.1537
 4593TIP3    H237975   1.595   0.702  17.626 -1.3387 -0.5783  0.3841
 4594TIP3   OH237976   2.660   2.292  19.814 -0.3354 -0.0541 -0.6134
 4594TIP3    H137977   2.752   2.268  19.821  0.7038  3.3281 -0.8944
 4594TIP3    H237978   2.630   2.301  19.905 -0.4164 -1.1852 -0.5228
 4595TIP3   OH237979   2.500   0.801  17.979  0.1933 -0.6062  0.0760
 4595TIP3    H137980   2.512   0.766  17.891  0.5283  1.9560 -0.9811
 4595TIP3    H237981   2.443   0.877  17.967  3.2910  2.1927  1.3493
 4596TIP3   OH237982   6.217   4.444  17.477 -0.2266  0.5488 -0.3112
 4596TIP3    H137983   6.239   4.529  17.514 -0.8470 -0.1898  1.9556
 4596TIP3    H237984   6.256   4.381  17.538 -0.8241 -0.7819 -1.2489
 4597TIP3   OH237985   6.550   5.938  16.372 -0.2215  0.3730  0.9684
 4597TIP3    H137986   6.639   5.965  16.397 -0.2766  0.0740  1.5001
 4597TIP3    H237987   6.499   6.019  16.376  0.3916  0.9369 -1.1491
 4598TIP3   OH237988   5.945   4.692  17.154  0.3204  0.1802  0.0444
 4598TIP3    H137989   5.858   4.700  17.193 -0.7964 -0.4547 -2.1523
 4598TIP3    H237990   5.993   4.767  17.187 -1.4758  1.2460  0.3586
 4599TIP3   OH237991   1.276   3.062  18.540 -0.0305  0.0960  0.0618
 4599TIP3    H137992   1.243   3.073  18.451 -0.2247  0.6566  0.2035
 4599TIP3    H237993   1.300   2.969  18.544  0.9357  0.2829 -0.8978
 4600TIP3   OH237994   2.251   6.695  17.316  0.0505 -0.7223  0.1707
 4600TIP3    H137995   2.273   6.670  17.227  0.1722  1.1515 -0.3766
 4600TIP3    H237996   2.335   6.697  17.362  0.1511 -0.4753 -0.0194
 4601TIP3   OH237997   5.019   6.288  17.735 -0.1600 -0.0088 -0.1975
 4601TIP3    H137998   4.983   6.295  17.824  0.4770  0.7564  0.0038
 4601TIP3    H237999   4.980   6.360  17.687 -0.1254 -0.1327 -0.4139
 4602TIP3   OH238000   5.351   1.276  17.029  0.8343  0.2282  0.0145
 4602TIP3    H138001   5.259   1.254  17.018  0.2097  1.9604  1.3764
 4602TIP3    H238002   5.397   1.221  16.965 -1.1039 -0.7889 -0.5640
 4603TIP3   OH238003   4.912   6.605  16.935  0.1345 -0.0603 -0.6857
 4603TIP3    H138004   4.935   6.652  16.855 -1.6556  1.1511 -0.5466
 4603TIP3    H238005   4.847   6.541  16.907  0.1391 -0.2151 -0.3446
 4604TIP3   OH238006   4.509   4.044  17.803  0.7595 -0.5698  0.3855
 4604TIP3    H138007   4.600   4.056  17.830  1.2052 -2.7950  0.0586
 4604TIP3    H238008   4.457   4.071  17.879  1.6149  1.5944  0.2572
 4605TIP3   OH238009   6.263   5.377  19.395 -0.6887  0.2997 -0.1535
 4605TIP3    H138010   6.264   5.357  19.302  1.1470  0.1955 -0.1419
 4605TIP3    H238011   6.191   5.440  19.406 -0.6174  0.6745 -1.6968
 4606TIP3   OH238012   1.692   1.274  19.599  0.2013 -0.1441 -0.2722
 4606TIP3    H138013   1.748   1.280  19.677 -1.4150 -1.5720  1.1006
 4606TIP3    H238014   1.604   1.290  19.632 -0.3582  1.0344 -2.1877
 4607TIP3   OH238015   6.409   6.507  19.924  0.4978 -0.5981 -0.0875
 4607TIP3    H138016   6.442   6.594  19.903  1.0608 -1.1276 -1.4759
 4607TIP3    H238017   6.316   6.520  19.943  0.0637  0.0200 -2.3944
 4608TIP3   OH238018   1.211   1.212  20.028 -0.1099 -0.6160  0.4023
 4608TIP3    H138019   1.135   1.154  20.022  0.5906 -1.4370 -0.9751
 4608TIP3    H238020   1.178   1.290  20.073 -0.9495 -2.2541  2.8015
 4609TIP3   OH238021   6.112   6.743  17.191 -0.1646  0.1035  0.3986
 4609TIP3    H138022   6.152   6.686  17.257  2.2489  0.1337 -0.9111
 4609TIP3    H238023   6.030   6.699  17.167  1.1598 -2.3730  0.1049
 4610TIP3   OH238024   6.256   3.426  18.761  0.1131 -0.2361  0.1945
 4610TIP3    H138025   6.280   3.497  18.821  2.8905 -0.9053 -0.0075
 4610TIP3    H238026   6.209   3.363  18.817  1.6855 -0.3340  1.5006
 4611TIP3   OH238027   0.350   4.605  18.482 -0.8887  0.6984  0.0456
 4611TIP3    H138028   0.303   4.660  18.420  0.5469  1.8077 -0.1283
 4611TIP3    H238029   0.294   4.602  18.560 -1.4346  1.6150 -0.3002
 4612TIP3   OH238030   6.564   0.292  19.122  0.0253  0.4573  0.4812
 4612TIP3    H138031   6.585   0.371  19.171 -2.6287  0.7044  1.3621
 4612TIP3    H238032   6.619   0.224  19.161  0.9284  1.4568  1.0074
 4613TIP3   OH238033   4.308   1.085  16.939  0.5419  0.0560 -0.1502
 4613TIP3    H138034   4.351   1.115  17.019  1.0026 -0.4064 -0.2163
 4613TIP3    H238035   4.223   1.051  16.969  1.5326 -2.0553  0.4703
 4614TIP3   OH238036   1.493   3.288  17.605  0.3258 -0.3283  0.3482
 4614TIP3    H138037   1.415   3.291  17.549 -0.3528  4.7604  1.1040
 4614TIP3    H238038   1.565   3.314  17.547  0.2135  1.4891  0.9589
 4615TIP3   OH238039   2.279   3.983  18.573 -0.2135 -0.6817  0.8946
 4615TIP3    H138040   2.293   3.983  18.478 -0.8447  2.7457  0.6907
 4615TIP3    H238041   2.348   3.926  18.607  1.4010 -0.2963 -1.4790
 4616TIP3   OH238042   4.709   0.379  18.270  0.2947  0.3760  0.4695
 4616TIP3    H138043   4.800   0.362  18.246 -0.4003 -0.0124 -2.2869
 4616TIP3    H238044   4.684   0.306  18.326  0.9098 -1.1206 -1.1103
 4617TIP3   OH238045   4.025   0.499  17.619  0.7078  0.4382 -0.0032
 4617TIP3    H138046   4.041   0.590  17.641 -0.2663  0.5904  0.0971
 4617TIP3    H238047   4.087   0.450  17.673  1.1185  1.0221  0.0686
 4618TIP3   OH238048   1.583   1.414  19.342  0.3730  0.0496 -0.2491
 4618TIP3    H138049   1.617   1.447  19.259 -1.1661 -1.0256 -1.3635
 4618TIP3    H238050   1.597   1.320  19.338  0.4299 -0.0020  0.8074
 4619TIP3   OH238051   1.924   2.545  17.957 -0.3296  0.0081 -0.2012
 4619TIP3    H138052   1.969   2.464  17.982  1.6126  1.0973  0.0219
 4619TIP3    H238053   1.868   2.565  18.032  1.8054  0.6621  1.3170
 4620TIP3   OH238054   1.100   3.527  17.856 -0.2764  0.3438 -0.0239
 4620TIP3    H138055   1.012   3.559  17.837 -0.4684  1.1897  1.9802
 4620TIP3    H238056   1.097   3.434  17.833 -1.4811  0.5168 -0.6401
 4621TIP3   OH238057   5.179   0.586  19.559 -0.3589 -0.4163 -0.2257
 4621TIP3    H138058   5.160   0.632  19.641 -0.2173  3.2629 -2.0791
 4621TIP3    H238059   5.274   0.590  19.550 -0.4854  0.5908 -1.2712
 4622TIP3   OH238060   4.350   0.257  18.223 -0.6168 -0.4192 -0.1484
 4622TIP3    H138061   4.414   0.192  18.195 -1.3264 -1.5910  0.8738
 4622TIP3    H238062   4.287   0.263  18.151 -1.3194 -1.9287  0.3056
 4623TIP3   OH238063   3.453   2.925  17.641 -0.6516  0.4071  0.5340
 4623TIP3    H138064   3.514   2.856  17.666 -0.8902  0.4143  1.1468
 4623TIP3    H238065   3.428   2.903  17.551 -0.6931 -0.2752  0.7106
 4624TIP3   OH238066   2.073   4.401  18.685 -0.0833  0.2197 -0.0490
 4624TIP3    H138067   2.024   4.348  18.623 -1.4802  1.0124  0.3372
 4624TIP3    H238068   2.136   4.450  18.631 -0.8490  0.4264 -0.7777
 4625TIP3   OH238069   1.105   2.216  19.768  0.8958  0.5574 -0.1573
 4625TIP3    H138070   1.142   2.245  19.684 -0.0864 -0.2587 -0.9071
 4625TIP3    H238071   1.024   2.171  19.743  1.3708 -1.0638  1.1007
 4626TIP3   OH238072   0.282   1.922  17.993  0.0354  0.0161 -0.7800
 4626TIP3    H138073   0.357   1.878  18.032  0.2399  1.2624  0.3008
 4626TIP3    H238074   0.319   1.996  17.945 -0.3837 -0.3023 -1.6124
 4627TIP3   OH238075   5.365   3.402  18.956  0.0425 -0.2211  0.0012
 4627TIP3    H138076   5.393   3.394  18.864  0.6276 -0.9687  0.2300
 4627TIP3    H238077   5.305   3.329  18.969  1.0014 -0.9300  0.5729
 4628TIP3   OH238078   4.743   0.626  18.846 -0.2467  0.0181 -0.2422
 4628TIP3    H138079   4.787   0.603  18.928 -1.7418  0.3433  0.6790
 4628TIP3    H238080   4.781   0.566  18.781  1.9258  0.6479  0.3688
 4629TIP3   OH238081   1.103   5.000  17.893  0.1315 -0.0598 -0.6032
 4629TIP3    H138082   1.016   4.996  17.931 -0.1485 -0.5099 -1.2691
 4629TIP3    H238083   1.117   5.092  17.872 -1.0880 -0.2458 -2.4968
 4630TIP3   OH238084   6.791   0.060  18.103 -0.2222  0.1789 -0.5635
 4630TIP3    H138085   6.854   0.119  18.147  0.3677 -1.1779  0.4783
 4630TIP3    H238086   6.772   0.104  18.020  1.7636  0.8579 -0.7158
 4631TIP3   OH238087   0.656   5.337  18.947 -0.4217 -0.2324 -0.1475
 4631TIP3    H138088   0.599   5.358  19.021  0.0136  0.8607 -0.0915
 4631TIP3    H238089   0.699   5.420  18.926  0.8852 -0.9398 -0.4137
 4632TIP3   OH238090   6.660   4.952  17.080  0.3919  0.3084 -0.0254
 4632TIP3    H138091   6.647   5.046  17.085  1.6257  0.4593  0.7590
 4632TIP3    H238092   6.717   4.931  17.154 -2.3748 -1.5427  1.7767
 4633TIP3   OH238093   1.311   5.454  17.869  0.3142  0.3689 -0.6777
 4633TIP3    H138094   1.405   5.450  17.888  0.6927  1.4015 -2.1193
 4633TIP3    H238095   1.269   5.455  17.954  1.7776  2.7316  0.1203
 4634TIP3   OH238096   6.229   1.710  18.093  0.3068  0.1723 -0.3422
 4634TIP3    H138097   6.209   1.710  18.187 -1.6787  0.9591 -0.6996
 4634TIP3    H238098   6.242   1.617  18.072  0.4847 -0.0484  0.6593
 4635TIP3   OH238099   4.272   6.730  17.439  0.3065  0.1634  0.0297
 4635TIP3    H138100   4.197   6.750  17.383 -0.2218 -1.5388  0.0967
 4635TIP3    H238101   4.308   6.816  17.461 -1.4317  1.0073 -0.2552
 4636TIP3   OH238102   6.118   2.474  18.913  0.3740 -0.0862  0.6549
 4636TIP3    H138103   6.174   2.538  18.957  0.2196  0.0645  0.6350
 4636TIP3    H238104   6.089   2.519  18.834 -1.0885  0.4425  1.4604
 4637TIP3   OH238105   0.254   1.628  16.261 -0.1882 -0.6612 -0.2755
 4637TIP3    H138106   0.163   1.605  16.241 -0.4253 -0.4583  0.5368
 4637TIP3    H238107   0.269   1.592  16.348  0.1707  0.2412  0.0473
 4638TIP3   OH238108   0.280   4.617  17.144 -0.1696  0.0823  0.3708
 4638TIP3    H138109   0.263   4.563  17.222 -1.8377 -0.7398 -0.5135
 4638TIP3    H238110   0.322   4.558  17.082  1.3964  0.8024  0.6864
 4639TIP3   OH238111   6.724   6.668  17.543 -0.3886 -0.0101 -0.7450
 4639TIP3    H138112   6.799   6.725  17.558  0.8091 -1.7484  0.1901
 4639TIP3    H238113   6.662   6.691  17.613 -1.1255  1.9207 -1.9330
 4640TIP3   OH238114   1.667   3.348  17.401  0.4025 -0.7067 -0.0684
 4640TIP3    H138115   1.688   3.289  17.329  0.0155  0.3318 -1.0729
 4640TIP3    H238116   1.673   3.436  17.362  2.5173  0.0386  1.7458
 4641TIP3   OH238117   0.375   0.533  17.570  0.5351 -0.4011  0.2963
 4641TIP3    H138118   0.359   0.496  17.656  1.3949 -0.9975  0.2060
 4641TIP3    H238119   0.429   0.611  17.587  1.7081 -1.1805  0.2169
 4642TIP3   OH238120   4.695   4.378  18.956  0.6671 -0.0042 -0.3385
 4642TIP3    H138121   4.704   4.406  18.865  0.5262  1.2451  0.0085
 4642TIP3    H238122   4.632   4.439  18.994 -0.9837 -1.8789  0.0477
 4643TIP3   OH238123   5.697   6.390  18.894 -0.0032  0.4444  0.3834
 4643TIP3    H138124   5.703   6.337  18.814  2.3792  1.6026 -0.3063
 4643TIP3    H238125   5.734   6.335  18.963 -1.0483 -0.1509  0.4851
 4644TIP3   OH238126   2.403   3.137  18.810  0.8500  0.2969 -0.6032
 4644TIP3    H138127   2.422   3.053  18.852  1.0342  1.8008  2.6223
 4644TIP3    H238128   2.308   3.135  18.795  0.2966  0.5148  2.2056
 4645TIP3   OH238129   1.616   2.753  18.517 -0.2503 -0.3876 -0.2220
 4645TIP3    H138130   1.685   2.756  18.583 -1.5097 -2.1799  1.2539
 4645TIP3    H238131   1.575   2.840  18.522  1.5878  0.5759 -0.8711
 4646TIP3   OH238132   3.310   5.060  18.276  0.5080  0.3309  0.3516
 4646TIP3    H138133   3.261   5.097  18.203  0.8312  3.3535  1.5214
 4646TIP3    H238134   3.395   5.038  18.239 -0.0061 -0.1695 -0.5880
 4647TIP3   OH238135   3.172   0.569  17.125  0.0067 -0.7029  0.0715
 4647TIP3    H138136   3.253   0.527  17.153  1.6842  0.6232 -2.3898
 4647TIP3    H238137   3.109   0.549  17.194  1.6211 -4.1315  0.7543
 4648TIP3   OH238138   4.349   4.849  18.973 -0.5818 -0.9690  0.1349
 4648TIP3    H138139   4.291   4.810  19.038 -1.0220 -0.7621 -0.1314
 4648TIP3    H238140   4.292   4.905  18.920 -0.4805 -2.1567 -1.2761
 4649TIP3   OH238141   4.271   0.034  19.655 -0.2715 -0.1116  0.1459
 4649TIP3    H138142   4.339   0.093  19.623 -0.5457  0.5778  0.7913
 4649TIP3    H238143   4.212   0.021  19.580  0.2702 -0.2777 -0.2533
 4650TIP3   OH238144   1.930   6.459  16.963  0.2552  0.1163  0.8540
 4650TIP3    H138145   1.999   6.399  16.992  0.8207  1.0123  1.4393
 4650TIP3    H238146   1.960   6.545  16.993 -0.7234  0.6348  0.3800
 4651TIP3   OH238147   6.626   1.956  17.375 -0.4442  0.5137 -0.1291
 4651TIP3    H138148   6.675   1.971  17.294 -0.7761  0.8655 -0.2709
 4651TIP3    H238149   6.583   1.871  17.362  0.6489 -0.1125  0.2663
 4652TIP3   OH238150   5.455   1.705  19.708 -0.5125  0.0270  0.0119
 4652TIP3    H138151   5.454   1.687  19.614  3.6429  0.0318 -0.2498
 4652TIP3    H238152   5.445   1.619  19.749 -3.5568  0.1498 -0.2515
 4653TIP3   OH238153   5.779   2.926  17.311  0.3026  0.3742 -0.0051
 4653TIP3    H138154   5.805   2.884  17.229  3.1129 -0.6876  1.2831
 4653TIP3    H238155   5.826   2.877  17.379 -0.7024  2.1684  2.1089
 4654TIP3   OH238156   4.843   3.972  17.643 -0.1210  0.0005 -0.1576
 4654TIP3    H138157   4.928   3.961  17.686  0.3050 -0.3164 -1.0646
 4654TIP3    H238158   4.787   3.906  17.683  0.5443 -0.9575 -0.7782
 4655TIP3   OH238159   6.391   4.313  19.120  0.0012  1.0522 -0.2804
 4655TIP3    H138160   6.372   4.406  19.104 -1.7967  0.7872  0.0231
 4655TIP3    H238161   6.310   4.268  19.096  0.6938 -0.4026 -0.0033
 4656TIP3   OH238162   1.011   4.409  18.304  0.6258  0.2386 -0.5597
 4656TIP3    H138163   0.964   4.424  18.222 -1.4613 -1.6678  0.2079
 4656TIP3    H238164   0.986   4.483  18.359  0.2858  0.3697 -0.8831
 4657TIP3   OH238165   4.670   0.869  19.719 -0.4001 -0.1693 -0.3946
 4657TIP3    H138166   4.703   0.796  19.666  0.6263  0.4467 -0.6469
 4657TIP3    H238167   4.577   0.851  19.731 -0.1660 -1.4936 -0.4838
 4658TIP3   OH238168   6.137   0.722  17.171  0.2651  0.4218  0.1085
 4658TIP3    H138169   6.059   0.776  17.157  0.6320  0.8328 -0.3878
 4658TIP3    H238170   6.110   0.656  17.234 -0.5090  0.5143 -0.1246
 4659TIP3   OH238171   3.796   4.572  17.667  0.2244  0.3492 -0.0639
 4659TIP3    H138172   3.721   4.591  17.611  0.1440  0.0280 -0.0675
 4659TIP3    H238173   3.773   4.490  17.711  0.4866  0.3550  0.0860
 4660TIP3   OH238174   0.576   5.626  18.138  0.7537  0.3992 -0.5038
 4660TIP3    H138175   0.557   5.649  18.229 -0.8846  1.1646 -1.0014
 4660TIP3    H238176   0.663   5.663  18.121  1.1931  0.0069  0.8056
 4661TIP3   OH238177   3.699   4.435  19.328  0.0763  0.0584  0.1932
 4661TIP3    H138178   3.655   4.495  19.388  1.3395  1.9905 -0.6757
 4661TIP3    H238179   3.774   4.401  19.378 -0.2297 -0.2217  0.4605
 4662TIP3   OH238180   1.989   4.995  18.333 -0.2921 -0.3858  0.4920
 4662TIP3    H138181   1.946   4.912  18.354 -1.3966  0.0851  0.1649
 4662TIP3    H238182   2.064   4.969  18.279 -0.4529 -1.1893  0.6333
 4663TIP3   OH238183   4.424   5.944  18.663 -0.9417  0.1483 -0.2257
 4663TIP3    H138184   4.438   5.945  18.758 -1.1541  0.4809 -0.1959
 4663TIP3    H238185   4.330   5.933  18.652 -0.8869 -0.1483 -0.4007
 4664TIP3   OH238186   0.123   0.665  17.189 -0.3065  0.8415 -0.1156
 4664TIP3    H138187   0.120   0.579  17.232 -2.1750  0.9482  0.0421
 4664TIP3    H238188   0.126   0.643  17.095  1.9538  0.6259 -0.0423
 4665TIP3   OH238189   3.764   0.996  19.055 -0.1663 -0.2361 -0.0881
 4665TIP3    H138190   3.742   1.004  19.148  1.1614 -0.5526  0.2660
 4665TIP3    H238191   3.777   1.086  19.025 -0.3702 -0.1499  0.0819
 4666TIP3   OH238192   0.673   1.726  18.421 -0.2659  0.2560  0.3063
 4666TIP3    H138193   0.698   1.678  18.500 -0.2985  0.5479  0.4936
 4666TIP3    H238194   0.584   1.696  18.403 -0.2901  0.2523  0.4281
 4667TIP3   OH238195   0.177   3.192  16.705 -0.5034 -0.3415 -0.6028
 4667TIP3    H138196   0.114   3.160  16.640 -0.9743 -1.5361  0.4179
 4667TIP3    H238197   0.246   3.126  16.706 -1.3121 -1.2317  1.2742
 4668TIP3   OH238198   0.200   0.547  16.952  0.0548  0.2070 -0.1090
 4668TIP3    H138199   0.198   0.621  16.891 -2.6362 -0.3315 -0.8155
 4668TIP3    H238200   0.133   0.487  16.919 -0.3004 -0.9166  2.4260
 4669TIP3   OH238201   5.244   1.973  19.969  0.1206  0.3615  0.0312
 4669TIP3    H138202   5.216   2.062  19.990  1.6051  0.7513  0.4686
 4669TIP3    H238203   5.282   1.940  20.051  0.9555 -0.1197 -0.5398
 4670TIP3   OH238204   0.146   3.836  19.099 -0.5464  0.5369 -0.1050
 4670TIP3    H138205   0.189   3.921  19.102 -0.6238  0.5584  0.5365
 4670TIP3    H238206   0.201   3.782  19.042  0.3969  0.5252  0.7947
 4671TIP3   OH238207   0.187   0.060  19.532  0.3460  0.2167  0.1679
 4671TIP3    H138208   0.262   0.026  19.580  0.4411  0.6387  0.3232
 4671TIP3    H238209   0.225   0.105  19.456  0.1875 -0.6616 -0.4489
 4672TIP3   OH238210   1.822   3.733  16.619  0.3321  0.3698 -0.2047
 4672TIP3    H138211   1.761   3.804  16.598  0.8088  0.5235 -1.0907
 4672TIP3    H238212   1.901   3.754  16.570  0.4191 -0.8593 -0.6245
 4673TIP3   OH238213   6.737   5.596  18.886 -0.2473 -0.0084 -0.5629
 4673TIP3    H138214   6.783   5.561  18.962 -0.7453 -1.0393 -0.7247
 4673TIP3    H238215   6.672   5.529  18.864  0.5148 -0.1706 -2.4767
 4674TIP3   OH238216   5.346   3.534  19.535  0.0501 -0.0361 -0.4335
 4674TIP3    H138217   5.376   3.491  19.455  2.3579  0.3255  0.1646
 4674TIP3    H238218   5.343   3.464  19.600  0.6664  0.1103 -0.2404
 4675TIP3   OH238219   2.612   4.188  19.326 -0.3588  0.7808 -0.5611
 4675TIP3    H138220   2.627   4.283  19.323 -0.7226  1.0738  2.6602
 4675TIP3    H238221   2.517   4.179  19.318 -0.2253  0.5475 -2.0845
 4676TIP3   OH238222   2.692   4.654  16.823 -0.1185  0.5176 -0.5569
 4676TIP3    H138223   2.741   4.635  16.903  0.8916 -0.4510 -1.3790
 4676TIP3    H238224   2.614   4.597  16.829 -0.8432  1.5714  0.4310
 4677TIP3   OH238225   4.365   2.096  18.871  0.0539  0.6627  0.5582
 4677TIP3    H138226   4.371   2.039  18.947 -1.4392  0.1526  0.3275
 4677TIP3    H238227   4.284   2.146  18.885 -1.4127 -0.9282 -1.6393
 4678TIP3   OH238228   0.634   4.444  16.864 -0.2127  0.2485 -0.2478
 4678TIP3    H138229   0.694   4.382  16.823  2.0214  1.2681  1.3157
 4678TIP3    H238230   0.673   4.530  16.849 -1.0168  0.9088  1.1892
 4679TIP3   OH238231   0.673   5.618  17.272 -0.0206  0.6213 -0.1898
 4679TIP3    H138232   0.625   5.551  17.223  0.7087 -0.8634  1.0133
 4679TIP3    H238233   0.659   5.595  17.364  1.3823  1.3027  0.2205
 4680TIP3   OH238234   1.642   1.692  17.654  0.3630  0.2974  0.2506
 4680TIP3    H138235   1.734   1.667  17.655  0.6936  1.4291  0.3623
 4680TIP3    H238236   1.641   1.782  17.688 -0.2534  1.8436 -3.3733
 4681TIP3   OH238237   5.247   5.849  19.690  0.9706  0.5736 -0.3801
 4681TIP3    H138238   5.285   5.761  19.684 -0.1921  0.0586 -0.4292
 4681TIP3    H238239   5.173   5.839  19.750  0.4181  1.3716 -0.9111
 4682TIP3   OH238240   0.378   0.911  17.482 -0.4029 -0.0472  0.5132
 4682TIP3    H138241   0.291   0.902  17.442 -0.4608  1.3635  0.3014
 4682TIP3    H238242   0.364   0.885  17.574 -0.9873 -0.0773  0.4224
 4683TIP3   OH238243   1.161   5.229  17.776 -0.9400  0.4904  0.2136
 4683TIP3    H138244   1.207   5.191  17.701 -0.4448 -0.3819  0.9365
 4683TIP3    H238245   1.211   5.307  17.798  0.8706 -0.9720  1.6061
 4684TIP3   OH238246   1.814   4.363  20.054 -0.0343 -0.5631  0.1162
 4684TIP3    H138247   1.758   4.382  20.129 -1.0476  1.8509 -1.1612
 4684TIP3    H238248   1.818   4.267  20.051 -2.7621 -0.7942  1.2228
 4685TIP3   OH238249   1.245   3.045  18.250 -0.4511  0.4026 -0.1922
 4685TIP3    H138250   1.210   2.958  18.266 -0.2686  0.3367 -0.1508
 4685TIP3    H238251   1.222   3.064  18.159  1.1231 -0.4484 -0.8059
 4686TIP3   OH238252   4.829   4.930  18.494  0.0209 -0.0405  0.4865
 4686TIP3    H138253   4.923   4.938  18.514 -0.2806  1.3995  1.4861
 4686TIP3    H238254   4.793   4.879  18.566  0.2049 -1.7599 -0.5699
 4687TIP3   OH238255   3.662   5.223  16.827 -0.2049  0.3370 -0.4366
 4687TIP3    H138256   3.694   5.151  16.881 -0.1627 -0.1891 -1.1440
 4687TIP3    H238257   3.727   5.232  16.758 -1.2536 -0.3638 -1.5658
 4688TIP3   OH238258   4.914   2.125  17.847  0.0515  0.2596 -0.3007
 4688TIP3    H138259   5.003   2.108  17.817 -0.1080  0.5574 -0.9545
 4688TIP3    H238260   4.924   2.179  17.925  0.4322  0.4256 -0.4663
 4689TIP3   OH238261   4.357   6.023  19.210 -0.1012 -0.0693  0.4560
 4689TIP3    H138262   4.293   5.961  19.177 -0.7407  0.9607 -0.2907
 4689TIP3    H238263   4.441   5.988  19.181 -0.5285 -0.0540 -0.8259
 4690TIP3   OH238264   4.957   4.705  17.295 -0.4481  0.1542  0.7703
 4690TIP3    H138265   5.002   4.649  17.232 -0.7112  2.0026 -1.1581
 4690TIP3    H238266   4.876   4.658  17.315  0.0574 -0.8833  0.4584
 4691TIP3   OH238267   2.923   6.146  17.330 -0.1837 -0.1279 -0.3738
 4691TIP3    H138268   2.924   6.155  17.235  0.7485 -0.8732 -0.4490
 4691TIP3    H238269   2.910   6.052  17.345 -2.3653  0.2275  0.2695
 4692TIP3   OH238270   4.893   1.183  20.061 -0.2952 -0.4751 -0.0188
 4692TIP3    H138271   4.842   1.102  20.064  0.6131 -1.1270 -1.3021
 4692TIP3    H238272   4.864   1.225  19.979  1.2582 -0.9043 -0.8165
 4693TIP3   OH238273   4.556   3.642  17.120  0.5892 -0.0501  0.0044
 4693TIP3    H138274   4.503   3.664  17.044  1.1727  1.3401 -0.0287
 4693TIP3    H238275   4.633   3.598  17.084  1.6161  1.9712 -0.4092
 4694TIP3   OH238276   2.369   1.990  17.609 -0.0276 -0.1685  0.0696
 4694TIP3    H138277   2.307   1.917  17.610  2.0789 -2.0932 -0.7592
 4694TIP3    H238278   2.371   2.019  17.518 -1.2276  1.3550  0.4818
 4695TIP3   OH238279   5.642   5.768  17.302  0.0977 -0.6572  0.3138
 4695TIP3    H138280   5.600   5.849  17.331 -0.7213 -0.4182 -1.4305
 4695TIP3    H238281   5.731   5.774  17.335  0.3662  1.4815 -0.6391
 4696TIP3   OH238282   5.803   5.439  16.974  0.0439 -0.0439  0.2466
 4696TIP3    H138283   5.826   5.476  17.059 -1.2006  0.6197  0.3118
 4696TIP3    H238284   5.751   5.361  16.995  2.2555 -1.6660  0.1026
 4697TIP3   OH238285   6.571   4.270  17.494  0.1360  0.1111  0.2408
 4697TIP3    H138286   6.534   4.188  17.525 -1.4698  0.5882 -0.3089
 4697TIP3    H238287   6.525   4.338  17.543  0.0425  0.7462 -0.6783
 4698TIP3   OH238288   1.264   1.421  18.242  0.0449  0.1219 -0.0749
 4698TIP3    H138289   1.198   1.355  18.264  0.2472  1.0487  4.2265
 4698TIP3    H238290   1.347   1.380  18.265  0.5766  0.5538 -1.1612
 4699TIP3   OH238291   5.313   5.820  18.483 -0.2880  0.4244  0.8447
 4699TIP3    H138292   5.317   5.889  18.550 -0.1088  0.2120  1.0542
 4699TIP3    H238293   5.226   5.830  18.444 -0.4536  0.4573  1.2126
 4700TIP3   OH238294   4.308   2.924  16.818 -0.2703 -0.2723  0.8631
 4700TIP3    H138295   4.342   3.008  16.786 -0.0549  0.3170  2.4889
 4700TIP3    H238296   4.385   2.867  16.821 -0.2455 -0.2547  0.5679
 4701TIP3   OH238297   1.628   4.678  18.031 -0.3294  0.5293  0.3224
 4701TIP3    H138298   1.584   4.656  18.114  2.6764  1.2193  2.2609
 4701TIP3    H238299   1.657   4.769  18.044 -1.1824  1.2524 -2.2332
 4702TIP3   OH238300   4.073   1.003  17.754 -0.2967  0.2892  0.0730
 4702TIP3    H138301   4.055   1.095  17.775  1.2338  0.5664  0.3287
 4702TIP3    H238302   4.162   0.989  17.786  0.2914 -0.6772 -1.8659
 4703TIP3   OH238303   3.935   4.170  18.735  0.1980 -0.5112  0.0177
 4703TIP3    H138304   3.885   4.245  18.703 -2.3182 -2.9289 -2.2925
 4703TIP3    H238305   4.021   4.179  18.693 -0.7896 -0.0095 -2.0303
 4704TIP3   OH238306   1.378   0.229  17.981  0.4106 -0.1933 -0.3539
 4704TIP3    H138307   1.464   0.191  17.960  0.2879 -0.8690  0.3103
 4704TIP3    H238308   1.316   0.176  17.930  0.2033 -1.1671  0.8808
 4705TIP3   OH238309   6.315   3.412  17.179  0.8857 -0.0134  0.0462
 4705TIP3    H138310   6.266   3.373  17.251  0.2972  1.5546  0.5492
 4705TIP3    H238311   6.251   3.419  17.108  0.9672  0.0963 -0.0155
 4706TIP3   OH238312   1.776   6.047  19.465  0.2240  0.2966 -0.1026
 4706TIP3    H138313   1.823   5.966  19.488 -0.9125  0.0855  1.6106
 4706TIP3    H238314   1.759   6.038  19.371  3.7087  0.4703 -0.8924
 4707TIP3   OH238315   3.143   5.405  18.386 -0.7960 -0.1749  0.5144
 4707TIP3    H138316   3.236   5.422  18.401 -0.0069 -4.0928  1.2685
 4707TIP3    H238317   3.132   5.412  18.291  1.0593 -2.4766  0.0435
 4708TIP3   OH238318   1.358   6.153  18.396  0.0101 -0.2304 -0.8952
 4708TIP3    H138319   1.395   6.155  18.308 -0.0695 -1.0368 -0.9550
 4708TIP3    H238320   1.434   6.161  18.454  0.1859 -0.9019 -1.0270
 4709TIP3   OH238321   2.218   3.461  19.649  0.4349 -0.4641 -0.2317
 4709TIP3    H138322   2.302   3.422  19.623  0.7403  0.2339 -0.3215
 4709TIP3    H238323   2.199   3.524  19.579  0.0710 -0.2840  0.0296
 4710TIP3   OH238324   6.052   5.149  17.941 -0.3236 -0.6045 -0.4466
 4710TIP3    H138325   6.138   5.161  17.901 -0.3621  0.5110 -0.2268
 4710TIP3    H238326   6.021   5.238  17.958 -2.1187 -0.9394 -1.7571
 4711TIP3   OH238327   0.775   4.951  17.712 -0.1789  0.6268 -0.0836
 4711TIP3    H138328   0.809   4.976  17.798 -1.2365 -2.1972  1.2947
 4711TIP3    H238329   0.682   4.973  17.716 -0.6590 -1.3159  0.3366
 4712TIP3   OH238330   3.998   1.280  18.118  0.7143  0.3354 -0.4235
 4712TIP3    H138331   3.958   1.214  18.175  0.1403  0.1322 -1.0409
 4712TIP3    H238332   4.092   1.262  18.122  0.5765 -0.4294 -0.4570
 4713TIP3   OH238333   0.927   2.055  19.551 -0.1122 -0.4785  0.1921
 4713TIP3    H138334   0.858   1.988  19.551  0.3640 -0.9813 -0.2935
 4713TIP3    H238335   0.933   2.082  19.459 -1.5671  1.5899  0.6141
 4714TIP3   OH238336   4.588   5.430  17.583  0.3496  0.8415 -0.0884
 4714TIP3    H138337   4.679   5.438  17.555  0.0831  0.7502 -0.9830
 4714TIP3    H238338   4.589   5.360  17.649  0.4142 -1.6929 -2.5708
 4715TIP3   OH238339   5.897   0.752  19.289 -0.5065  0.2774  0.0291
 4715TIP3    H138340   5.818   0.758  19.342  0.4955 -1.1732  1.8150
 4715TIP3    H238341   5.952   0.688  19.335  1.4413  0.7575 -1.4807
 4716TIP3   OH238342   2.882   1.418  18.727  0.0935 -0.3054 -0.4845
 4716TIP3    H138343   2.889   1.347  18.664  0.1070 -0.7435  0.0043
 4716TIP3    H238344   2.894   1.376  18.812  1.3609  0.4714 -0.2595
 4717TIP3   OH238345   3.624   1.512  19.476  0.1471 -0.6568 -0.2442
 4717TIP3    H138346   3.531   1.525  19.458  0.4896  1.2284 -0.8761
 4717TIP3    H238347   3.669   1.554  19.403  1.5143  0.2431  1.0392
 4718TIP3   OH238348   4.877   4.030  18.504  0.0515  0.0549 -0.2062
 4718TIP3    H138349   4.783   4.030  18.524 -0.2536 -1.4695 -1.4106
 4718TIP3    H238350   4.918   3.999  18.585 -0.3223  1.9690  0.7654
 4719TIP3   OH238351   2.585   0.402  19.257  0.3197 -0.0987  0.1728
 4719TIP3    H138352   2.537   0.468  19.208  0.4734  0.8838  1.3127
 4719TIP3    H238353   2.521   0.333  19.274 -0.3027  0.5517  0.4683
 4720TIP3   OH238354   2.780   4.537  17.464 -0.1146 -0.2698  0.2090
 4720TIP3    H138355   2.836   4.527  17.388  0.1786 -0.5307  0.4605
 4720TIP3    H238356   2.728   4.457  17.467  0.5607 -0.6904  0.8459
 4721TIP3   OH238357   4.158   6.189  19.278 -0.4815  0.6485 -0.4546
 4721TIP3    H138358   4.093   6.163  19.213  1.2202 -0.6059 -1.7474
 4721TIP3    H238359   4.238   6.142  19.252  0.8920  1.9697  1.1674
 4722TIP3   OH238360   5.895   2.541  17.097 -0.0263 -0.1231  0.0937
 4722TIP3    H138361   5.890   2.637  17.102  0.6960 -0.0627 -0.1840
 4722TIP3    H238362   5.914   2.513  17.186  0.0688  0.0193  0.1202
 4723TIP3   OH238363   1.152   0.845  16.652  0.1451  0.3442  0.3926
 4723TIP3    H138364   1.101   0.926  16.642 -0.5077  0.1039  1.6193
 4723TIP3    H238365   1.205   0.840  16.572 -1.1283  1.0492 -0.5383
 4724TIP3   OH238366   4.980   6.049  16.876  0.0891  0.3619 -0.0976
 4724TIP3    H138367   4.985   6.008  16.963 -0.3328 -1.1934 -0.7670
 4724TIP3    H238368   4.996   5.977  16.815  0.6883  1.4933 -1.3146
 4725TIP3   OH238369   1.204   1.337  16.180  0.6404 -0.2601 -0.1935
 4725TIP3    H138370   1.236   1.330  16.270  0.7783  1.8228 -0.0337
 4725TIP3    H238371   1.144   1.412  16.182  1.5184  0.5437 -2.0509
 4726TIP3   OH238372   2.899   6.223  18.009  0.2074 -0.1917 -0.2721
 4726TIP3    H138373   2.904   6.128  18.018  0.0830 -0.0458  1.8820
 4726TIP3    H238374   2.968   6.256  18.068  0.0079  1.0631 -0.7060
 4727TIP3   OH238375   4.767   4.858  16.564 -0.7128  0.5980  0.5346
 4727TIP3    H138376   4.780   4.790  16.631 -0.2373  1.1567  1.0232
 4727TIP3    H238377   4.842   4.848  16.505 -1.4414 -0.2795 -0.2720
 4728TIP3   OH238378   6.323   1.778  17.100  0.2446 -0.4938 -0.3667
 4728TIP3    H138379   6.337   1.861  17.054 -1.9509  0.2083  0.1202
 4728TIP3    H238380   6.375   1.786  17.180 -0.2289  0.5761 -0.1514
 4729TIP3   OH238381   6.134   4.527  18.708 -0.5887 -0.5988  0.0261
 4729TIP3    H138382   6.046   4.489  18.701 -1.0334  0.4199 -0.1100
 4729TIP3    H238383   6.121   4.621  18.693  0.7597 -0.6523 -1.9057
 4730TIP3   OH238384   5.486   2.753  18.621  0.2159 -0.5997 -0.2563
 4730TIP3    H138385   5.574   2.786  18.601  0.8395 -1.9522  0.0881
 4730TIP3    H238386   5.499   2.659  18.633 -1.1015 -0.6647  0.8415
 4731TIP3   OH238387   4.036   1.249  17.847  0.5374  0.5885 -0.0788
 4731TIP3    H138388   4.009   1.292  17.929 -0.1489  0.0472 -0.0188
 4731TIP3    H238389   4.060   1.322  17.789 -1.9279  1.1747 -0.4636
 4732TIP3   OH238390   3.603   2.693  16.646  0.3749  0.2037  0.2965
 4732TIP3    H138391   3.539   2.737  16.590  1.5340  1.7727  0.1311
 4732TIP3    H238392   3.684   2.743  16.635  1.4724 -1.3113  1.0168
 4733TIP3   OH238393   1.126   2.739  17.976  0.9816 -0.0733  0.5897
 4733TIP3    H138394   1.134   2.753  17.882 -1.1770 -1.9960  0.0396
 4733TIP3    H238395   1.214   2.756  18.010  1.6944  1.1691 -1.6683
 4734TIP3   OH238396   4.616   6.162  17.141 -0.0552  0.4427 -0.3246
 4734TIP3    H138397   4.548   6.184  17.077  0.7219  1.5232 -0.8105
 4734TIP3    H238398   4.697   6.160  17.089  0.3489 -0.4454  0.3160
 4735TIP3   OH238399   4.241   4.375  17.861  0.7633 -0.9563 -0.1594
 4735TIP3    H138400   4.163   4.334  17.825 -0.8343  0.3071  1.6456
 4735TIP3    H238401   4.261   4.446  17.800  0.3427 -1.1471 -0.5228
 4736TIP3   OH238402   3.059   3.209  18.899 -0.7651 -0.2204  0.0075
 4736TIP3    H138403   3.001   3.224  18.824  0.6553 -0.9660 -1.3007
 4736TIP3    H238404   3.075   3.114  18.898  0.3960 -0.0379  0.3857
 4737TIP3   OH238405   6.664   3.807  19.100 -0.2126 -0.3584 -0.6227
 4737TIP3    H138406   6.753   3.840  19.114 -1.2402  1.8000  1.5952
 4737TIP3    H238407   6.675   3.713  19.089  2.3306 -0.1829 -0.2463
 4738TIP3   OH238408   5.880   6.229  17.567 -0.3819 -0.2232  0.3021
 4738TIP3    H138409   5.819   6.300  17.585 -0.1337  0.3370 -0.9872
 4738TIP3    H238410   5.953   6.270  17.521  0.7849 -0.9601  1.3994
 4739TIP3   OH238411   1.552   2.198  17.307 -0.5858 -0.2579  0.6542
 4739TIP3    H138412   1.567   2.149  17.227 -2.2238 -1.4450  1.0161
 4739TIP3    H238413   1.638   2.202  17.350  0.7864  2.1206 -1.9949
 4740TIP3   OH238414   5.746   0.491  17.440  0.1344  0.1861  0.2682
 4740TIP3    H138415   5.655   0.475  17.462  0.3522 -0.5688  0.6250
 4740TIP3    H238416   5.756   0.586  17.449 -0.4270  0.1892  0.9429
 4741TIP3   OH238417   1.388   2.769  18.011  0.2149 -0.4532  0.0812
 4741TIP3    H138418   1.426   2.849  18.048  0.0451 -0.0757 -0.5588
 4741TIP3    H238419   1.435   2.698  18.056  1.9104 -0.0117 -0.8831
 4742TIP3   OH238420   6.570   3.831  17.459 -0.2623 -0.1282  0.1240
 4742TIP3    H138421   6.489   3.781  17.475 -1.2195  1.2177 -0.2956
 4742TIP3    H238422   6.550   3.883  17.381  1.1893 -0.0877 -0.2379
 4743TIP3   OH238423   3.198   6.619  20.112  0.1226  0.0054 -0.6759
 4743TIP3    H138424   3.280   6.572  20.127  0.1672  0.2576 -0.1181
 4743TIP3    H238425   3.216   6.710  20.135 -0.4474 -0.0275 -0.0572
 4744TIP3   OH238426   4.146   0.890  19.331  0.8035  0.1803  0.2394
 4744TIP3    H138427   4.106   0.972  19.359  0.1630  0.2684 -0.8866
 4744TIP3    H238428   4.104   0.870  19.247  2.3122 -0.3282 -0.4216
 4745TIP3   OH238429   0.840   4.259  16.471  0.1835 -0.5031  0.1530
 4745TIP3    H138430   0.820   4.349  16.494 -0.5270 -0.5136 -0.4040
 4745TIP3    H238431   0.759   4.225  16.433  1.3821 -0.3540 -2.7641
 4746TIP3   OH238432   2.608   3.460  17.401  0.3153  0.0148 -1.0428
 4746TIP3    H138433   2.666   3.506  17.340  2.3506 -0.8875  0.1332
 4746TIP3    H238434   2.666   3.424  17.468 -1.7863  0.6831  1.3006
 4747TIP3   OH238435   5.829   6.275  19.110 -0.5675  0.0666  0.2608
 4747TIP3    H138436   5.916   6.234  19.110 -0.5583  0.0429 -0.7757
 4747TIP3    H238437   5.782   6.233  19.182 -1.4034 -3.7126 -2.1710
 4748TIP3   OH238438   3.438   0.781  19.486  0.1353 -0.0753 -0.2088
 4748TIP3    H138439   3.408   0.823  19.405  0.9725 -1.6321 -1.3954
 4748TIP3    H238440   3.527   0.813  19.498  0.1552 -0.1549 -0.1396
 4749TIP3   OH238441   4.824   1.109  19.744 -0.6648  0.1746  0.2544
 4749TIP3    H138442   4.917   1.096  19.763 -0.7161 -0.2200  0.2437
 4749TIP3    H238443   4.792   1.022  19.722 -0.4259  0.7024 -2.4908
 4750TIP3   OH238444   3.485   0.550  18.459 -0.2362  0.1404 -0.0278
 4750TIP3    H138445   3.579   0.543  18.441 -0.4931 -0.3857 -1.2859
 4750TIP3    H238446   3.469   0.645  18.463  0.5812  0.2504  1.7199
 4751TIP3   OH238447   6.707   6.547  16.651  0.0174 -0.1008 -0.8537
 4751TIP3    H138448   6.647   6.621  16.655 -1.0363 -0.9687 -0.2159
 4751TIP3    H238449   6.794   6.587  16.641 -0.5688  1.1951 -0.8957
 4752TIP3   OH238450   4.271   1.807  17.201 -0.2052 -0.1829  0.6388
 4752TIP3    H138451   4.213   1.805  17.126  0.4720 -0.9814  0.1199
 4752TIP3    H238452   4.213   1.812  17.277 -0.8871  1.3212  0.0609
 4753TIP3   OH238453   4.346   0.840  18.405 -0.2221  0.1318  0.2116
 4753TIP3    H138454   4.439   0.859  18.400 -0.3994  1.1926  0.6893
 4753TIP3    H238455   4.341   0.760  18.457  0.4090  0.1517  0.3109
 4754TIP3   OH238456   5.721   1.561  19.336 -0.6646  0.1427  0.0071
 4754TIP3    H138457   5.768   1.627  19.387 -0.9566  0.6787 -0.4130
 4754TIP3    H238458   5.789   1.498  19.311  0.0173  1.3499 -1.3214
 4755TIP3   OH238459   0.740   2.583  18.772 -0.5294 -0.2152  0.3172
 4755TIP3    H138460   0.656   2.558  18.811 -0.9692  0.5539 -0.1143
 4755TIP3    H238461   0.719   2.656  18.714  0.1504 -1.1773 -1.2006
 4756TIP3   OH238462   2.666   0.751  18.678 -0.3122 -0.6418  0.0214
 4756TIP3    H138463   2.728   0.679  18.685  0.8784  0.0741 -2.3006
 4756TIP3    H238464   2.630   0.745  18.590 -2.4031 -0.0676  0.7575
 4757TIP3   OH238465   5.258   6.641  17.594  0.3061  0.2332 -0.3057
 4757TIP3    H138466   5.254   6.721  17.542 -0.4681  0.3822 -0.0386
 4757TIP3    H238467   5.286   6.670  17.681 -0.7943  0.3506  0.0249
 4758TIP3   OH238468   3.076   0.017  17.346  0.6875 -0.5546  0.3573
 4758TIP3    H138469   3.156  -0.017  17.307 -0.2491 -0.4499 -1.7813
 4758TIP3    H238470   3.097   0.106  17.372  1.4506 -0.7486  0.4117
 4759TIP3   OH238471   0.782   6.775  18.280 -0.3979  0.0561  0.2250
 4759TIP3    H138472   0.765   6.831  18.204 -0.2426 -0.7656 -0.4320
 4759TIP3    H238473   0.817   6.835  18.346  1.8764  0.4273 -1.1913
 4760TIP3   OH238474   0.332   0.221  18.036 -0.4315  0.0973 -0.3516
 4760TIP3    H138475   0.386   0.231  18.114  1.7927  0.8734 -1.8817
 4760TIP3    H238476   0.360   0.138  17.997 -2.1768 -0.7496  0.0887
 4761TIP3   OH238477   1.010   1.622  19.084  0.3320 -0.3084 -0.2052
 4761TIP3    H138478   0.921   1.638  19.115  0.0841  1.3551 -1.6063
 4761TIP3    H238479   0.999   1.566  19.008  0.4580 -0.0545 -0.4134
 4762TIP3   OH238480   2.423   5.150  19.516 -0.2927  1.0860  0.4468
 4762TIP3    H138481   2.371   5.098  19.454 -0.1306  0.9872  0.3918
 4762TIP3    H238482   2.413   5.241  19.486 -0.5422  1.0799  0.5158
 4763TIP3   OH238483   5.589   1.417  18.795  0.4861 -0.1614 -0.5090
 4763TIP3    H138484   5.644   1.365  18.853 -1.1585 -1.6070 -0.1682
 4763TIP3    H238485   5.580   1.363  18.716 -0.5549 -0.0141 -0.4981
 4764TIP3   OH238486   1.415   1.182  17.292  0.0812 -0.0833 -0.5493
 4764TIP3    H138487   1.498   1.163  17.248 -0.3871  0.2921 -1.6227
 4764TIP3    H238488   1.434   1.258  17.346  0.0527  1.0417 -2.0540
 4765TIP3   OH238489   1.392   3.294  18.285  0.2176 -0.1128  0.1870
 4765TIP3    H138490   1.381   3.199  18.292  0.0961 -0.0421  1.0532
 4765TIP3    H238491   1.319   3.330  18.336  0.4522  0.4401  0.1314
 4766TIP3   OH238492   1.538   1.828  18.788  0.4663 -0.4665  0.2677
 4766TIP3    H138493   1.513   1.758  18.727 -0.8302  0.3083 -0.1300
 4766TIP3    H238494   1.498   1.907  18.751 -0.7091 -0.0282  2.3350
 4767TIP3   OH238495   6.056   3.889  17.615 -0.4286 -0.0126  0.2058
 4767TIP3    H138496   6.070   3.966  17.671 -0.6378  0.0070  0.2322
 4767TIP3    H238497   6.088   3.816  17.667 -1.6183 -0.1292  0.8004
 4768TIP3   OH238498   1.174   1.895  18.083  0.5430  0.2570  0.7657
 4768TIP3    H138499   1.227   1.822  18.115 -1.0677 -0.6057  1.5487
 4768TIP3    H238500   1.089   1.885  18.126 -0.4703  1.2772 -0.8663
 4769TIP3   OH238501   0.603   1.871  17.874 -0.4336  0.0081  0.0659
 4769TIP3    H138502   0.588   1.894  17.966  0.1837  1.6041 -0.1865
 4769TIP3    H238503   0.698   1.863  17.867 -0.5304 -0.8889 -0.2756
 4770TIP3   OH238504   0.098   0.271  16.728 -0.4386  0.1116  0.2029
 4770TIP3    H138505   0.155   0.197  16.710  0.2837  0.2765  1.6242
 4770TIP3    H238506   0.038   0.275  16.654  1.1287 -0.3353 -1.1400
 4771TIP3   OH238507   6.710   4.864  19.756 -0.3100  0.5634  0.1211
 4771TIP3    H138508   6.666   4.941  19.721 -1.9859 -0.9361 -1.2367
 4771TIP3    H238509   6.801   4.892  19.767 -0.7627  2.5897 -0.7287
 4772TIP3   OH238510   1.700   5.262  16.906 -0.0993 -0.2625 -0.1609
 4772TIP3    H138511   1.774   5.202  16.914  0.2598 -0.1334 -2.1447
 4772TIP3    H238512   1.624   5.211  16.933  0.4716 -0.9471  0.1696
 4773TIP3   OH238513   0.756   1.833  19.533  0.0210 -0.4636 -0.2419
 4773TIP3    H138514   0.682   1.816  19.474 -0.3315 -1.2155  0.4030
 4773TIP3    H238515   0.813   1.757  19.522 -0.7848 -1.3663  1.4841
 4774TIP3   OH238516   1.043   2.467  17.246  0.3413 -0.5723  0.2798
 4774TIP3    H138517   1.069   2.538  17.187  1.1197  0.2488  1.5656
 4774TIP3    H238518   1.102   2.395  17.223  0.5479 -0.3043 -0.0441
 4775TIP3   OH238519   5.334   2.955  18.021  0.3343  0.2065  0.1381
 4775TIP3    H138520   5.385   3.030  17.991 -1.0511  1.6455  1.2620
 4775TIP3    H238521   5.345   2.954  18.116  1.0041 -1.5578  0.0864
 4776TIP3   OH238522   1.576   1.334  18.757 -0.2414 -0.3640 -0.0601
 4776TIP3    H138523   1.648   1.273  18.773  1.2016  1.0216 -0.9690
 4776TIP3    H238524   1.532   1.299  18.679  2.1320  0.9496 -2.1740
 4777TIP3   OH238525   3.443   4.977  18.513  0.8575 -0.0160  0.1024
 4777TIP3    H138526   3.487   5.050  18.557  1.3429 -0.4425  0.3383
 4777TIP3    H238527   3.396   5.018  18.441 -0.1060  0.7312  1.1060
 4778TIP3   OH238528   0.028   3.999  17.428  0.6075  0.0654  0.2839
 4778TIP3    H138529  -0.057   3.956  17.436  0.7097 -0.0057  1.1093
 4778TIP3    H238530   0.037   4.018  17.335 -0.9347  1.3029  0.3334
 4779TIP3   OH238531   5.308   2.290  17.299 -0.4000 -0.1924  0.1625
 4779TIP3    H138532   5.215   2.275  17.282 -0.4768  0.2994  0.1362
 4779TIP3    H238533   5.345   2.202  17.305 -1.0124 -0.4188  0.9676
 4780TIP3   OH238534   2.418   1.815  18.002 -1.1770  0.0445  0.1004
 4780TIP3    H138535   2.420   1.738  17.946 -2.2233  0.5361 -0.6361
 4780TIP3    H238536   2.344   1.800  18.061 -0.8022  0.0653  0.5878
 4781TIP3   OH238537   3.025   1.824  20.121  0.1862  0.4244  0.0099
 4781TIP3    H138538   3.103   1.771  20.133  1.3206  2.0622  0.1568
 4781TIP3    H238539   3.058   1.909  20.092 -1.5696  1.0375 -0.3080
 4782TIP3   OH238540   4.015   0.769  17.590 -0.3775  0.6426 -0.2153
 4782TIP3    H138541   4.029   0.833  17.660  1.3812 -0.6522  0.6833
 4782TIP3    H238542   4.093   0.778  17.534  0.7021 -1.7065  0.7872
 4783TIP3   OH238543   4.699   0.714  18.039 -0.0431 -0.3138  0.4091
 4783TIP3    H138544   4.791   0.706  18.017 -0.1962  1.5658 -1.1503
 4783TIP3    H238545   4.696   0.715  18.134  1.8383  2.0682  0.5242
 4784TIP3   OH238546   6.636   3.370  19.954 -0.2495 -0.2384 -0.2642
 4784TIP3    H138547   6.691   3.401  19.882 -0.6844  0.2096 -0.4097
 4784TIP3    H238548   6.611   3.449  20.001  1.7014 -0.6594  1.6469
 4785TIP3   OH238549   1.952   2.917  19.791 -0.0278  0.5423  0.3844
 4785TIP3    H138550   1.958   2.836  19.741 -2.1531  1.4443 -1.5347
 4785TIP3    H238551   1.894   2.896  19.864  1.2709 -0.1965  1.2490
 4786TIP3   OH238552   6.214   1.632  17.510  0.6420  0.8097 -0.2494
 4786TIP3    H138553   6.202   1.698  17.441  0.7654  2.3207  1.1188
 4786TIP3    H238554   6.278   1.671  17.569 -2.2386  1.3756  2.8306
 4787TIP3   OH238555   6.595   1.510  17.975  0.0748 -0.0490  0.2502
 4787TIP3    H138556   6.542   1.525  18.052  1.5489  0.2878  1.2351
 4787TIP3    H238557   6.618   1.598  17.943  1.4862 -0.1594  0.8925
 4788TIP3   OH238558   5.664   6.699  17.558  0.7194 -0.5597 -0.0460
 4788TIP3    H138559   5.648   6.790  17.535  1.5938  0.2818  2.4119
 4788TIP3    H238560   5.752   6.681  17.526  2.0023  0.6614  2.4760
 4789TIP3   OH238561   3.513   1.264  19.323 -0.0665  0.1211 -0.0239
 4789TIP3    H138562   3.440   1.259  19.385 -1.4661  0.8620 -1.5290
 4789TIP3    H238563   3.520   1.357  19.302  0.1353 -0.1412 -1.2047
 4790TIP3   OH238564   0.028   2.857  17.629  0.1455 -0.0305  0.6498
 4790TIP3    H138565   0.017   2.952  17.638  1.2148  0.2549 -0.6942
 4790TIP3    H238566   0.081   2.847  17.549 -1.4085 -1.8553 -0.2060
 4791TIP3   OH238567   1.388   5.684  19.937  0.3945 -0.5642  0.6712
 4791TIP3    H138568   1.462   5.734  19.973  0.5798  1.4698 -2.2225
 4791TIP3    H238569   1.425   5.598  19.918  0.9265 -0.8818  2.7890
 4792TIP3   OH238570   0.957   3.016  17.658  0.3629 -0.5937  0.1064
 4792TIP3    H138571   0.997   3.009  17.572  1.6372 -2.2001  0.7887
 4792TIP3    H238572   0.952   2.926  17.691  0.0454 -0.0153  1.7713
 4793TIP3   OH238573   3.991   5.600  17.387  0.6927  0.1002 -0.2108
 4793TIP3    H138574   3.897   5.584  17.385  0.3412  2.0104 -1.5643
 4793TIP3    H238575   4.012   5.608  17.479 -0.7287  0.8881  0.0760
 4794TIP3   OH238576   4.628   2.549  17.492 -0.0801 -0.1423  0.4470
 4794TIP3    H138577   4.545   2.562  17.538 -0.1132 -0.7337  0.5681
 4794TIP3    H238578   4.620   2.602  17.413 -0.4543  0.0368  0.5997
 4795TIP3   OH238579   6.335   1.983  19.644 -0.0008  0.5623  1.0752
 4795TIP3    H138580   6.319   2.004  19.736  1.8446 -1.1742  1.8436
 4795TIP3    H238581   6.270   2.036  19.597 -2.3674  0.0176  3.4452
 4796TIP3   OH238582   1.326   5.877  19.690 -0.0444  0.2492 -0.1209
 4796TIP3    H138583   1.414   5.914  19.686 -0.9506  2.5226 -0.2007
 4796TIP3    H238584   1.315   5.851  19.782  0.2715  1.1510  0.1853
 4797TIP3   OH238585   3.246   0.272  18.037 -0.4425 -0.6923  0.1765
 4797TIP3    H138586   3.308   0.290  18.108 -0.8840 -2.7503  1.1400
 4797TIP3    H238587   3.293   0.300  17.958 -0.4511  2.9280  1.2738
 4798TIP3   OH238588   5.982   1.987  19.942  0.0652  0.3417 -0.1880
 4798TIP3    H138589   6.073   2.015  19.940  0.1405  0.0996 -1.5926
 4798TIP3    H238590   5.932   2.069  19.946  0.3444  0.5003  0.0429
 4799TIP3   OH238591   4.118   4.973  17.273 -0.2052  0.0494  0.0306
 4799TIP3    H138592   4.172   4.993  17.350  0.4979 -2.0092  0.1342
 4799TIP3    H238593   4.028   4.986  17.303  0.0331 -1.1800  1.3930
 4800TIP3   OH238594   0.099   6.395  19.409  0.3612  0.2947 -0.5238
 4800TIP3    H138595   0.069   6.482  19.383  0.8102  1.1023  1.5247
 4800TIP3    H238596   0.018   6.345  19.422  0.1106 -0.0000 -2.8111
 4801TIP3   OH238597   0.492   0.555  17.917  0.7057  0.1502 -0.0068
 4801TIP3    H138598   0.570   0.514  17.953  0.0448  0.4634  1.8925
 4801TIP3    H238599   0.523   0.606  17.842  1.8681 -1.9633 -1.0457
 4802TIP3   OH238600   3.258   0.246  18.679 -0.0864  0.0336 -0.1025
 4802TIP3    H138601   3.314   0.323  18.691 -0.3023  0.0606  0.8564
 4802TIP3    H238602   3.306   0.175  18.721 -0.2023 -0.2124 -0.3820
 4803TIP3   OH238603   3.049   1.909  18.203  0.0077 -0.1946  0.0924
 4803TIP3    H138604   3.142   1.931  18.194  0.0934 -0.4584  0.3137
 4803TIP3    H238605   3.046   1.849  18.277 -0.2899 -0.5021 -0.1650
 4804TIP3   OH238606   0.110   3.351  17.901 -0.0626  0.1980 -0.2088
 4804TIP3    H138607   0.126   3.278  17.961 -2.3551  0.0850  0.3618
 4804TIP3    H238608   0.198   3.383  17.880  0.9323 -1.3156  1.2479
 4805TIP3   OH238609   3.226   0.647  18.292 -0.0246 -0.1168  0.4642
 4805TIP3    H138610   3.223   0.661  18.387  0.9777  1.6888  0.2611
 4805TIP3    H238611   3.297   0.584  18.280  0.3938  0.2754  0.8498
 4806TIP3   OH238612   5.020   4.602  18.712  0.5180 -0.7273 -0.6020
 4806TIP3    H138613   4.950   4.538  18.698  1.1749 -1.6653  0.2445
 4806TIP3    H238614   5.076   4.594  18.634 -0.7450  0.6494 -1.7023
 4807TIP3   OH238615   5.734   6.733  16.905 -0.6704 -0.4005 -0.2569
 4807TIP3    H138616   5.672   6.804  16.893 -1.0466 -0.7636 -0.4701
 4807TIP3    H238617   5.820   6.777  16.909 -0.7899 -0.0187 -1.4835
 4808TIP3   OH238618   6.685   5.443  17.794  0.2756 -0.3172 -0.0013
 4808TIP3    H138619   6.671   5.426  17.888 -1.7423  0.2161 -0.1451
 4808TIP3    H238620   6.708   5.358  17.757 -1.1189 -1.0253  0.6567
 4809TIP3   OH238621   1.931   3.488  17.613  0.0635  0.1830 -0.5452
 4809TIP3    H138622   1.861   3.444  17.662  0.4939 -0.3817 -0.4202
 4809TIP3    H238623   1.927   3.579  17.642  1.0973 -0.3560  1.5104
 4810TIP3   OH238624   3.431   0.365  19.599 -0.3187 -0.8059 -1.0076
 4810TIP3    H138625   3.514   0.393  19.559 -0.7500 -0.7213 -1.8621
 4810TIP3    H238626   3.396   0.300  19.538 -1.9029  0.6916 -1.7503
 4811TIP3   OH238627   6.395   6.081  17.563 -0.4336 -0.1251  0.3182
 4811TIP3    H138628   6.300   6.078  17.575 -0.1477 -1.8555  2.9888
 4811TIP3    H238629   6.419   5.991  17.541  0.5856  0.3157 -0.4193
 4812TIP3   OH238630   2.305   4.251  18.723  0.6444  0.2670 -0.2881
 4812TIP3    H138631   2.223   4.294  18.748  0.5401 -0.2377  0.2716
 4812TIP3    H238632   2.286   4.208  18.640  0.3612  0.2074 -0.1930
 4813TIP3   OH238633   4.897   2.050  17.133  0.3386  0.2058 -0.7367
 4813TIP3    H138634   4.912   1.957  17.120  0.8737  0.3287 -1.0427
 4813TIP3    H238635   4.868   2.083  17.048 -0.1398  0.2640 -0.5530
 4814TIP3   OH238636   5.660   4.872  18.774  0.2285 -0.0146 -0.1575
 4814TIP3    H138637   5.606   4.828  18.709  1.1040 -0.8120 -0.3766
 4814TIP3    H238638   5.734   4.812  18.788  1.1908  1.1561 -0.0695
 4815TIP3   OH238639   1.313   5.951  16.658  0.4822  0.1385  0.4131
 4815TIP3    H138640   1.265   5.935  16.578 -2.0583  1.5796  1.5435
 4815TIP3    H238641   1.302   5.871  16.709  1.2670 -0.3984 -0.2308
 4816TIP3   OH238642   2.840   5.304  18.158 -0.2422  0.1213 -0.8260
 4816TIP3    H138643   2.896   5.249  18.212  0.1803  0.1277 -1.2543
 4816TIP3    H238644   2.760   5.253  18.146 -1.4140  1.1243  1.9091
 4817TIP3   OH238645   2.383   0.365  17.848  0.2646 -0.1270  0.4933
 4817TIP3    H138646   2.317   0.359  17.779  1.8036 -1.2213 -1.0070
 4817TIP3    H238647   2.411   0.456  17.847  0.5627 -0.2077 -0.6934
 4818TIP3   OH238648   1.037   5.868  18.174  0.1704 -0.3158 -0.3073
 4818TIP3    H138649   1.109   5.902  18.227 -0.8368  0.3534  0.6912
 4818TIP3    H238650   1.074   5.792  18.129  1.3409 -0.3301  0.6107
 4819TIP3   OH238651   6.741   0.960  19.272  0.3716 -0.2494  0.6464
 4819TIP3    H138652   6.813   0.956  19.335  1.2145 -0.9583 -0.3333
 4819TIP3    H238653   6.772   1.020  19.204  0.2662 -0.9828 -0.0560
 4820TIP3   OH238654   5.550   2.477  18.568 -0.3056  0.2425  0.0843
 4820TIP3    H138655   5.599   2.438  18.496  0.0075  0.7977 -0.0077
 4820TIP3    H238656   5.468   2.428  18.570 -0.3897  0.3288 -0.7569
 4821TIP3   OH238657   5.632   1.812  18.863 -0.7163  0.3492 -0.0319
 4821TIP3    H138658   5.643   1.738  18.924 -0.6146 -0.4458 -0.9816
 4821TIP3    H238659   5.660   1.777  18.779 -2.0665  1.0408 -0.7879
 4822TIP3   OH238660   3.501   6.151  19.667  0.5337 -0.1255 -0.3141
 4822TIP3    H138661   3.575   6.208  19.688  0.0537  0.6972 -0.7566
 4822TIP3    H238662   3.511   6.133  19.573  0.0993  0.1203 -0.4125
 4823TIP3   OH238663   0.884   1.408  17.778  0.3256  0.6334 -0.2289
 4823TIP3    H138664   0.979   1.405  17.765  0.3471 -1.2134  0.1426
 4823TIP3    H238665   0.861   1.322  17.813 -1.4929  1.0447 -0.2902
 4824TIP3   OH238666   4.479   3.682  17.549  0.0990  0.1620 -1.1600
 4824TIP3    H138667   4.457   3.767  17.510 -2.6085 -0.0949 -0.4379
 4824TIP3    H238668   4.540   3.702  17.619  0.8674  1.2787 -2.1173
 4825TIP3   OH238669   4.768   5.465  19.150 -0.1892 -0.1674 -0.0015
 4825TIP3    H138670   4.680   5.446  19.116 -0.8634  1.3413  0.7720
 4825TIP3    H238671   4.769   5.561  19.160  0.9255 -0.3057  1.6136
 4826TIP3   OH238672   4.726   4.557  18.426 -0.2397  0.3502  0.1331
 4826TIP3    H138673   4.774   4.592  18.351  0.1315 -0.4464 -0.0124
 4826TIP3    H238674   4.655   4.506  18.388 -1.9645  2.4335  0.3354
 4827TIP3   OH238675   4.868   4.282  19.686  0.3014  0.2490  0.4744
 4827TIP3    H138676   4.891   4.205  19.738 -0.1247  1.0751  1.9345
 4827TIP3    H238677   4.773   4.288  19.694  0.4164  1.4096  1.0812
 4828TIP3   OH238678   1.749   0.451  18.420 -0.1295 -0.2775 -0.1953
 4828TIP3    H138679   1.779   0.501  18.345  0.5366  0.1265  0.3314
 4828TIP3    H238680   1.666   0.492  18.444 -0.7185 -0.8761 -1.1470
 4829TIP3   OH238681   2.906   5.329  17.562  0.2387 -0.0646 -0.3199
 4829TIP3    H138682   2.963   5.275  17.616  1.0451  1.8931  0.8575
 4829TIP3    H238683   2.964   5.390  17.517 -0.8029  1.2807  0.0808
 4830TIP3   OH238684   3.582   4.257  17.889  0.5702  0.0180  0.1234
 4830TIP3    H138685   3.562   4.254  17.795  2.0284 -2.6482 -0.2048
 4830TIP3    H238686   3.674   4.283  17.893  0.5312  0.0585  0.8265
 4831TIP3   OH238687   5.311   3.232  19.709  0.3416 -0.1093  0.0723
 4831TIP3    H138688   5.279   3.149  19.744  0.2607 -0.3525 -0.5674
 4831TIP3    H238689   5.233   3.274  19.672  0.1924  0.7070  1.2685
 4832TIP3   OH238690   5.980   6.474  19.739  0.1395  0.0695  0.1679
 4832TIP3    H138691   5.893   6.502  19.767 -0.5551 -0.9643 -0.8638
 4832TIP3    H238692   6.001   6.532  19.665 -0.4678 -0.8202 -0.7286
 4833TIP3   OH238693   3.542   5.008  18.174  0.2035 -0.8751 -0.1452
 4833TIP3    H138694   3.505   4.942  18.114  1.6328 -1.8316 -0.0210
 4833TIP3    H238695   3.591   5.067  18.117  1.5336 -1.7641  0.0393
 4834TIP3   OH238696   4.261   2.781  17.884  0.2318  0.0514 -0.0870
 4834TIP3    H138697   4.225   2.695  17.861 -0.7983  0.1323  1.1341
 4834TIP3    H238698   4.342   2.760  17.931  0.7319 -0.1874 -1.0180
 4835TIP3   OH238699   1.193   4.124  17.407 -0.0598 -0.0616  0.0927
 4835TIP3    H138700   1.126   4.081  17.461 -0.9093  1.6174  0.4232
 4835TIP3    H238701   1.265   4.061  17.405 -1.0053 -1.2337  1.0757
 4836TIP3   OH238702   6.274   6.651  19.633  0.4666  0.1943 -0.2705
 4836TIP3    H138703   6.335   6.695  19.693  0.9833 -1.9430  0.8817
 4836TIP3    H238704   6.187   6.677  19.665  0.7584  0.3357  0.4399
 4837TIP3   OH238705   3.704   0.068  18.415 -0.0540  0.4945 -0.1159
 4837TIP3    H138706   3.610   0.063  18.434 -0.1672  1.2959 -0.4324
 4837TIP3    H238707   3.741  -0.008  18.460 -0.8298  0.2617  0.1527
 4838TIP3   OH238708   0.037   1.513  19.772  0.2059  0.1411 -0.7404
 4838TIP3    H138709   0.120   1.467  19.782 -1.0586 -2.3182 -0.6112
 4838TIP3    H238710   0.009   1.491  19.683 -1.0088 -0.4226 -0.2435
 4839TIP3   OH238711   5.600   6.201  18.069 -0.0868 -0.0964 -0.3550
 4839TIP3    H138712   5.594   6.202  18.165 -2.3313 -0.3018 -0.4399
 4839TIP3    H238713   5.644   6.118  18.049 -1.1637 -0.9054  0.4774
 4840TIP3   OH238714   3.690   3.504  19.652 -0.4781 -0.1911 -0.1229
 4840TIP3    H138715   3.645   3.483  19.734  0.0357 -0.8441 -0.0041
 4840TIP3    H238716   3.679   3.599  19.642 -0.6186 -0.1221  0.6538
 4841TIP3   OH238717   0.721   5.838  17.122  0.1388  0.2791 -0.1608
 4841TIP3    H138718   0.707   5.775  17.192 -0.2535  1.5993  1.0060
 4841TIP3    H238719   0.771   5.791  17.055  1.4935 -0.7139  1.4896
 4842TIP3   OH238720   2.187   1.065  16.741 -0.0756 -0.0428  0.0403
 4842TIP3    H138721   2.118   1.083  16.805 -0.5195  0.9329 -0.6870
 4842TIP3    H238722   2.142   1.022  16.668  0.1233  0.3532 -0.3223
 4843TIP3   OH238723   3.069   6.784  18.330 -0.3236  0.2601  0.0206
 4843TIP3    H138724   3.044   6.877  18.326 -1.2156  0.0380  0.2724
 4843TIP3    H238725   3.007   6.741  18.271 -0.3327 -0.2578  0.4091
 4844TIP3   OH238726   0.600   2.883  16.801  0.3336 -0.3831 -0.1269
 4844TIP3    H138727   0.568   2.911  16.716  0.7914 -0.6790 -0.4010
 4844TIP3    H238728   0.551   2.935  16.864  0.5137  0.3564 -0.5914
 4845TIP3   OH238729   3.627   0.498  19.793  0.1601 -0.2653 -0.0799
 4845TIP3    H138730   3.549   0.452  19.822 -1.1570  1.5946 -0.4587
 4845TIP3    H238731   3.610   0.521  19.702  0.3019  1.7609  0.3476
 4846TIP3   OH238732   2.250   6.209  19.737 -0.0970  0.0619 -0.4413
 4846TIP3    H138733   2.236   6.297  19.702  1.0475 -0.1889 -1.6423
 4846TIP3    H238734   2.232   6.151  19.663  1.3841 -0.5581 -0.3487
 4847TIP3   OH238735   3.197   2.039  20.028  0.0327 -0.6156 -0.0301
 4847TIP3    H138736   3.285   2.005  20.047 -0.5118 -1.9153  0.3000
 4847TIP3    H238737   3.198   2.056  19.934  0.0111 -2.6566 -0.4445
 4848TIP3   OH238738   4.020   2.946  18.777 -0.1654 -0.1282  0.2862
 4848TIP3    H138739   3.930   2.958  18.807  0.4826  2.2957  1.5070
 4848TIP3    H238740   4.013   2.949  18.681 -1.4176 -0.4844  0.3453
 4849TIP3   OH238741   2.844   5.581  18.236  0.1608 -0.1133 -0.0295
 4849TIP3    H138742   2.862   5.492  18.205 -0.4651 -0.6727  1.1620
 4849TIP3    H238743   2.789   5.569  18.314  0.4956  1.2968  0.4511
 4850TIP3   OH238744   5.271   6.718  19.456  0.2456  0.1178  0.1224
 4850TIP3    H138745   5.348   6.664  19.437 -0.2391 -0.7683  0.5629
 4850TIP3    H238746   5.237   6.743  19.371  0.6123 -0.0881 -0.0890
 4851TIP3   OH238747   3.140   3.769  20.153 -0.2611 -0.0204 -0.0191
 4851TIP3    H138748   3.220   3.785  20.203 -1.4037  0.4169  1.7429
 4851TIP3    H238749   3.113   3.856  20.122  0.3349 -0.2633 -1.3100
 4852TIP3   OH238750   1.887   0.233  16.520 -0.4965  0.5932 -0.0486
 4852TIP3    H138751   1.943   0.225  16.597  1.0822 -0.7486 -1.2624
 4852TIP3    H238752   1.803   0.197  16.548 -0.3146  1.1931  1.3577
 4853TIP3   OH238753   4.952   4.036  19.809  0.0048  0.8115  0.1132
 4853TIP3    H138754   5.036   3.990  19.817  0.8670  1.9636 -1.6452
 4853TIP3    H238755   4.892   3.985  19.863  1.2911 -1.3831 -0.3865
 4854TIP3   OH238756   0.520   3.042  18.434 -0.3449  0.4996 -0.1861
 4854TIP3    H138757   0.604   3.046  18.388 -0.4067 -1.4773 -0.5529
 4854TIP3    H238758   0.454   3.055  18.365 -0.3772 -0.3787 -0.3384
 4855TIP3   OH238759   3.840   2.496  18.842 -0.2028 -0.1355 -0.0480
 4855TIP3    H138760   3.813   2.567  18.783 -0.3417  1.0597  1.4119
 4855TIP3    H238761   3.868   2.426  18.783  1.0022  1.5181 -1.5781
 4856TIP3   OH238762   4.477   6.271  19.209  0.2528 -0.1392 -0.1890
 4856TIP3    H138763   4.422   6.284  19.132 -1.2387  0.1562  0.8817
 4856TIP3    H238764   4.464   6.179  19.233  0.0291 -0.0056  0.2108
 4857TIP3   OH238765   2.445   3.959  19.900 -0.9242 -0.5802 -0.3683
 4857TIP3    H138766   2.400   3.956  19.985 -0.1067  2.7476  0.3265
 4857TIP3    H238767   2.520   3.900  19.911 -0.3256  0.4228  1.6308
 4858TIP3   OH238768   5.866   3.893  19.073  0.0700  0.2446  0.3870
 4858TIP3    H138769   5.954   3.931  19.069  1.1903 -2.0943  1.2441
 4858TIP3    H238770   5.869   3.819  19.013 -1.6058  0.5959 -0.1825
 4859TIP3   OH238771   1.604   2.874  19.101 -0.3981 -0.4139 -0.3639
 4859TIP3    H138772   1.685   2.838  19.065 -1.0978 -0.3488 -2.1075
 4859TIP3    H238773   1.535   2.833  19.049 -1.5479 -0.8052  1.3728
 4860TIP3   OH238774   0.256   3.886  19.869  0.6497  0.3671 -0.3769
 4860TIP3    H138775   0.349   3.903  19.855  0.3086  4.1750  0.8245
 4860TIP3    H238776   0.254   3.817  19.936  2.7146  1.5607  1.0409
 4861TIP3   OH238777   0.616   4.325  19.369 -0.0876  0.3651  0.1746
 4861TIP3    H138778   0.676   4.337  19.442  0.6700  0.6233 -0.4806
 4861TIP3    H238779   0.529   4.334  19.408  0.2053 -1.6749  1.4667
 4862TIP3   OH238780   1.919   1.464  18.337 -0.1587 -0.2714 -0.6608
 4862TIP3    H138781   1.987   1.528  18.314  0.0705 -0.5183 -0.6829
 4862TIP3    H238782   1.888   1.431  18.253 -0.2261 -0.2415 -0.6487
 4863TIP3   OH238783   5.183   1.777  18.912  0.4144  0.0750  0.0615
 4863TIP3    H138784   5.263   1.733  18.942  0.1507 -0.5763 -0.1811
 4863TIP3    H238785   5.215   1.845  18.852  0.6737 -2.0040 -2.3130
 4864TIP3   OH238786   0.530   4.319  18.786  0.7802  0.4120  0.5004
 4864TIP3    H138787   0.497   4.330  18.697 -0.3600 -1.1710  0.6722
 4864TIP3    H238788   0.568   4.404  18.809  0.9026  0.9095 -1.3992
 4865TIP3   OH238789   4.625   2.808  19.915  0.5177 -0.1028  0.0545
 4865TIP3    H138790   4.611   2.898  19.943  0.4769  0.3318 -1.2638
 4865TIP3    H238791   4.549   2.788  19.860  0.5092 -0.9598  0.3524
 4866TIP3   OH238792   5.712   1.074  17.754 -0.1373 -0.6261 -0.0028
 4866TIP3    H138793   5.732   1.141  17.820 -0.4111 -0.4358 -0.1137
 4866TIP3    H238794   5.640   1.111  17.703  0.0263 -0.8078 -0.3634
 4867TIP3   OH238795   6.374   1.423  17.450 -0.0287 -0.0893  0.4195
 4867TIP3    H138796   6.384   1.451  17.359  0.4974 -1.3007  0.0815
 4867TIP3    H238797   6.301   1.475  17.483 -1.1652 -0.6259 -1.1245
 4868TIP3   OH238798   2.670   3.210  16.985  0.5808 -0.7806 -0.0049
 4868TIP3    H138799   2.726   3.167  17.050  0.9752  1.0241  0.9343
 4868TIP3    H238800   2.640   3.290  17.029  1.2191  0.7396 -2.1816
 4869TIP3   OH238801   2.829   3.019  17.158  0.2295 -0.5268  0.2967
 4869TIP3    H138802   2.759   2.970  17.114 -1.7117  1.0996  1.4280
 4869TIP3    H238803   2.842   2.972  17.240 -3.1496  1.7852  2.3912
 4870TIP3   OH238804   3.139   4.417  17.472 -0.0657  0.0615  0.5613
 4870TIP3    H138805   3.159   4.488  17.412  3.6990 -1.0057  0.2488
 4870TIP3    H238806   3.100   4.349  17.418  2.5438 -0.5761 -0.6801
 4871TIP3   OH238807   2.268   3.453  17.791  0.3198  0.0168  0.1099
 4871TIP3    H138808   2.308   3.539  17.807 -1.1343  1.0253 -1.2669
 4871TIP3    H238809   2.256   3.450  17.696 -1.2251 -0.9705  0.3069
 4872TIP3   OH238810   6.322   6.024  18.778 -0.1258 -0.3448  0.1560
 4872TIP3    H138811   6.356   5.936  18.768  0.5117 -0.0967  0.0714
 4872TIP3    H238812   6.230   6.012  18.801  0.0388 -1.0352  0.4867
 4873TIP3   OH238813   5.225   4.544  17.811 -0.1753 -0.0304  0.2483
 4873TIP3    H138814   5.255   4.610  17.748 -0.3531  0.7198  0.9400
 4873TIP3    H238815   5.246   4.460  17.769 -0.4168  0.4508 -0.8677
 4874TIP3   OH238816   0.058   1.541  17.460  0.3869 -0.2867 -0.4440
 4874TIP3    H138817   0.035   1.450  17.444 -0.3088  0.1205 -1.9192
 4874TIP3    H238818   0.023   1.559  17.547  0.5762 -1.4343 -0.1148
 4875TIP3   OH238819   0.382   3.685  18.899  0.0819 -0.0634 -0.1566
 4875TIP3    H138820   0.371   3.651  18.811  0.4806 -0.1311 -0.1861
 4875TIP3    H238821   0.402   3.608  18.953 -1.4251 -0.2044  0.2456
 4876TIP3   OH238822   6.258   6.086  16.561  0.2461  0.1573 -0.3952
 4876TIP3    H138823   6.232   5.997  16.538 -0.1158  0.4326 -1.0627
 4876TIP3    H238824   6.300   6.120  16.482  0.4272  0.5601 -0.1271
 4877TIP3   OH238825   4.946   1.580  18.388  0.4351  0.9590 -0.6091
 4877TIP3    H138826   4.866   1.562  18.338  1.5845  0.9304 -2.5269
 4877TIP3    H238827   4.930   1.666  18.427 -0.9399  0.4831 -0.0436
 4878TIP3   OH238828   5.011   2.409  17.506  0.2683  0.2506 -0.2119
 4878TIP3    H138829   5.032   2.365  17.424  1.6913 -1.6200  1.0752
 4878TIP3    H238830   5.060   2.492  17.502  0.5517  0.0469 -1.1181
 4879TIP3   OH238831   1.925   0.698  19.620  0.3133 -0.1199 -0.4199
 4879TIP3    H138832   1.963   0.684  19.533 -0.1645 -0.0060 -0.6460
 4879TIP3    H238833   1.945   0.790  19.640 -0.7550  0.2553 -0.9963
 4880TIP3   OH238834   2.096   4.906  18.630  0.2360 -0.0338 -0.6290
 4880TIP3    H138835   2.042   4.854  18.570  0.1605 -0.4390 -0.2119
 4880TIP3    H238836   2.054   4.992  18.630  0.5812  0.1541 -1.6163
 4881TIP3   OH238837   6.615   1.788  17.891  0.8218  0.5438 -0.0765
 4881TIP3    H138838   6.531   1.828  17.914  1.2089  1.1369  0.3421
 4881TIP3    H238839   6.679   1.839  17.940  1.5987  1.2162 -1.7106
 4882TIP3   OH238840   4.149   2.827  17.470  0.1303 -0.5422 -0.2120
 4882TIP3    H138841   4.071   2.826  17.415 -0.3353  1.2321  0.3597
 4882TIP3    H238842   4.120   2.861  17.554  1.2105 -1.4269  0.5619
 4883TIP3   OH238843   0.945   1.610  17.596  0.0812  0.2446 -0.7933
 4883TIP3    H138844   0.931   1.595  17.690  0.6651 -2.6088 -1.0713
 4883TIP3    H238845   0.898   1.691  17.578 -1.4219  0.0424  1.6648
 4884TIP3   OH238846   5.474   4.603  18.346  0.1227 -0.0157  0.2985
 4884TIP3    H138847   5.480   4.629  18.254 -0.8322  1.7038  0.6646
 4884TIP3    H238848   5.543   4.538  18.358  0.3118 -0.2080 -1.6050
 4885TIP3   OH238849   1.332   5.696  18.551  0.0484 -0.2844  0.1147
 4885TIP3    H138850   1.412   5.663  18.511  0.0097 -2.3916  1.5730
 4885TIP3    H238851   1.268   5.626  18.538 -1.9377  1.7477 -1.8975
 4886TIP3   OH238852   5.217   2.285  16.606 -0.2522 -0.1584  0.2156
 4886TIP3    H138853   5.174   2.268  16.522  1.1311 -2.6591 -0.0881
 4886TIP3    H238854   5.308   2.303  16.584  0.0533 -0.4954  1.1464
 4887TIP3   OH238855   5.793   6.282  19.464  0.0660  0.1092  0.2229
 4887TIP3    H138856   5.787   6.366  19.419  1.5791  0.2903  0.3058
 4887TIP3    H238857   5.772   6.302  19.555  1.6501  0.6760  0.4939
 4888TIP3   OH238858   1.025   1.192  17.062  0.1704 -0.0287  0.1060
 4888TIP3    H138859   1.071   1.231  17.137  1.4783  0.9772 -1.1653
 4888TIP3    H238860   1.095   1.157  17.007 -0.5633  1.2792 -1.7626
 4889TIP3   OH238861   6.147   0.325  16.946 -0.5869  0.0679 -0.0989
 4889TIP3    H138862   6.167   0.415  16.919 -1.0074  0.1690 -0.0811
 4889TIP3    H238863   6.174   0.321  17.038  0.5052 -0.1682 -0.4157
 4890TIP3   OH238864   0.213   4.310  17.716 -0.3103 -0.2821 -0.1126
 4890TIP3    H138865   0.294   4.354  17.739 -0.3112  0.4240 -1.3673
 4890TIP3    H238866   0.143   4.369  17.745 -0.4173 -1.1858  1.5565
 4891TIP3   OH238867   4.118   6.294  19.919 -0.1605 -0.4135 -0.1068
 4891TIP3    H138868   4.187   6.240  19.957  0.5775 -0.7704 -1.8824
 4891TIP3    H238869   4.040   6.239  19.924 -0.7144  0.4321  3.0149
 4892TIP3   OH238870   1.075   3.271  18.640 -0.2798  0.2210 -0.4821
 4892TIP3    H138871   1.006   3.265  18.574 -0.1993 -0.2481 -0.5314
 4892TIP3    H238872   1.141   3.208  18.611  0.2080  0.7195 -0.4798
 4893TIP3   OH238873   5.285   3.163  18.795  0.4641 -0.5721  0.4468
 4893TIP3    H138874   5.211   3.222  18.788  0.9227 -0.1312 -1.2699
 4893TIP3    H238875   5.335   3.178  18.714  0.8069 -3.0049  0.1236
 4894TIP3   OH238876   3.037   5.841  19.566  0.1302  0.3756  0.4066
 4894TIP3    H138877   3.025   5.837  19.661  0.2003 -1.9437  0.3936
 4894TIP3    H238878   3.053   5.750  19.541 -1.5738  0.6604 -2.0395
 4895TIP3   OH238879   3.647   2.179  17.854 -0.1707 -0.0819  0.0610
 4895TIP3    H138880   3.595   2.260  17.861  0.6356  0.4031  0.6288
 4895TIP3    H238881   3.661   2.167  17.760 -0.2863  0.4473 -0.0264
 4896TIP3   OH238882   2.720   3.792  19.060  0.0245  0.6236 -0.0534
 4896TIP3    H138883   2.746   3.701  19.074  1.1113  0.9284  0.0194
 4896TIP3    H238884   2.663   3.790  18.983 -0.7187 -0.2302  0.5034
 4897TIP3   OH238885   4.953   4.192  18.057 -0.2261 -0.4025  0.1885
 4897TIP3    H138886   5.040   4.189  18.017 -0.6830  2.3889 -1.2752
 4897TIP3    H238887   4.965   4.245  18.136 -0.7146  0.9984 -0.6283
 4898TIP3   OH238888   6.353   1.093  18.142 -0.0888  0.0850 -0.3468
 4898TIP3    H138889   6.366   1.027  18.210 -0.5110 -0.2456 -0.5830
 4898TIP3    H238890   6.418   1.073  18.075  0.3827  0.4598 -0.0117
 4899TIP3   OH238891   3.333   4.399  20.091  0.5116 -0.2085 -0.2022
 4899TIP3    H138892   3.409   4.342  20.103 -0.0813 -0.6719  1.8585
 4899TIP3    H238893   3.367   4.488  20.105  0.5474 -0.4831  1.7581
 4900TIP3   OH238894   1.705   4.505  17.125  0.0253 -0.0256  0.3239
 4900TIP3    H138895   1.727   4.549  17.043 -0.0399  1.9988  1.3331
 4900TIP3    H238896   1.710   4.573  17.191 -0.3188 -1.5180  1.9722
 4901TIP3   OH238897   5.965   3.959  19.486  0.1116 -0.2336  0.2349
 4901TIP3    H138898   6.001   3.892  19.544  0.6144  0.4610  0.7450
 4901TIP3    H238899   5.923   4.022  19.545 -0.1919 -0.0063 -0.2205
 4902TIP3   OH238900   2.202   3.785  17.323 -0.0724  0.5890 -0.0085
 4902TIP3    H138901   2.162   3.852  17.378  0.8908  1.0647  0.1218
 4902TIP3    H238902   2.229   3.717  17.384 -2.8229 -0.9311 -0.2856
 4903TIP3   OH238903   0.089   5.154  18.922 -0.0456 -0.1503  0.3474
 4903TIP3    H138904   0.033   5.105  18.861 -0.0157  0.3621 -0.0979
 4903TIP3    H238905   0.111   5.090  18.990  0.1339 -0.8055 -0.3101
 4904TIP3   OH238906   6.392   4.561  17.843  0.6248  0.0566 -0.0785
 4904TIP3    H138907   6.315   4.599  17.884  0.4706 -0.1628 -0.1621
 4904TIP3    H238908   6.382   4.467  17.855  0.0356 -0.0892 -1.5296
 4905TIP3   OH238909   3.590   0.441  16.557  0.1251  0.3325 -0.3032
 4905TIP3    H138910   3.524   0.372  16.562 -0.1093  0.6110  0.9599
 4905TIP3    H238911   3.629   0.432  16.471 -1.1959 -0.1906 -0.8739
 4906TIP3   OH238912   6.107   4.360  19.343 -0.0892  0.0709  0.4754
 4906TIP3    H138913   6.037   4.295  19.349 -0.0299  0.0762  1.4122
 4906TIP3    H238914   6.083   4.427  19.406  0.0706  0.7485 -0.1765
 4907TIP3   OH238915   6.501   1.210  16.430  0.6186 -0.0881 -0.1166
 4907TIP3    H138916   6.449   1.268  16.375  0.0998  0.0957  0.5425
 4907TIP3    H238917   6.585   1.202  16.385  0.1703 -0.0376 -0.9782
 4908TIP3   OH238918   2.780   0.754  16.944  0.1621 -0.1541  0.2872
 4908TIP3    H138919   2.796   0.738  16.852  0.1491  0.5880  0.1465
 4908TIP3    H238920   2.867   0.772  16.981  0.0341  0.7436  0.1682
 4909TIP3   OH238921   5.551   6.492  18.229 -0.0223 -0.2843  0.1903
 4909TIP3    H138922   5.533   6.408  18.272  2.4042 -0.7987  0.3342
 4909TIP3    H238923   5.520   6.480  18.139  0.4939 -1.4396  0.1465
 4910TIP3   OH238924   4.707   3.880  18.286  0.4048 -0.3779 -0.1468
 4910TIP3    H138925   4.710   3.792  18.322  1.6608 -0.8563 -1.3473
 4910TIP3    H238926   4.751   3.934  18.352 -1.4925 -0.3567  1.2050
 4911TIP3   OH238927   3.893   3.327  17.346  0.0975  0.3131 -0.3238
 4911TIP3    H138928   3.855   3.241  17.362 -0.5414  1.0135  2.3147
 4911TIP3    H238929   3.905   3.330  17.251 -1.7760 -1.8607 -0.7128
 4912TIP3   OH238930   0.102   0.685  17.886  0.4143 -0.3809  0.5594
 4912TIP3    H138931   0.041   0.728  17.946  0.0088 -2.3907  1.6991
 4912TIP3    H238932   0.157   0.631  17.943 -0.7279 -3.2675 -0.8408
 4913TIP3   OH238933   2.075   6.524  18.625 -0.1259 -0.6590 -0.0957
 4913TIP3    H138934   2.162   6.515  18.664 -0.0654 -1.2498 -0.3498
 4913TIP3    H238935   2.060   6.618  18.618 -0.2643 -0.5329  1.6351
 4914TIP3   OH238936   0.705   6.166  16.721  0.0647 -0.0964  0.1067
 4914TIP3    H138937   0.796   6.181  16.695  0.0762  0.5584  0.5083
 4914TIP3    H238938   0.701   6.195  16.812 -0.2601 -1.2623  0.4847
 4915TIP3   OH238939   4.588   0.215  19.326 -0.0750  0.1022 -0.7113
 4915TIP3    H138940   4.494   0.223  19.307 -0.3149  1.1146  0.6965
 4915TIP3    H238941   4.623   0.302  19.307  0.6141 -0.2898 -1.2847
 4916TIP3   OH238942   5.153   6.452  16.379 -0.4331  0.2320 -0.0159
 4916TIP3    H138943   5.190   6.400  16.307  0.6978  1.7787 -0.6115
 4916TIP3    H238944   5.062   6.465  16.354 -0.6828 -1.2095  0.0234
 4917TIP3   OH238945   2.065   2.274  19.509 -0.1567  0.3096 -0.1200
 4917TIP3    H138946   2.151   2.277  19.466 -0.3010 -0.6772 -0.5155
 4917TIP3    H238947   2.047   2.180  19.519 -1.2491  0.5015 -0.1815
 4918TIP3   OH238948   5.042   5.834  19.382 -0.4605 -0.4446 -0.3504
 4918TIP3    H138949   4.995   5.883  19.449 -2.5043 -1.9594 -0.5994
 4918TIP3    H238950   5.077   5.758  19.427  1.0899  0.2113 -0.3625
 4919TIP3   OH238951   3.454   5.906  17.639 -0.4496  0.2400  0.3114
 4919TIP3    H138952   3.441   5.953  17.557 -1.5743 -1.3274 -0.4842
 4919TIP3    H238953   3.548   5.911  17.656 -0.4097  1.8615 -0.2545
 4920TIP3   OH238954   4.108   6.788  18.352 -0.1069 -0.0207  0.0599
 4920TIP3    H138955   4.068   6.726  18.414 -0.5738  0.2608  0.0480
 4920TIP3    H238956   4.131   6.863  18.406 -1.6268  0.7320 -0.2939
 4921TIP3   OH238957   1.910   6.057  17.710 -0.0372 -0.5739  0.1860
 4921TIP3    H138958   1.915   5.967  17.676 -1.7752 -1.6608  2.5277
 4921TIP3    H238959   1.977   6.060  17.779  0.2608  0.0827 -0.1219
 4922TIP3   OH238960   2.793   6.619  16.988  0.2456 -0.2236 -0.6593
 4922TIP3    H138961   2.818   6.673  16.913  1.7517  0.5352  0.3215
 4922TIP3    H238962   2.843   6.538  16.976  1.5112  0.3978  0.1258
 4923TIP3   OH238963   6.741   1.839  19.333  0.1652 -0.5209 -0.2582
 4923TIP3    H138964   6.791   1.909  19.291  1.0238 -1.1453 -0.2932
 4923TIP3    H238965   6.684   1.885  19.395 -0.3510  0.3158 -1.3343
 4924TIP3   OH238966   5.774   1.668  18.305  0.1701 -0.7662 -0.2139
 4924TIP3    H138967   5.703   1.722  18.340  1.4856 -0.6472  2.5560
 4924TIP3    H238968   5.812   1.720  18.235 -0.1823  0.8103  0.7149
 4925TIP3   OH238969   2.589   5.861  17.169  0.1840  0.0881 -0.4516
 4925TIP3    H138970   2.527   5.901  17.231  0.1716 -0.8718  0.1779
 4925TIP3    H238971   2.535   5.839  17.092  0.0459  0.6120 -0.5055
 4926TIP3   OH238972   5.829   5.091  17.240 -0.0489 -0.0974 -0.5224
 4926TIP3    H138973   5.782   5.054  17.315 -1.2959 -1.0825 -1.7368
 4926TIP3    H238974   5.766   5.087  17.168  1.2113  0.5421 -1.7059
 4927TIP3   OH238975   4.753   0.134  19.705  0.1049  0.2111  0.8456
 4927TIP3    H138976   4.763   0.043  19.732  0.7743  0.3368  1.0296
 4927TIP3    H238977   4.840   0.162  19.678 -0.6733 -0.2649 -2.6713
 4928TIP3   OH238978   0.398   4.345  18.538  0.1582 -0.0752 -0.2896
 4928TIP3    H138979   0.359   4.278  18.482 -0.3637 -1.2998  1.4478
 4928TIP3    H238980   0.368   4.428  18.501 -3.7952 -0.8961  0.6274
 4929TIP3   OH238981   6.112   0.797  17.891  0.2672 -0.0225  0.8042
 4929TIP3    H138982   6.153   0.786  17.977  0.0431  0.1714  0.9376
 4929TIP3    H238983   6.079   0.887  17.891 -0.5307 -0.3089  0.8643
 4930TIP3   OH238984   5.511   5.098  17.899 -0.2268  0.2607  0.1254
 4930TIP3    H138985   5.511   5.193  17.893  2.2471  0.5851  2.9739
 4930TIP3    H238986   5.446   5.079  17.967  0.8170  0.1713  1.1366
 4931TIP3   OH238987   1.897   6.759  19.438  0.4372  0.1992  0.5906
 4931TIP3    H138988   1.926   6.750  19.347  0.6692  0.4906  0.6358
 4931TIP3    H238989   1.827   6.824  19.435  2.3632  2.4357  0.9964
 4932TIP3   OH238990   6.215   6.406  17.803  0.1451 -0.0113 -0.3016
 4932TIP3    H138991   6.133   6.393  17.850  0.2655  2.9908  1.0031
 4932TIP3    H238992   6.283   6.388  17.869  0.4951 -1.0913 -0.9512
 4933TIP3   OH238993   0.952   1.635  19.704  0.0659  0.0734  0.2863
 4933TIP3    H138994   1.034   1.640  19.654 -0.1484 -0.4008 -0.1129
 4933TIP3    H238995   0.968   1.568  19.770  0.3223  0.6458  0.8128
 4934TIP3   OH238996   5.081   5.503  16.912  0.1956 -0.1320  0.0496
 4934TIP3    H138997   5.035   5.465  16.837 -0.2589 -0.9297  0.7145
 4934TIP3    H238998   5.023   5.489  16.986 -0.7161  3.2922  0.1273
 4935TIP3   OH238999   1.964   5.151  18.639  0.0915  0.3482 -0.1296
 4935TIP3    H139000   1.895   5.208  18.606 -1.5683 -0.5943  1.4860
 4935TIP3    H239001   2.032   5.210  18.670 -0.0887  1.3228 -1.5170
 4936TIP3   OH239002   4.674   2.373  18.384  0.4110  0.3702  0.2606
 4936TIP3    H139003   4.735   2.392  18.313  0.6194  0.0524  0.3557
 4936TIP3    H239004   4.626   2.295  18.355  1.1520 -0.3293  0.8775
 4937TIP3   OH239005   6.729   3.146  16.483  0.7844 -0.7023  0.1115
 4937TIP3    H139006   6.754   3.236  16.463  0.0046 -0.2017  1.2355
 4937TIP3    H239007   6.712   3.106  16.398  0.2216  0.5005 -0.3682
 4938TIP3   OH239008   5.781   3.764  17.556  1.0407  0.3189 -0.0458
 4938TIP3    H139009   5.857   3.821  17.539  0.7767  0.5323 -0.5338
 4938TIP3    H239010   5.757   3.729  17.470  0.3605  0.5417  0.0454
 4939TIP3   OH239011   2.075   0.675  17.168 -0.5278  0.6560  0.5186
 4939TIP3    H139012   2.071   0.708  17.078  1.4816  0.0182  0.1287
 4939TIP3    H239013   2.007   0.609  17.173 -0.6158  0.6367 -0.5820
 4940TIP3   OH239014   1.483   0.934  19.680  0.3237  0.4559  0.4024
 4940TIP3    H139015   1.461   1.000  19.614  0.0853  0.5624  0.5839
 4940TIP3    H239016   1.577   0.944  19.694  0.5099 -0.0266 -0.4134
 4941TIP3   OH239017   4.632   6.494  18.593 -0.8462  0.3748  0.4452
 4941TIP3    H139018   4.672   6.428  18.649  0.5534  2.1101  1.6153
 4941TIP3    H239019   4.623   6.571  18.649 -0.6292  1.7743 -1.3414
 4942TIP3   OH239020   6.290   4.236  17.638 -0.2066 -0.5794  0.2223
 4942TIP3    H139021   6.372   4.187  17.644  0.7764  0.8806 -0.5455
 4942TIP3    H239022   6.236   4.203  17.709  1.7337 -0.3498  1.8780
 4943TIP3   OH239023   2.206   1.711  19.060 -0.3199 -0.0758 -0.1220
 4943TIP3    H139024   2.116   1.719  19.028  0.7995 -0.7764 -3.9241
 4943TIP3    H239025   2.240   1.632  19.018  2.1256  0.2359  1.0896
 4944TIP3   OH239026   1.690   3.051  17.543  0.9127 -0.0771  0.1851
 4944TIP3    H139027   1.735   3.110  17.483 -2.2956  1.8390 -0.5444
 4944TIP3    H239028   1.678   3.102  17.623  1.1299 -1.0035  0.8284
 4945TIP3   OH239029   0.285   4.751  19.385 -0.4607  0.0128 -0.3692
 4945TIP3    H139030   0.317   4.741  19.296  0.6197  0.8013 -0.1005
 4945TIP3    H239031   0.211   4.812  19.378 -0.8976 -0.5638 -0.8113
 4946TIP3   OH239032   2.306   3.622  20.325  0.1563 -0.1457 -0.1723
 4946TIP3    H139033   2.270   3.608  20.413  1.5979 -0.2509  0.4264
 4946TIP3    H239034   2.257   3.561  20.269  2.5342 -3.8487  1.3994
 4947TIP3   OH239035   0.377   5.753  16.017 -0.4510 -0.3066 -0.4786
 4947TIP3    H139036   0.313   5.682  16.029 -0.2023 -0.3473  0.7210
 4947TIP3    H239037   0.437   5.719  15.952 -1.3587 -0.4676 -1.2587
 4948TIP3   OH239038   4.479   5.152  18.410  0.4873 -0.0275  0.2046
 4948TIP3    H139039   4.498   5.138  18.318  1.0170  0.8139  0.1746
 4948TIP3    H239040   4.493   5.246  18.424  0.2190 -0.1062  1.0940
 4949TIP3   OH239041   0.265   0.134  17.250  0.0751  0.2246 -0.7056
 4949TIP3    H139042   0.276   0.198  17.179  3.4487  0.6005  0.0054
 4949TIP3    H239043   0.306   0.054  17.217 -0.0399 -0.1862  0.1220
 4950TIP3   OH239044   2.526   1.871  20.047 -0.2122  0.0475  0.4833
 4950TIP3    H139045   2.512   1.855  20.141 -0.1785  1.0247  0.6687
 4950TIP3    H239046   2.617   1.845  20.032 -0.1952 -0.0469  0.7350
 4951TIP3   OH239047   1.147   0.413  16.416  0.7692 -0.4259  0.0573
 4951TIP3    H139048   1.200   0.412  16.336  0.1480 -1.2609 -0.3616
 4951TIP3    H239049   1.078   0.477  16.398  1.7572  0.8630  0.7044
 4952TIP3   OH239050   3.270   6.644  18.187 -0.2447  1.1304  0.6262
 4952TIP3    H139051   3.245   6.608  18.102  0.7008 -0.3179  0.9312
 4952TIP3    H239052   3.192   6.689  18.218 -1.1327  0.2467 -0.2662
 4953TIP3   OH239053   0.312   3.788  19.334 -0.4447 -0.5572  0.2419
 4953TIP3    H139054   0.260   3.823  19.262 -0.0004  0.6351  0.4761
 4953TIP3    H239055   0.280   3.699  19.345 -1.3668 -0.3573 -0.6236
 4954TIP3   OH239056   3.417   1.637  18.745 -0.2174  0.1871 -0.3424
 4954TIP3    H139057   3.356   1.683  18.688 -0.4456  0.7763  0.3484
 4954TIP3    H239058   3.385   1.547  18.748 -2.4473  0.9233  1.7580
 4955TIP3   OH239059   2.628   2.133  16.526 -0.5536 -0.1372 -0.3652
 4955TIP3    H139060   2.707   2.096  16.487 -0.8999 -1.5101  0.1818
 4955TIP3    H239061   2.658   2.175  16.607 -0.6158 -2.4516  0.9290
 4956TIP3   OH239062   4.842   6.317  17.381  0.5487 -0.1484  0.5123
 4956TIP3    H139063   4.758   6.302  17.425  1.2837 -1.7666  1.4335
 4956TIP3    H239064   4.897   6.355  17.449  0.1429  2.5263 -0.5242
 4957TIP3   OH239065   1.926   1.221  18.202 -0.2767 -0.1301  0.4044
 4957TIP3    H139066   1.978   1.145  18.228 -1.1375 -0.8388  0.0936
 4957TIP3    H239067   1.846   1.214  18.254  0.3244  1.4985  1.6244
 4958TIP3   OH239068   4.746   1.284  18.613 -0.2527  0.1243 -0.4946
 4958TIP3    H139069   4.676   1.238  18.660 -0.7083  1.9257  0.7012
 4958TIP3    H239070   4.714   1.290  18.523 -2.1418  1.6632  0.1844
 4959TIP3   OH239071   2.065   2.472  19.309 -0.0035 -0.0589  0.5121
 4959TIP3    H139072   2.057   2.416  19.386 -1.9302 -0.9274 -0.2410
 4959TIP3    H239073   2.087   2.411  19.238  0.0183  0.4549  0.0709
 4960TIP3   OH239074   5.296   4.072  19.295 -0.0014  0.5415 -0.0206
 4960TIP3    H139075   5.322   4.021  19.372  0.4696  1.3174  0.3524
 4960TIP3    H239076   5.248   4.010  19.240 -0.1773 -0.0792  0.8071
 4961TIP3   OH239077   2.381   1.666  19.454 -0.7546 -0.0377 -0.3285
 4961TIP3    H139078   2.420   1.584  19.422 -0.4715  0.5955 -1.6535
 4961TIP3    H239079   2.312   1.637  19.513 -1.1591 -1.2768 -1.3503
 4962TIP3   OH239080   3.592   0.723  17.700 -0.3448 -0.1771  0.2606
 4962TIP3    H139081   3.653   0.781  17.745  0.3206 -1.6082  1.2988
 4962TIP3    H239082   3.631   0.711  17.613  0.4467 -0.4524  0.6468
 4963TIP3   OH239083   2.275   1.458  18.985 -0.5649 -0.1635  0.0309
 4963TIP3    H139084   2.198   1.438  18.932 -0.7584  0.1147  0.2036
 4963TIP3    H239085   2.256   1.421  19.071 -0.6325  0.1604  0.1567
 4964TIP3   OH239086   1.997   6.789  17.345 -0.1105  0.3057  0.8462
 4964TIP3    H139087   2.084   6.752  17.334 -0.6506 -0.2840 -2.3421
 4964TIP3    H239088   1.962   6.745  17.423  1.5116 -1.3223  0.7178
 4965TIP3   OH239089   1.256   6.566  17.494  0.1298 -0.0842  0.3391
 4965TIP3    H139090   1.188   6.543  17.557  1.1092  0.7566  1.7608
 4965TIP3    H239091   1.210   6.618  17.428 -0.7916 -0.4025  0.7053
 4966TIP3   OH239092   2.084   0.281  18.326  0.3031 -0.5186 -0.2655
 4966TIP3    H139093   2.001   0.321  18.350  0.1053 -0.9197 -0.2651
 4966TIP3    H239094   2.059   0.203  18.276  0.6963 -0.0861 -1.1566
 4967TIP3   OH239095   2.408   3.689  20.585 -0.3426  0.9286  0.7673
 4967TIP3    H139096   2.478   3.659  20.527 -1.2519 -1.8505  1.0091
 4967TIP3    H239097   2.424   3.783  20.594  3.0361  0.5103  0.3866
 4968TIP3   OH239098   1.900   5.605  18.214  0.1565 -0.1935 -0.7060
 4968TIP3    H139099   1.809   5.630  18.200  0.1704  0.9698  1.0719
 4968TIP3    H239100   1.949   5.658  18.151 -0.3271 -0.4632 -1.3259
 4969TIP3   OH239101   2.290   4.710  17.651 -0.2752  0.1554 -0.3672
 4969TIP3    H139102   2.283   4.668  17.736  1.4951  0.8530  0.1756
 4969TIP3    H239103   2.383   4.702  17.628 -0.3845  1.4959 -1.4324
 4970TIP3   OH239104   1.558   5.328  18.727  0.2017 -0.4659 -0.4536
 4970TIP3    H139105   1.623   5.325  18.657  0.9850 -0.7175  0.2729
 4970TIP3    H239106   1.480   5.288  18.688  1.0006 -1.7476 -0.8025
 4971TIP3   OH239107   3.576   0.056  17.704  0.4829  0.7755 -0.7546
 4971TIP3    H139108   3.653   0.031  17.753 -1.3495 -1.0608  1.4125
 4971TIP3    H239109   3.543   0.134  17.748 -1.5062 -1.2219  1.5574
 4972TIP3   OH239110   4.532   4.666  18.023  0.7605  0.4753 -0.2318
 4972TIP3    H139111   4.587   4.641  17.949 -0.5426  0.1012 -1.1106
 4972TIP3    H239112   4.530   4.762  18.020  0.1980  0.4468 -1.0899
 4973TIP3   OH239113   2.371   4.274  19.884 -0.1241 -0.4497  0.5303
 4973TIP3    H139114   2.385   4.183  19.857 -1.5088 -0.3983 -0.4546
 4973TIP3    H239115   2.277   4.288  19.876 -0.0343  0.8745  1.3649
 4974TIP3   OH239116   6.394   1.373  19.896  0.5551  0.2307 -0.7548
 4974TIP3    H139117   6.320   1.426  19.925  1.4009  1.3848 -0.6132
 4974TIP3    H239118   6.471   1.421  19.928  1.3865 -0.4912 -1.6208
 4975TIP3   OH239119   5.586   3.993  18.380 -0.3139  0.5066 -0.5022
 4975TIP3    H139120   5.592   4.002  18.476  0.7181  1.7068 -0.6488
 4975TIP3    H239121   5.606   3.901  18.364 -0.7920  0.2189  0.4515
 4976TIP3   OH239122   5.720   1.449  16.272  0.2452  0.2865  0.7730
 4976TIP3    H139123   5.723   1.540  16.242 -0.6900 -0.0132 -0.2558
 4976TIP3    H239124   5.757   1.398  16.200  0.1343 -0.2239  1.0710
 4977TIP3   OH239125   1.009   4.250  17.720  0.0738 -0.2840  0.2462
 4977TIP3    H139126   1.094   4.229  17.758  1.1366  0.7968 -1.3836
 4977TIP3    H239127   0.990   4.175  17.663  1.2506  0.5760 -1.3833
 4978TIP3   OH239128   1.776   6.083  19.201 -0.6218 -0.4259 -0.4025
 4978TIP3    H139129   1.832   6.016  19.161  0.1513  0.1447 -0.3121
 4978TIP3    H239130   1.699   6.086  19.145 -0.1616 -0.5966 -1.0674
 4979TIP3   OH239131   5.720   1.752  19.770  0.8210 -0.3492 -0.3513
 4979TIP3    H139132   5.697   1.845  19.774  0.0102 -0.5554  0.2941
 4979TIP3    H239133   5.636   1.708  19.756  1.2276 -0.9722 -0.8650
 4980TIP3   OH239134   2.950   1.422  17.672 -0.3058  0.5712  0.1948
 4980TIP3    H139135   3.017   1.467  17.722 -0.7670  3.2302 -1.4130
 4980TIP3    H239136   2.949   1.465  17.587 -2.0013 -1.3862 -0.8907
 4981TIP3   OH239137   2.248   4.203  17.373 -0.1147  0.1045  0.6142
 4981TIP3    H139138   2.326   4.257  17.382  0.9434 -1.4180  0.9522
 4981TIP3    H239139   2.211   4.228  17.288  0.5675  1.0640  0.5923
 4982TIP3   OH239140   1.166   6.422  19.767  0.2845  0.3201 -0.2780
 4982TIP3    H139141   1.118   6.450  19.689 -0.7464 -2.9119 -0.9593
 4982TIP3    H239142   1.135   6.480  19.836 -0.6399  1.6862 -1.7687
 4983TIP3   OH239143   2.418   2.791  16.773 -0.1044  0.6526 -0.0829
 4983TIP3    H139144   2.410   2.737  16.852  2.5533  1.6340  0.9599
 4983TIP3    H239145   2.505   2.771  16.739 -0.5086  1.5791 -1.7710
 4984TIP3   OH239146   5.675   4.880  16.728  0.1038 -0.2777 -0.0057
 4984TIP3    H139147   5.605   4.858  16.666  0.0148 -0.0980  0.0315
 4984TIP3    H239148   5.743   4.814  16.712 -0.8039 -1.5464  1.1656
 4985TIP3   OH239149   5.443   5.187  18.638 -0.0352 -0.0312  0.4425
 4985TIP3    H139150   5.474   5.120  18.577 -1.0883  0.1762 -0.3593
 4985TIP3    H239151   5.402   5.253  18.582 -0.7600  0.3104  1.3468
 4986TIP3   OH239152   6.303   1.816  19.126  0.2095  0.1860  0.3741
 4986TIP3    H139153   6.288   1.899  19.171  1.5962  0.0887  1.0872
 4986TIP3    H239154   6.398   1.807  19.124  0.1517 -0.3900 -1.5788
 4987TIP3   OH239155   6.074   3.410  19.197 -0.0291 -0.0790 -0.2663
 4987TIP3    H139156   5.994   3.358  19.192 -0.1561  0.1579 -0.7545
 4987TIP3    H239157   6.082   3.434  19.290  0.1101 -1.0773  0.0001
 4988TIP3   OH239158   6.190   1.551  17.765 -0.5392  0.4197  0.0366
 4988TIP3    H139159   6.279   1.584  17.777 -0.3497  0.0939 -0.4693
 4988TIP3    H239160   6.169   1.571  17.674 -0.2768 -1.1823 -0.4119
 4989TIP3   OH239161   3.150   0.093  18.922 -0.1963  0.4610  0.0827
 4989TIP3    H139162   3.227   0.087  18.865 -0.6126 -2.1656 -0.3230
 4989TIP3    H239163   3.076   0.079  18.864 -1.0509  2.8969  0.4881
 4990TIP3   OH239164   4.304   1.195  17.535 -0.3385  0.1367 -0.5012
 4990TIP3    H139165   4.315   1.144  17.616 -0.8657  1.1787  0.2471
 4990TIP3    H239166   4.362   1.152  17.472  2.4591  1.0394  1.2322
 4991TIP3   OH239167   6.730   1.157  16.909 -0.3426  0.6624  0.3617
 4991TIP3    H139168   6.655   1.156  16.968  0.1811  1.6548  1.0680
 4991TIP3    H239169   6.802   1.122  16.962 -0.2752 -0.2347 -0.2931
 4992TIP3   OH239170   0.112   4.245  18.117 -0.4537  0.4833  0.4465
 4992TIP3    H139171   0.141   4.301  18.046  1.7902 -0.2376  0.7154
 4992TIP3    H239172   0.132   4.156  18.087  0.0027  0.1321  1.7460
 4993TIP3   OH239173   1.744   1.173  18.410 -0.0830  0.5167 -0.0784
 4993TIP3    H139174   1.656   1.210  18.417 -0.3821 -0.0823 -0.6246
 4993TIP3    H239175   1.789   1.205  18.488 -0.5723  1.3783 -0.1359
 4994TIP3   OH239176   5.169   3.842  17.525  0.1066 -0.1530  0.1387
 4994TIP3    H139177   5.216   3.864  17.606 -1.0089 -1.9302  1.3318
 4994TIP3    H239178   5.163   3.747  17.526 -1.9832 -0.0797 -0.8511
 4995TIP3   OH239179   5.460   1.590  19.444 -0.3196 -0.4423 -0.0804
 4995TIP3    H139180   5.416   1.626  19.367 -0.1435  0.6449  0.3131
 4995TIP3    H239181   5.541   1.552  19.410 -0.6721 -0.7770 -0.5508
 4996TIP3   OH239182   6.647   1.591  16.887 -0.1775 -0.5504 -0.6305
 4996TIP3    H139183   6.670   1.682  16.865 -0.1630 -0.0796  1.1826
 4996TIP3    H239184   6.554   1.584  16.867 -0.4377  0.2186  0.2294
 4997TIP3   OH239185   2.856   3.861  17.574 -0.2558 -0.2521 -0.1162
 4997TIP3    H139186   2.874   3.769  17.557 -0.6993 -0.6137  1.2556
 4997TIP3    H239187   2.942   3.900  17.588 -0.0634 -0.4351 -0.7388
 4998TIP3   OH239188   0.662   0.678  19.233  0.1079  0.2361 -0.3820
 4998TIP3    H139189   0.653   0.764  19.191  2.0757  0.3258 -0.7164
 4998TIP3    H239190   0.755   0.658  19.226  0.1419 -0.7644  2.0339
 4999TIP3   OH239191   5.724   4.978  19.186 -0.0811  0.2312  0.2466
 4999TIP3    H139192   5.666   5.004  19.258 -0.5341  1.7954 -0.6504
 4999TIP3    H239193   5.734   5.057  19.133  1.5132 -0.4702 -0.5626
 5000TIP3   OH239194   2.309   6.034  18.197  0.3774  0.3051  0.0443
 5000TIP3    H139195   2.348   6.016  18.112 -0.1797 -1.0881  0.0478
 5000TIP3    H239196   2.315   5.951  18.244 -1.8860  0.2168  0.3103
 5001TIP3   OH239197   4.148   2.526  19.828  0.1257  0.0259  0.3828
 5001TIP3    H139198   4.159   2.431  19.825 -2.5950 -0.3468 -0.5811
 5001TIP3    H239199   4.235   2.559  19.853  1.0785 -2.6883  1.0543
 5002TIP3   OH239200   4.543   1.063  19.096  0.1359  0.0488  0.1057
 5002TIP3    H139201   4.495   1.098  19.021 -3.0079 -1.3337  1.3320
 5002TIP3    H239202   4.578   1.140  19.141  0.9101  0.9683 -1.9357
 5003TIP3   OH239203   0.089   1.148  19.094 -0.1861  0.0198 -0.0291
 5003TIP3    H139204   0.168   1.100  19.068 -0.6293 -1.1532  0.7221
 5003TIP3    H239205   0.034   1.146  19.016  0.1241 -0.0198 -0.2508
 5004TIP3   OH239206   5.654   3.508  19.755  0.3932  0.5306  0.1639
 5004TIP3    H139207   5.649   3.594  19.712 -1.0527  0.7074  0.6334
 5004TIP3    H239208   5.665   3.446  19.683 -0.0073  0.9952 -0.3087
 5005TIP3   OH239209   5.739   5.763  18.449  0.1742 -0.5005 -0.0024
 5005TIP3    H139210   5.800   5.719  18.389 -0.6781 -0.2155 -1.1127
 5005TIP3    H239211   5.796   5.812  18.509  1.1039 -2.0922  0.4905
 5006TIP3   OH239212   6.194   4.099  17.412 -0.1709 -0.0877 -0.0888
 5006TIP3    H139213   6.172   4.192  17.407 -0.7187 -0.1824  0.4500
 5006TIP3    H239214   6.236   4.088  17.497  0.2864 -0.2588 -0.3295
 5007TIP3   OH239215   1.844   6.083  18.380 -0.1005 -0.0417 -0.5209
 5007TIP3    H139216   1.802   6.151  18.433 -0.4554  0.6405 -1.6376
 5007TIP3    H239217   1.915   6.049  18.436 -1.5688 -0.6290  1.0805
 5008TIP3   OH239218   2.301   0.720  19.603 -0.1846 -0.0185  0.5308
 5008TIP3    H139219   2.238   0.715  19.531 -0.6428 -1.9111  1.0147
 5008TIP3    H239220   2.246   0.737  19.680  0.2434  1.4002  0.5569
 5009TIP3   OH239221   5.867   1.166  17.517 -0.4482 -0.3095 -0.0111
 5009TIP3    H139222   5.946   1.188  17.566 -0.5546 -0.8890  0.4244
 5009TIP3    H239223   5.807   1.130  17.583 -0.8604 -0.4109 -0.4379
 5010TIP3   OH239224   4.961   1.670  17.445  0.1321 -0.0052  0.2465
 5010TIP3    H139225   4.937   1.630  17.528 -1.3474  0.2788 -0.0086
 5010TIP3    H239226   5.050   1.640  17.428 -0.0043 -1.0831  1.3125
 5011TIP3   OH239227   3.216   2.829  19.889 -0.1701  0.7196 -0.0139
 5011TIP3    H139228   3.207   2.843  19.983  0.4534  1.3210 -0.0403
 5011TIP3    H239229   3.218   2.917  19.851 -0.0860  0.4890 -0.5557
 5012TIP3   OH239230   5.569   2.956  17.516  0.0964 -0.4059  0.2411
 5012TIP3    H139231   5.633   2.936  17.448  2.5809 -1.0895  2.5721
 5012TIP3    H239232   5.556   2.874  17.562 -0.0087  0.3990  1.7215
 5013TIP3   OH239233   6.384   1.503  19.465 -0.2090  0.0654  0.0384
 5013TIP3    H139234   6.348   1.550  19.541  0.0615  0.7500 -0.2523
 5013TIP3    H239235   6.307   1.482  19.412 -0.4097 -0.4865  0.5263
 5014TIP3   OH239236   6.220   0.751  18.129  0.0404 -0.5538  0.0868
 5014TIP3    H139237   6.268   0.780  18.207  2.7375 -2.5947 -0.6493
 5014TIP3    H239238   6.144   0.705  18.164  1.2316 -1.5122  1.5880
 5015TIP3   OH239239   5.566   5.196  16.424 -0.0769 -0.2813 -0.2221
 5015TIP3    H139240   5.505   5.259  16.464 -0.4689 -1.5304  1.2472
 5015TIP3    H239241   5.613   5.247  16.358 -0.6715  1.4443  0.6152
 5016TIP3   OH239242   5.895   1.414  16.073  0.4428  0.3872  0.2723
 5016TIP3    H139243   5.972   1.469  16.091  2.0829 -1.4384 -0.7906
 5016TIP3    H239244   5.924   1.353  16.006 -1.4328 -1.5052  1.0641
 5017TIP3   OH239245   0.401   5.013  19.701  0.6480 -0.2385 -0.6197
 5017TIP3    H139246   0.477   4.965  19.667  1.7431  1.0448 -0.0668
 5017TIP3    H239247   0.439   5.084  19.753 -0.8925  1.3418 -1.5356
 5018TIP3   OH239248   1.917   1.698  17.726  0.1222 -0.2753  0.0616
 5018TIP3    H139249   1.971   1.624  17.754  3.0568  2.2526  1.7782
 5018TIP3    H239250   1.923   1.760  17.799 -2.5230  1.5160 -1.1143
 5019TIP3   OH239251   5.857   1.943  17.691  0.0295 -0.3485  0.2212
 5019TIP3    H139252   5.779   1.889  17.699  0.3035 -0.8985 -0.6886
 5019TIP3    H239253   5.870   1.952  17.597  0.9200 -0.0495  0.3668
 5020TIP3   OH239254   5.204   2.238  17.603 -0.2186  0.1102  0.5800
 5020TIP3    H139255   5.141   2.309  17.589  0.6443  0.8104  0.0677
 5020TIP3    H239256   5.285   2.283  17.627  0.1274 -0.7602  1.0797
 5021TIP3   OH239257   6.782   0.607  19.906 -0.6643 -0.3985  0.0466
 5021TIP3    H139258   6.775   0.607  20.001 -0.5423  0.2786  0.0574
 5021TIP3    H239259   6.694   0.626  19.874 -0.3289  1.3105  0.0677
 5022TIP3   OH239260   4.419   2.811  19.736  0.2646 -0.3095 -0.0558
 5022TIP3    H139261   4.368   2.748  19.786  2.1559 -0.9251  1.2024
 5022TIP3    H239262   4.378   2.812  19.649 -2.0545 -0.4685  0.9761
 5023TIP3   OH239263   4.337   3.872  19.699  0.7492  0.2972  0.5873
 5023TIP3    H139264   4.412   3.928  19.720  1.2569 -0.0113 -0.3351
 5023TIP3    H239265   4.273   3.891  19.767  1.0037  1.8309  0.4276
 5024TIP3   OH239266   3.762   6.617  18.628 -0.3049 -0.7384  0.6873
 5024TIP3    H139267   3.770   6.680  18.700  0.3686  0.3600 -0.3027
 5024TIP3    H239268   3.782   6.533  18.667  0.3904 -0.1159  1.7193
 5025TIP3   OH239269   4.175   1.674  18.701 -0.4256  0.2907 -0.2459
 5025TIP3    H139270   4.113   1.744  18.718 -1.3995 -0.8323  1.0054
 5025TIP3    H239271   4.138   1.626  18.627 -0.4196  0.3247 -0.2711
 5026TIP3   OH239272   5.686   6.194  16.660  0.0700  0.4744 -0.4953
 5026TIP3    H139273   5.770   6.201  16.705 -0.3764 -0.1713  0.4607
 5026TIP3    H239274   5.697   6.119  16.601  0.2561  0.5725 -0.5860
 5027TIP3   OH239275   0.796   3.875  18.596  0.1937 -0.3557  0.2093
 5027TIP3    H139276   0.778   3.969  18.598 -0.7749 -0.4955 -1.0560
 5027TIP3    H239277   0.763   3.843  18.681 -0.0811  0.3427  0.3711
 5028TIP3   OH239278   3.652   6.050  18.784 -0.1336  0.5273 -0.0523
 5028TIP3    H139279   3.562   6.065  18.813  0.0989 -0.9333  1.5997
 5028TIP3    H239280   3.704   6.056  18.864  0.9162 -0.9663 -0.5899
 5029TIP3   OH239281   4.727   4.562  17.324  0.6071  0.1785  1.2306
 5029TIP3    H139282   4.753   4.484  17.274 -2.7587 -1.2924  1.5130
 5029TIP3    H239283   4.700   4.527  17.409  0.1292  1.8354  1.7937
 5030TIP3   OH239284   2.403   4.742  18.475 -0.2082  0.4427  0.2148
 5030TIP3    H139285   2.378   4.810  18.537 -2.2643  0.0198 -0.0644
 5030TIP3    H239286   2.401   4.786  18.390 -0.7054  0.2600  0.1253
 5031TIP3   OH239287   0.300   2.726  16.159 -0.6589  0.8764  0.0609
 5031TIP3    H139288   0.380   2.754  16.205 -1.1259  0.3414  1.2212
 5031TIP3    H239289   0.331   2.665  16.092 -0.0845  0.7281  0.4526
 5032TIP3   OH239290   1.313   2.328  19.561  0.4231 -0.1815  0.0885
 5032TIP3    H139291   1.357   2.339  19.477 -1.6059  0.4685 -0.9182
 5032TIP3    H239292   1.225   2.362  19.548 -0.8039 -2.4473  1.7050
 5033TIP3   OH239293   3.279   5.480  19.242  0.0486 -0.3559  0.8278
 5033TIP3    H139294   3.358   5.516  19.283  1.0679  0.3765 -1.6101
 5033TIP3    H239295   3.276   5.389  19.272  0.9807 -0.0060  2.0987
 5034TIP3   OH239296   2.948   5.072  19.942 -0.5743  0.0498  0.6280
 5034TIP3    H139297   2.995   5.143  19.899 -0.2222 -0.4259  0.2128
 5034TIP3    H239298   2.975   4.993  19.895 -1.5381 -0.2738  0.5833
 5035TIP3   OH239299   6.281   4.327  17.949  0.7216  0.1306  0.1005
 5035TIP3    H139300   6.248   4.269  18.018  1.8667  1.1508  1.5613
 5035TIP3    H239301   6.209   4.388  17.933  0.6508  0.2318  0.7916
 5036TIP3   OH239302   6.750   4.922  18.466 -0.7729 -0.1401  0.2252
 5036TIP3    H139303   6.672   4.885  18.507 -2.7632  1.8432 -1.4956
 5036TIP3    H239304   6.737   4.906  18.372 -0.2946  2.1699 -0.3071
 5037TIP3   OH239305   0.422   0.985  16.681  0.4015  0.2643 -0.1170
 5037TIP3    H139306   0.350   1.048  16.688  2.3707  2.7849 -1.1034
 5037TIP3    H239307   0.402   0.918  16.746 -1.4768  2.2480  1.4805
 5038TIP3   OH239308   5.610   1.777  17.744 -0.3901 -0.8331  0.5888
 5038TIP3    H139309   5.598   1.683  17.729 -2.0917 -0.5936  0.1425
 5038TIP3    H239310   5.545   1.798  17.811 -0.0044  0.0256  0.6944
 5039TIP3   OH239311   4.446   4.858  19.489 -0.1137  0.1076  0.3801
 5039TIP3    H139312   4.524   4.846  19.435 -0.3663 -0.4942  0.1386
 5039TIP3    H239313   4.435   4.774  19.534 -2.5443 -1.0643 -2.1597
 5040TIP3   OH239314   0.542   3.760  17.344 -0.6368 -0.2508 -0.0056
 5040TIP3    H139315   0.487   3.705  17.287 -0.9823 -0.3560  0.4237
 5040TIP3    H239316   0.592   3.697  17.396 -0.2351 -0.1539 -0.2715
 5041TIP3   OH239317   6.239   0.362  18.434 -0.1347  0.3610 -0.3414
 5041TIP3    H139318   6.314   0.308  18.407  0.5273  1.0417  0.0697
 5041TIP3    H239319   6.202   0.315  18.508 -0.7716 -0.5183 -1.1987
 5042TIP3   OH239320   0.680   6.349  16.491  0.5405 -0.7229 -0.0475
 5042TIP3    H139321   0.775   6.358  16.486  0.4433 -0.4194 -1.9603
 5042TIP3    H239322   0.646   6.423  16.441 -0.6432 -1.8279 -0.9579
 5043TIP3   OH239323   2.797   4.944  18.132 -0.2079 -0.4931 -0.2836
 5043TIP3    H139324   2.821   4.952  18.224  0.2451  0.8224 -0.4903
 5043TIP3    H239325   2.727   5.008  18.120 -0.4784 -0.8788 -0.7771
 5044TIP3   OH239326   5.863   1.751  16.447 -0.2417  0.0554 -0.3968
 5044TIP3    H139327   5.950   1.717  16.425 -0.8524 -0.6245 -1.8288
 5044TIP3    H239328   5.809   1.732  16.371 -2.3127 -1.8072  1.3732
 5045TIP3   OH239329   3.234   2.900  17.423  0.3369 -0.2494 -0.4801
 5045TIP3    H139330   3.234   2.994  17.441 -3.1406  0.1106 -1.5927
 5045TIP3    H239331   3.313   2.884  17.372  1.3399  1.8992  0.2974
 5046TIP3   OH239332   2.487   0.913  19.561  0.0461  0.4162  0.1410
 5046TIP3    H139333   2.408   0.860  19.572  0.0476 -0.0745 -1.7803
 5046TIP3    H239334   2.552   0.852  19.529  1.2679  0.8001  1.8058
 5047TIP3   OH239335   2.563   1.381  17.365  0.3599  0.0787 -0.2583
 5047TIP3    H139336   2.473   1.406  17.342 -0.5199 -2.0297  0.6423
 5047TIP3    H239337   2.613   1.392  17.284 -0.4826  2.1332 -0.5469
 5048TIP3   OH239338   5.704   0.003  19.179 -0.5305 -0.6891  0.5711
 5048TIP3    H139339   5.692   0.092  19.146 -0.0424 -0.3579  1.2785
 5048TIP3    H239340   5.625  -0.015  19.229 -1.0974 -1.0483 -0.4125
 5049TIP3   OH239341   5.635   4.874  18.048  0.1939 -0.1632 -0.3924
 5049TIP3    H139342   5.576   4.950  18.044 -1.3801 -1.3257 -0.1547
 5049TIP3    H239343   5.710   4.899  17.994 -1.2169  0.7681 -2.0033
 5050TIP3   OH239344   3.129   0.883  19.372 -0.1813 -0.2517  0.5829
 5050TIP3    H139345   3.111   0.822  19.301 -2.1442 -0.3147  1.0635
 5050TIP3    H239346   3.089   0.843  19.450 -0.3241  0.9818  1.1793
 5051TIP3   OH239347   3.657   5.128  19.250 -0.1487  0.0020  0.1572
 5051TIP3    H139348   3.708   5.084  19.318 -0.1511 -0.1897  0.0322
 5051TIP3    H239349   3.687   5.090  19.168 -1.0017 -0.6248  0.1237
 5052TIP3   OH239350   6.120   5.284  18.556 -0.2205 -0.0593 -0.1631
 5052TIP3    H139351   6.108   5.196  18.521 -1.2678 -0.2328  0.6066
 5052TIP3    H239352   6.215   5.299  18.552  0.3074 -2.1887  1.9505
 5053TIP3   OH239353   0.771   5.879  17.757 -0.3857 -0.4128  0.4384
 5053TIP3    H139354   0.687   5.901  17.716 -1.3622 -1.6747  1.6729
 5053TIP3    H239355   0.837   5.908  17.693 -1.7345  0.5788 -0.5731
 5054TIP3   OH239356   2.661   3.427  18.389  0.3420  0.3250 -0.3162
 5054TIP3    H139357   2.649   3.388  18.476  1.3636  0.0928 -0.2711
 5054TIP3    H239358   2.639   3.356  18.328 -0.7826  0.6131 -0.2613
 5055TIP3   OH239359   1.713   4.795  17.049 -0.3616  0.3002 -0.3162
 5055TIP3    H139360   1.726   4.847  16.970  0.6697  2.1898  1.0101
 5055TIP3    H239361   1.634   4.831  17.088  0.9062  1.6659  1.1274
 5056TIP3   OH239362   2.394   4.578  18.792  0.4556 -0.1227  0.4202
 5056TIP3    H139363   2.460   4.510  18.778  1.5449  1.0625 -0.3888
 5056TIP3    H239364   2.433   4.657  18.756 -1.1445  0.7643  0.5559
 5057TIP3   OH239365   2.086   3.790  18.641 -0.0571  0.1772 -0.2414
 5057TIP3    H139366   2.078   3.802  18.736  1.2756 -1.0108  0.0401
 5057TIP3    H239367   2.145   3.860  18.614 -0.9229  0.8979 -0.3080
 5058TIP3   OH239368   3.399   6.489  19.854  0.1640  0.2217  0.4994
 5058TIP3    H139369   3.308   6.460  19.858 -0.3350  1.5264 -0.6894
 5058TIP3    H239370   3.413   6.514  19.763  0.9727  2.2777  1.1310
 5059TIP3   OH239371   0.001   1.283  18.827 -0.4833  0.0235  0.4369
 5059TIP3    H139372  -0.079   1.280  18.775 -1.4939 -1.6252  1.9710
 5059TIP3    H239373   0.070   1.253  18.768 -1.2766 -0.0790 -0.4494
 5060TIP3   OH239374   4.177   5.710  18.842  0.4575 -0.0781 -0.0575
 5060TIP3    H139375   4.201   5.722  18.750 -0.2875  0.4824 -0.1860
 5060TIP3    H239376   4.108   5.774  18.858 -0.1828 -0.9022  0.5950
 5061TIP3   OH239377   1.014   2.482  17.957 -0.3632 -0.3220  0.2144
 5061TIP3    H139378   0.964   2.476  17.876  1.3034 -0.0333 -0.8990
 5061TIP3    H239379   1.015   2.575  17.978  0.5703 -0.1697 -0.3965
 5062TIP3   OH239380   1.249   4.888  19.372  0.1839 -0.0207 -0.4232
 5062TIP3    H139381   1.331   4.909  19.327  0.1563 -0.1546 -0.5378
 5062TIP3    H239382   1.236   4.794  19.355  1.4014 -0.6855  1.8649
 5063TIP3   OH239383   2.678   3.177  19.019 -0.3581  0.3173 -0.5324
 5063TIP3    H139384   2.683   3.271  19.036 -0.0151  0.2250 -0.1104
 5063TIP3    H239385   2.763   3.155  18.981 -0.3317  0.1294 -0.3687
 5064TIP3   OH239386   2.814   6.519  19.056  0.1577 -0.3351  0.1691
 5064TIP3    H139387   2.905   6.521  19.026 -0.2350  0.4483 -1.0283
 5064TIP3    H239388   2.821   6.508  19.151  1.4464 -2.9495 -0.1399
 5065TIP3   OH239389   6.288   5.782  16.919 -0.5743  0.2947  0.3426
 5065TIP3    H139390   6.383   5.788  16.919 -0.4244 -1.4495  0.5209
 5065TIP3    H239391   6.268   5.726  16.844 -1.4580  0.5596  0.3709
 5066TIP3   OH239392   1.384   1.696  17.964  0.4302 -0.7719 -0.1454
 5066TIP3    H139393   1.433   1.626  17.921 -1.3299 -2.2987  0.2088
 5066TIP3    H239394   1.368   1.663  18.053 -0.7608 -0.0992 -0.0930
 5067TIP3   OH239395   5.149   4.959  18.496  0.4559  0.6111  0.3342
 5067TIP3    H139396   5.165   5.007  18.577  2.2630  0.2783  0.2308
 5067TIP3    H239397   5.126   5.026  18.432 -0.0297  0.9822  0.8957
 5068TIP3   OH239398   6.536   3.320  18.792 -0.0081 -0.2202  0.2758
 5068TIP3    H139399   6.456   3.373  18.787 -0.5476 -0.8421  1.7599
 5068TIP3    H239400   6.594   3.358  18.726 -0.9946  1.1455  0.1451
 5069TIP3   OH239401   2.826   0.845  19.163 -0.4741  0.0055 -0.2577
 5069TIP3    H139402   2.890   0.775  19.163 -0.5294 -0.0611 -1.1977
 5069TIP3    H239403   2.865   0.915  19.215  0.5766  0.1488 -1.2100
 5070TIP3   OH239404   2.429   3.869  17.169  0.3042  0.0141 -0.6835
 5070TIP3    H139405   2.397   3.926  17.099 -0.6168 -2.1938 -2.1788
 5070TIP3    H239406   2.349   3.830  17.206  0.9488 -1.9476 -1.2346
 5071TIP3   OH239407   5.726   2.543  20.100  0.3264 -0.7247 -0.1081
 5071TIP3    H139408   5.781   2.611  20.061 -0.7224  0.5968  0.6172
 5071TIP3    H239409   5.683   2.501  20.026  0.0003  0.2857 -0.5102
 5072TIP3   OH239410   3.771   2.688  17.108 -0.0353  0.4281 -0.3692
 5072TIP3    H139411   3.698   2.666  17.165 -0.1511 -0.7272 -0.9367
 5072TIP3    H239412   3.772   2.619  17.042  0.0872  1.7425 -1.7864
 5073TIP3   OH239413   5.295   3.198  17.543 -0.0646 -0.1041  0.4964
 5073TIP3    H139414   5.343   3.157  17.471 -1.1381 -2.0281  0.8032
 5073TIP3    H239415   5.247   3.270  17.502 -0.3040 -0.8842 -0.6471
 5074TIP3   OH239416   0.011   1.915  18.050 -0.2481 -0.6157 -0.1483
 5074TIP3    H139417   0.103   1.900  18.026 -0.1480 -2.8784  1.2873
 5074TIP3    H239418   0.009   2.004  18.084  1.1475 -0.0764 -1.3888
 5075TIP3   OH239419   6.298   0.015  18.576  0.0421 -0.1065 -0.2238
 5075TIP3    H139420   6.211   0.051  18.595 -0.2077 -0.9018  0.1711
 5075TIP3    H239421   6.285  -0.038  18.497  0.2903  0.2108 -0.4794
 5076TIP3   OH239422   4.544   6.640  18.092 -0.1484  0.3224 -0.1254
 5076TIP3    H139423   4.473   6.668  18.035 -1.8036 -0.4587  1.4487
 5076TIP3    H239424   4.540   6.544  18.091 -0.1885  0.2927  1.2281
 5077TIP3   OH239425   4.830   0.491  20.010 -0.2178 -0.1496 -0.3106
 5077TIP3    H139426   4.737   0.472  20.005 -0.3653  0.7583 -2.6720
 5077TIP3    H239427   4.839   0.578  19.970  1.6189 -0.1171  0.0499
 5078TIP3   OH239428   6.241   4.818  18.481 -0.2140 -0.1497 -0.5754
 5078TIP3    H139429   6.177   4.798  18.549  2.1052 -2.2167  1.1954
 5078TIP3    H239430   6.232   4.912  18.466 -1.4626  0.2087  1.9405
 5079TIP3   OH239431   1.487   3.554  18.048 -0.2019 -0.0581  0.0898
 5079TIP3    H139432   1.536   3.540  18.129  0.3932 -2.8447 -0.6693
 5079TIP3    H239433   1.395   3.551  18.075 -0.0210  0.7242  0.8603
 5080TIP3   OH239434   6.202   2.601  19.581 -0.0612  0.0502 -0.0023
 5080TIP3    H139435   6.287   2.619  19.541  0.1420  1.7431  1.0803
 5080TIP3    H239436   6.138   2.645  19.525  0.0167  0.6111  0.3340
 5081TIP3   OH239437   0.675   3.106  19.414 -0.1951 -0.4953  0.1621
 5081TIP3    H139438   0.761   3.065  19.425 -0.7986 -2.2933 -1.3048
 5081TIP3    H239439   0.628   3.085  19.494  0.4551 -0.1580  0.6482
 5082TIP3   OH239440   3.773   0.670  17.487 -0.7551  0.4869 -0.6111
 5082TIP3    H139441   3.779   0.633  17.398 -1.3971  0.7346 -0.7668
 5082TIP3    H239442   3.863   0.681  17.515 -0.5431 -0.7058 -0.7676
 5083TIP3   OH239443   6.631   1.499  19.951  0.0788  0.0062  0.2257
 5083TIP3    H139444   6.696   1.495  19.881  0.3412  0.3333  0.4435
 5083TIP3    H239445   6.616   1.593  19.963  1.4958  0.0803  1.9249
 5084TIP3   OH239446   2.571   0.899  18.259 -0.5482  0.0418 -0.1963
 5084TIP3    H139447   2.615   0.833  18.312  1.1932  0.7018 -0.7766
 5084TIP3    H239448   2.610   0.891  18.172  0.0151  2.0956 -0.1764
 5085TIP3   OH239449   1.596   4.935  16.806  0.4551  0.4115 -0.5509
 5085TIP3    H139450   1.569   4.931  16.715 -0.4601  0.3725 -0.2836
 5085TIP3    H239451   1.689   4.958  16.802  0.1104  1.8041 -1.4528
 5086TIP3   OH239452   1.191   4.120  17.873 -0.5103 -0.3358 -0.1374
 5086TIP3    H139453   1.286   4.118  17.886 -0.5297  1.0480  0.4278
 5086TIP3    H239454   1.157   4.157  17.955 -1.4817 -0.2036 -0.5884
 5087TIP3   OH239455   6.635   2.025  18.301  0.0176  0.2808  0.7825
 5087TIP3    H139456   6.622   1.988  18.388 -2.1864  0.0981  0.4323
 5087TIP3    H239457   6.606   1.956  18.241  3.5469 -0.4522 -0.2812
 5088TIP3   OH239458   2.578   1.539  18.237  0.2504  0.3087 -0.1525
 5088TIP3    H139459   2.653   1.492  18.273  1.3958  2.5139  0.5437
 5088TIP3    H239460   2.612   1.583  18.159 -0.2301  1.5260  0.3011
 5089TIP3   OH239461   6.631   2.998  16.702  0.1461  0.5349  0.8024
 5089TIP3    H139462   6.669   3.063  16.643  0.4632  0.6622  1.1400
 5089TIP3    H239463   6.573   3.049  16.759  0.3199  0.5076  1.0044
 5090TIP3   OH239464   2.795   3.626  18.249  0.8606 -0.1254 -0.3993
 5090TIP3    H139465   2.859   3.624  18.320 -0.3281  0.5372  0.7264
 5090TIP3    H239466   2.735   3.554  18.269  2.0910 -1.8098 -2.3290
 5091TIP3   OH239467   0.266   1.179  20.023  0.1709 -0.4465  1.0532
 5091TIP3    H139468   0.189   1.224  19.989  1.4745  1.1915  0.0983
 5091TIP3    H239469   0.234   1.092  20.049 -2.1112  0.4276  1.4051
 5092TIP3   OH239470   0.131   3.642  17.741 -0.1680 -0.1794 -0.2856
 5092TIP3    H139471   0.045   3.625  17.702 -0.7298  2.2672 -0.2413
 5092TIP3    H239472   0.186   3.665  17.666 -0.5960  2.0407  0.0286
 5093TIP3   OH239473   3.885   4.151  19.013  0.1829 -0.2067  0.5866
 5093TIP3    H139474   3.902   4.244  18.996 -0.8783  0.0925  1.0564
 5093TIP3    H239475   3.892   4.109  18.928 -0.6803  0.5413  0.1297
 5094TIP3   OH239476   4.344   5.895  16.215  0.2354 -0.5873 -0.0661
 5094TIP3    H139477   4.308   5.823  16.266  0.4668  0.1834  1.2556
 5094TIP3    H239478   4.437   5.874  16.206  0.1340 -0.8784 -0.4530
 5095TIP3   OH239479   5.526   2.760  17.693  0.2409 -0.3563  0.6160
 5095TIP3    H139480   5.463   2.765  17.765  0.6295 -2.7302  1.2238
 5095TIP3    H239481   5.552   2.667  17.691  0.4933 -0.3171 -2.3726
 5096TIP3   OH239482   3.963   2.786  17.281  0.0756 -0.2073 -0.5692
 5096TIP3    H139483   4.012   2.853  17.233 -0.1780  0.2087 -0.2503
 5096TIP3    H239484   3.884   2.772  17.229  0.2624 -0.4670 -0.7844
 5097TIP3   OH239485   4.914   5.636  19.550 -0.6718 -0.3893  0.3112
 5097TIP3    H139486   4.822   5.624  19.527 -0.5219 -1.8080  0.3683
 5097TIP3    H239487   4.958   5.558  19.516  0.7393  0.8325 -0.8171
 5098TIP3   OH239488   6.213   4.894  17.819 -0.0184 -0.2628  0.1108
 5098TIP3    H139489   6.215   4.825  17.884  1.3774  0.6042  1.0439
 5098TIP3    H239490   6.128   4.884  17.776  0.5138 -3.1264 -0.4725
 5099TIP3   OH239491   4.596   3.491  19.223  0.1258 -0.6177  0.3639
 5099TIP3    H139492   4.572   3.413  19.274 -0.7997 -0.3235  0.3936
 5099TIP3    H239493   4.562   3.564  19.273  0.2805 -0.2388 -0.0772
 5100TIP3   OH239494   2.530   3.951  20.574  0.3853 -0.4647 -0.0972
 5100TIP3    H139495   2.519   3.954  20.479  1.6209  0.0830 -0.2443
 5100TIP3    H239496   2.616   3.989  20.589  0.3163 -0.7877  1.2297
 5101TIP3   OH239497   3.482   6.022  17.393 -0.0146  0.7646 -0.3468
 5101TIP3    H139498   3.409   6.008  17.332  0.0516 -1.9322  0.0480
 5101TIP3    H239499   3.550   5.962  17.362  0.3953  0.0693  1.7507
 5102TIP3   OH239500   6.416   2.612  18.212 -0.3107 -0.3559 -0.4193
 5102TIP3    H139501   6.501   2.569  18.221  0.2925  0.9571  0.4668
 5102TIP3    H239502   6.368   2.558  18.149  0.3782 -2.3056  0.6482
 5103TIP3   OH239503   0.629   5.620  19.595  0.0016 -0.0314  0.4139
 5103TIP3    H139504   0.533   5.619  19.595 -0.0158  0.1766 -1.0134
 5103TIP3    H239505   0.653   5.536  19.634 -0.7232  0.5155  2.1593
 5104TIP3   OH239506   3.806   3.913  18.677 -0.1446  0.5277 -0.2562
 5104TIP3    H139507   3.718   3.924  18.642  0.0534 -1.5519 -1.5772
 5104TIP3    H239508   3.840   4.002  18.686 -2.5354  1.4074  0.7968
 5105TIP3   OH239509   3.832   4.735  19.918 -0.0935  0.0767 -0.0150
 5105TIP3    H139510   3.821   4.830  19.916 -0.9144 -0.0116 -0.2158
 5105TIP3    H239511   3.751   4.703  19.957  0.7782 -0.4607  1.4140
 5106TIP3   OH239512   5.357   5.350  17.277 -0.1286  0.3290  0.3842
 5106TIP3    H139513   5.285   5.413  17.280 -0.7997 -0.2654 -1.8086
 5106TIP3    H239514   5.402   5.361  17.361 -0.3451  3.5453  0.1848
 5107TIP3   OH239515   1.039   6.456  17.623 -0.2385  0.5436  0.0495
 5107TIP3    H139516   0.980   6.531  17.617 -1.1430 -0.2428 -2.2183
 5107TIP3    H239517   1.061   6.449  17.716 -2.8965  1.4776  0.8189
 5108TIP3   OH239518   5.593   0.827  19.151 -0.1027 -0.2126  0.4205
 5108TIP3    H139519   5.621   0.791  19.235  3.4555  1.9638  0.3838
 5108TIP3    H239520   5.566   0.917  19.171 -2.8750 -0.7713 -0.3429
 5109TIP3   OH239521   5.515   2.477  19.167 -0.9567  0.1814 -0.0696
 5109TIP3    H139522   5.433   2.482  19.117 -0.7719  0.1610 -0.3811
 5109TIP3    H239523   5.580   2.521  19.112 -0.5602 -0.5989 -0.2551
 5110TIP3   OH239524   3.938   5.699  19.292  0.1167 -0.3556 -0.0097
 5110TIP3    H139525   3.861   5.753  19.309  0.4799 -0.0876  0.8227
 5110TIP3    H239526   3.965   5.668  19.378  1.2461 -0.0150 -0.2269
 5111TIP3   OH239527   6.561   2.826  19.045 -0.2015 -0.6007  0.0799
 5111TIP3    H139528   6.608   2.743  19.035  1.4691  0.3280 -0.1257
 5111TIP3    H239529   6.602   2.885  18.981 -1.2397  0.4325  0.3310
 5112TIP3   OH239530   5.311   1.988  19.689 -0.0272 -0.1634 -0.0902
 5112TIP3    H139531   5.299   1.929  19.763 -0.6426 -0.7282 -0.6255
 5112TIP3    H239532   5.282   1.938  19.613  0.7183  0.3511 -0.7430
 5113TIP3   OH239533   5.144   6.482  16.646  0.3101  0.2463  0.5398
 5113TIP3    H139534   5.124   6.397  16.685  3.1255  0.2631  2.3147
 5113TIP3    H239535   5.158   6.464  16.553 -0.9026 -0.8679  0.5592
 5114TIP3   OH239536   5.478   6.497  18.528  0.3185 -0.5340 -0.0958
 5114TIP3    H139537   5.493   6.444  18.450 -0.7035 -0.2901 -0.4732
 5114TIP3    H239538   5.513   6.583  18.506  0.3318 -0.5572 -0.1656
 5115TIP3   OH239539   4.926   5.429  17.775 -0.3075  0.1197 -0.1252
 5115TIP3    H139540   4.901   5.411  17.685 -0.5873 -0.1404 -0.0010
 5115TIP3    H239541   4.968   5.514  17.773  0.7032 -0.3768 -0.6871
 5116TIP3   OH239542   3.007   0.721  19.599  0.6460  0.4286  0.5385
 5116TIP3    H139543   2.985   0.668  19.523  0.0440  0.7086  0.5066
 5116TIP3    H239544   2.993   0.662  19.674 -0.4179  0.6377  0.5294
 5117TIP3   OH239545   4.220   0.335  18.013  0.8931  0.3701 -0.2638
 5117TIP3    H139546   4.262   0.377  17.938 -1.1819 -1.2195 -2.4722
 5117TIP3    H239547   4.133   0.310  17.981 -0.3638  0.1995  2.9095
 5118TIP3   OH239548   3.821   0.325  19.129  0.0916  0.2856  0.5229
 5118TIP3    H139549   3.839   0.355  19.040  1.3649  0.1044  0.7079
 5118TIP3    H239550   3.866   0.241  19.137 -3.4635 -1.8850  0.0103
 5119TIP3   OH239551   3.605   4.991  18.995 -0.1563  0.4152  0.4296
 5119TIP3    H139552   3.518   5.031  19.002 -0.4154 -0.0776  0.0889
 5119TIP3    H239553   3.606   4.951  18.908  0.4141  0.4089  0.4357
 5120TIP3   OH239554   6.481   6.492  18.752 -0.0454  0.2898 -0.6552
 5120TIP3    H139555   6.567   6.455  18.770  0.7331  0.8664 -2.8647
 5120TIP3    H239556   6.494   6.587  18.757 -0.4756  0.3872 -1.2799
 5121TIP3   OH239557   2.075   5.004  17.133  0.5541  0.0842 -0.3323
 5121TIP3    H139558   2.038   5.044  17.211  0.0913  0.7588 -0.8863
 5121TIP3    H239559   2.153   5.057  17.114  1.6260 -1.1034  0.6169
 5122TIP3   OH239560   5.094   2.869  18.897  0.0899  0.1668  0.2762
 5122TIP3    H139561   5.029   2.869  18.827  0.0474 -0.4109  0.3075
 5122TIP3    H239562   5.043   2.853  18.977  0.2609 -0.2324  0.3085
 5123TIP3   OH239563   0.845   0.423  17.816  0.0507  0.0764  0.1960
 5123TIP3    H139564   0.817   0.397  17.728  1.1422  1.7516 -0.6958
 5123TIP3    H239565   0.765   0.421  17.868 -0.6502 -0.7849 -0.8583
 5124TIP3   OH239566   0.491   4.180  17.945  0.2828 -0.4807  0.2414
 5124TIP3    H139567   0.518   4.177  17.853  0.9897  0.9282  0.3855
 5124TIP3    H239568   0.424   4.112  17.952 -1.2936  0.7372 -1.8022
 5125TIP3   OH239569   6.398   4.176  18.540 -0.2225 -0.6933 -0.2481
 5125TIP3    H139570   6.440   4.260  18.554 -1.8484 -0.2663  3.2167
 5125TIP3    H239571   6.458   4.127  18.485  1.6861  2.0286 -0.7532
 5126TIP3   OH239572   5.770   6.685  16.522 -0.6487  0.6093  0.1557
 5126TIP3    H139573   5.711   6.757  16.503 -2.7686 -0.9148  0.6042
 5126TIP3    H239574   5.796   6.652  16.436 -2.6892 -0.3819 -0.1438
 5127TIP3   OH239575   6.238   4.451  20.063  0.3315 -0.2574 -0.5705
 5127TIP3    H139576   6.327   4.416  20.070  0.4657  0.0339 -0.8010
 5127TIP3    H239577   6.250   4.546  20.051  0.0573 -0.4360 -2.5020
 5128TIP3   OH239578   3.445   1.886  17.597  0.2674  0.2289 -0.1591
 5128TIP3    H139579   3.407   1.918  17.679 -1.8675  0.2294 -1.0737
 5128TIP3    H239580   3.537   1.868  17.618 -0.0552  0.8518  2.0344
 5129TIP3   OH239581   3.117   5.492  18.130  0.3186  0.1377 -0.2918
 5129TIP3    H139582   3.108   5.516  18.037 -1.6479  0.3787 -0.0855
 5129TIP3    H239583   3.049   5.543  18.174 -0.2637 -1.6023  0.9577
 5130TIP3   OH239584   3.879   4.124  18.323 -0.2237 -0.0290  0.3753
 5130TIP3    H139585   3.796   4.097  18.362 -0.4824  0.3366  0.0825
 5130TIP3    H239586   3.897   4.209  18.361  1.7864 -1.5153  3.1457
 5131TIP3   OH239587   3.661   0.444  18.036  0.0485  0.1045 -0.5966
 5131TIP3    H139588   3.729   0.509  18.022  0.5559 -0.3771 -0.3870
 5131TIP3    H239589   3.700   0.379  18.094 -1.1434  0.6699  0.9156
 5132TIP3   OH239590   6.221   5.831  19.062 -0.2104  0.4281  0.2543
 5132TIP3    H139591   6.276   5.768  19.016 -0.5983  0.4889 -0.3006
 5132TIP3    H239592   6.257   5.916  19.038 -1.4094  0.5474 -1.2979
 5133TIP3   OH239593   0.493   2.728  17.642 -0.7739 -0.2902  0.0359
 5133TIP3    H139594   0.444   2.803  17.607  1.6169  1.5387  0.2843
 5133TIP3    H239595   0.440   2.696  17.715 -2.2874  0.5894 -0.6288
 5134TIP3   OH239596   0.053   2.598  19.169 -0.5750  0.5633  0.3944
 5134TIP3    H139597   0.092   2.517  19.203 -1.5796 -0.2597 -0.3492
 5134TIP3    H239598   0.117   2.666  19.191  0.5259 -0.4951  0.6062
 5135TIP3   OH239599   0.690   4.060  19.753 -0.3145 -0.0154  0.0466
 5135TIP3    H139600   0.615   4.109  19.717 -1.0244 -0.6064  0.6936
 5135TIP3    H239601   0.654   3.975  19.777  0.0815  0.3823  2.2652
 5136TIP3   OH239602   2.036   3.657  18.190  0.2475 -0.1442 -0.5049
 5136TIP3    H139603   2.035   3.745  18.228 -3.5101  0.0515 -0.6314
 5136TIP3    H239604   2.073   3.669  18.103  2.1479  0.7611  0.3646
 5137TIP3   OH239605   2.096   4.655  17.464 -0.6900 -0.0179  0.1257
 5137TIP3    H139606   2.098   4.728  17.402 -0.2891  0.4549  0.6881
 5137TIP3    H239607   2.165   4.675  17.527 -0.5722 -0.8882  0.2876
 5138TIP3   OH239608   2.259   4.301  16.864  0.5275  0.0929  0.6530
 5138TIP3    H139609   2.212   4.339  16.789 -0.1247 -1.0451  0.4493
 5138TIP3    H239610   2.241   4.207  16.857  2.4890 -0.3232  0.8453
 5139TIP3   OH239611   4.187   2.856  19.951  0.2129  0.5014  1.0617
 5139TIP3    H139612   4.143   2.782  19.995  0.5468 -0.0773  0.4367
 5139TIP3    H239613   4.116   2.910  19.918 -0.0392  0.1313  0.9890
 5140TIP3   OH239614   6.459   2.909  17.992 -0.4289  0.0689  0.1420
 5140TIP3    H139615   6.463   2.938  18.083  1.4705 -0.0808  0.1408
 5140TIP3    H239616   6.379   2.950  17.957 -0.6883  0.8714  1.6125
 5141TIP3   OH239617   1.804   6.567  17.335 -0.2748  0.2822  0.0625
 5141TIP3    H139618   1.715   6.538  17.351 -0.2820  0.1962 -0.1334
 5141TIP3    H239619   1.823   6.627  17.407 -0.4534  0.2185  0.1624
 5142TIP3   OH239620   2.812   4.049  17.775  0.3718 -0.5430  0.0167
 5142TIP3    H139621   2.815   4.105  17.697  1.4212 -0.7207 -0.0787
 5142TIP3    H239622   2.831   3.961  17.743 -2.3232 -1.2141 -0.0073
 5143TIP3   OH239623   0.923   1.837  16.392 -0.2756  0.3152 -0.6572
 5143TIP3    H139624   0.899   1.803  16.306  1.1950  0.1768 -1.0354
 5143TIP3    H239625   0.982   1.910  16.373 -0.5286  0.7608  0.2309
 5144TIP3   OH239626   5.332   2.674  18.366  0.1008 -0.0650  0.0352
 5144TIP3    H139627   5.323   2.682  18.461  2.5336  1.9969  0.1701
 5144TIP3    H239628   5.372   2.756  18.337 -1.1499 -0.3444 -2.9067
 5145TIP3   OH239629   2.062   2.107  17.588  0.3971  0.0125  0.5393
 5145TIP3    H139630   2.089   2.134  17.676 -0.2186 -0.5559  0.9076
 5145TIP3    H239631   2.096   2.018  17.579 -1.4246 -0.7779  1.0675
 5146TIP3   OH239632   3.924   4.984  17.623 -0.5783 -0.1903  0.5100
 5146TIP3    H139633   3.935   4.991  17.528  0.3281  2.2743  0.7309
 5146TIP3    H239634   3.842   5.030  17.641 -0.3707 -0.0080  0.9941
 5147TIP3   OH239635   0.313   1.550  16.516 -0.4078 -0.3900 -0.1530
 5147TIP3    H139636   0.230   1.521  16.554 -0.0933 -1.2135 -0.0757
 5147TIP3    H239637   0.379   1.514  16.575  0.0016  0.5879  0.0051
 5148TIP3   OH239638   3.484   4.676  18.232 -0.0787 -0.0607 -0.1502
 5148TIP3    H139639   3.443   4.733  18.168 -0.4618 -2.0738 -1.8256
 5148TIP3    H239640   3.436   4.692  18.313 -0.4491  1.6155 -0.6765
 5149TIP3   OH239641   2.643   5.788  17.700  0.1200 -0.3694 -0.3334
 5149TIP3    H139642   2.721   5.840  17.683  1.2689 -1.7875  0.3793
 5149TIP3    H239643   2.677   5.702  17.726 -1.6988 -1.4387 -1.3424
 5150TIP3   OH239644   4.580   1.494  17.446 -0.0634  0.3474  0.4408
 5150TIP3    H139645   4.589   1.585  17.475 -0.7754  0.2694  0.9309
 5150TIP3    H239646   4.642   1.485  17.374 -1.1332  1.6811 -0.6998
 5151TIP3   OH239647   0.187   1.365  16.764 -0.0489 -0.1224 -0.2343
 5151TIP3    H139648   0.282   1.360  16.768 -0.0740  0.2850  1.8223
 5151TIP3    H239649   0.164   1.433  16.827 -1.7842 -1.1539  0.3094
 5152TIP3   OH239650   0.426   6.540  17.649  0.3395 -0.6419  0.2570
 5152TIP3    H139651   0.333   6.554  17.664 -0.1259 -0.0940 -2.6316
 5152TIP3    H239652   0.434   6.446  17.632 -0.0240 -0.4022 -1.3374
 5153TIP3   OH239653   1.829   2.162  17.408 -0.4760 -0.1404  0.0245
 5153TIP3    H139654   1.868   2.137  17.325 -0.1973  1.5764 -0.4076
 5153TIP3    H239655   1.898   2.147  17.473 -0.5345 -1.0363 -0.1186
 5154TIP3   OH239656   1.908   2.203  18.239 -0.4753  0.3924 -0.3092
 5154TIP3    H139657   1.890   2.152  18.318  0.5558  0.2741 -0.1403
 5154TIP3    H239658   1.933   2.290  18.272  1.9868 -0.2412 -0.3806
 5155TIP3   OH239659   2.717   1.854  17.376  0.4132 -0.0148  0.2785
 5155TIP3    H139660   2.643   1.796  17.397 -0.8608  0.7742 -1.7629
 5155TIP3    H239661   2.777   1.798  17.327 -0.4893  0.1698 -1.0833
 5156TIP3   OH239662   5.962   0.197  19.153  0.0653 -0.0745 -0.1425
 5156TIP3    H139663   5.968   0.138  19.078 -0.6605 -0.5195  0.1463
 5156TIP3    H239664   5.938   0.282  19.115 -0.9056 -0.4388 -0.3655
 5157TIP3   OH239665   2.706   3.951  20.015  0.4863 -0.2570 -0.1093
 5157TIP3    H139666   2.798   3.970  20.002  1.0055 -0.0969  3.0519
 5157TIP3    H239667   2.692   3.868  19.969  2.1537 -0.2346 -0.7178
 5158TIP3   OH239668   2.239   0.548  20.018 -0.0970  0.7502 -0.0939
 5158TIP3    H139669   2.265   0.480  19.955 -2.3288  2.5899 -3.3354
 5158TIP3    H239670   2.322   0.584  20.050  1.2538  0.3436 -2.8074
 5159TIP3   OH239671   4.586   3.200  19.155  0.3862  0.5432  0.4381
 5159TIP3    H139672   4.555   3.221  19.243 -0.5747  0.4191  0.1392
 5159TIP3    H239673   4.653   3.133  19.169  0.3655  0.6478  1.0813
 5160TIP3   OH239674   1.057   3.609  16.958  0.1940 -0.6397 -0.0719
 5160TIP3    H139675   1.011   3.603  16.874  0.3003 -1.2798 -0.0880
 5160TIP3    H239676   1.131   3.667  16.940 -1.2770  1.4621  0.2804
 5161TIP3   OH239677   4.336   5.888  19.503 -0.3586  0.0331 -0.3841
 5161TIP3    H139678   4.377   5.867  19.419  3.7031 -2.2880  1.9023
 5161TIP3    H239679   4.344   5.983  19.511  2.5887 -0.0734 -1.1468
 5162TIP3   OH239680   4.431   0.867  19.258 -0.3906 -0.0684 -0.2628
 5162TIP3    H139681   4.475   0.920  19.191  0.3903 -0.3390  0.0144
 5162TIP3    H239682   4.348   0.911  19.273 -0.6312 -0.0673 -1.4940
 5163TIP3   OH239683   2.644   2.184  18.152  0.3796  0.0390  0.5956
 5163TIP3    H139684   2.628   2.090  18.153  1.2201 -0.1536 -0.9583
 5163TIP3    H239685   2.730   2.194  18.192 -0.0438  0.2474  1.4823
 5164TIP3   OH239686   6.485   5.794  18.727 -0.0602  0.0571  0.0790
 5164TIP3    H139687   6.530   5.750  18.800 -0.8810  0.7716  1.0549
 5164TIP3    H239688   6.541   5.780  18.651 -0.0915 -2.3562  0.4162
 5165TIP3   OH239689   3.562   5.701  18.259 -0.1859 -0.3159  0.4314
 5165TIP3    H139690   3.644   5.688  18.307  0.3053  0.8003 -0.0705
 5165TIP3    H239691   3.495   5.704  18.327  0.5130  1.3340  1.0987
 5166TIP3   OH239692   0.214   2.761  19.704 -0.1181  0.0702 -0.0276
 5166TIP3    H139693   0.161   2.741  19.781 -0.4574  0.5557 -0.1297
 5166TIP3    H239694   0.304   2.767  19.737  0.0381 -1.7635 -0.0145
 5167TIP3   OH239695   1.550   5.607  16.931  0.1545 -0.0639  0.1063
 5167TIP3    H139696   1.556   5.535  16.867  2.3377 -1.4772  1.7245
 5167TIP3    H239697   1.642   5.632  16.946 -0.3467  0.6865  2.1414
 5168TIP3   OH239698   1.871   3.978  18.006 -0.5374  0.3402  0.0082
 5168TIP3    H139699   1.948   3.964  18.061 -1.0217 -0.0115  0.6144
 5168TIP3    H239700   1.839   4.064  18.031 -0.3582  0.4767 -0.2285
 5169TIP3   OH239701   4.065   5.916  18.361  0.1719  0.5398  0.1440
 5169TIP3    H139702   4.072   6.009  18.381  1.7195  1.4805 -3.6961
 5169TIP3    H239703   4.012   5.913  18.281  0.7838 -1.7698 -0.2475
 5170TIP3   OH239704   6.720   1.487  19.500 -0.1295  0.3118  1.1167
 5170TIP3    H139705   6.646   1.545  19.519  0.4609  1.3657  0.2768
 5170TIP3    H239706   6.679   1.406  19.469 -0.9379  0.7721  0.9516
 5171TIP3   OH239707   6.694   3.088  19.301  0.3484 -0.1148 -0.0365
 5171TIP3    H139708   6.673   3.013  19.356  1.1945  0.8388  1.6838
 5171TIP3    H239709   6.786   3.074  19.276  0.7611  0.6798  0.9441
 5172TIP3   OH239710   0.936   2.080  18.638 -0.1602 -0.0265 -0.5282
 5172TIP3    H139711   0.904   2.026  18.565  0.5063 -0.5563 -0.4386
 5172TIP3    H239712   0.871   2.068  18.707  0.0755 -0.8650 -0.4443
 5173TIP3   OH239713   2.441   2.027  16.685  0.2868  0.4611  0.2354
 5173TIP3    H139714   2.501   2.067  16.622  2.0261 -0.1831  1.3898
 5173TIP3    H239715   2.485   1.945  16.711  0.2487  1.2316  3.0926
 5174TIP3   OH239716   2.291   0.313  19.062 -0.5924 -0.5457 -0.0402
 5174TIP3    H139717   2.352   0.371  19.017  1.3564 -3.2646 -1.2402
 5174TIP3    H239718   2.317   0.316  19.154 -0.3032  0.1906 -0.1418
 5175TIP3   OH239719   5.535   3.286  17.106 -0.1686 -0.8127  0.0597
 5175TIP3    H139720   5.624   3.273  17.141  0.3149 -0.3825 -0.9791
 5175TIP3    H239721   5.524   3.381  17.104 -0.5302 -0.8597 -0.1197
 5176TIP3   OH239722   3.215   4.601  19.462  0.1123  0.4920  0.1315
 5176TIP3    H139723   3.289   4.640  19.416 -0.5563  0.1167 -1.3281
 5176TIP3    H239724   3.147   4.668  19.461 -0.2647  0.1096 -0.3693
 5177TIP3   OH239725   1.465   1.411  20.055 -0.3118  0.1193 -0.1448
 5177TIP3    H139726   1.452   1.343  19.990 -0.5972 -2.0733  2.0638
 5177TIP3    H239727   1.378   1.426  20.092  0.3329 -1.1883  2.0372
 5178TIP3   OH239728   4.603   0.253  16.577  0.0388  0.1511 -0.2397
 5178TIP3    H139729   4.593   0.161  16.604  0.4100  0.2798  0.3441
 5178TIP3    H239730   4.649   0.249  16.494  0.3346 -0.1784 -0.0607
 5179TIP3   OH239731   2.759   0.091  19.773  0.3717  0.6441  0.4457
 5179TIP3    H139732   2.846   0.064  19.800  0.9065 -0.4734 -2.0943
 5179TIP3    H239733   2.773   0.149  19.698 -1.0232 -0.9722 -1.1703
 5180TIP3   OH239734   4.294   1.331  16.786  0.1031 -0.1476  0.3797
 5180TIP3    H139735   4.281   1.243  16.820  1.3462 -0.8008 -0.7299
 5180TIP3    H239736   4.329   1.318  16.698 -2.2392  1.4602 -0.8966
 5181TIP3   OH239737   0.276   4.712  16.816 -0.3318  0.2217  0.3601
 5181TIP3    H139738   0.312   4.710  16.727  1.5447 -1.8401  1.0753
 5181TIP3    H239739   0.182   4.695  16.804 -0.1704  0.2685 -1.2322
 5182TIP3   OH239740   4.479   0.691  17.575  1.0331  0.3849  0.1990
 5182TIP3    H139741   4.488   0.618  17.514 -0.2636 -1.0687  1.6630
 5182TIP3    H239742   4.489   0.652  17.662  1.0163  2.0771  1.0117
 5183TIP3   OH239743   4.977   4.310  19.080  0.4868 -0.1758  0.2111
 5183TIP3    H139744   4.923   4.347  19.010 -0.2001 -0.8733  0.3663
 5183TIP3    H239745   4.928   4.235  19.112  0.0313  0.9800  2.4756
 5184TIP3   OH239746   4.780   5.344  19.566  0.9301 -0.6330  0.2963
 5184TIP3    H139747   4.823   5.408  19.623  0.4510  1.9058 -1.9705
 5184TIP3    H239748   4.687   5.350  19.589  0.7751  0.1756 -0.4794
 5185TIP3   OH239749   4.469   2.567  19.276  0.0529 -0.5442  0.5293
 5185TIP3    H139750   4.380   2.603  19.274 -0.5653 -1.8805  1.8363
 5185TIP3    H239751   4.497   2.580  19.367  0.4223 -1.8631  0.6228
 5186TIP3   OH239752   3.138   1.291  18.245 -0.2852 -0.0906 -0.8579
 5186TIP3    H139753   3.218   1.296  18.298  0.5119  1.3812 -2.1160
 5186TIP3    H239754   3.103   1.204  18.263  0.6682 -0.1374  1.0295
 5187TIP3   OH239755   3.613   2.516  19.731 -0.3551 -0.2515  0.2069
 5187TIP3    H139756   3.706   2.524  19.749 -0.2497 -0.4595 -0.2290
 5187TIP3    H239757   3.601   2.557  19.645 -0.9182  1.1237  0.9029
 5188TIP3   OH239758   0.962   2.603  19.279 -0.2211  0.4663  0.5202
 5188TIP3    H139759   1.000   2.690  19.282 -0.1819  0.4383  2.9394
 5188TIP3    H239760   1.026   2.550  19.232  0.7385  1.3172  0.8469
 5189TIP3   OH239761   3.362   1.473  17.697  0.2634 -0.0474  0.6351
 5189TIP3    H139762   3.278   1.469  17.742 -0.0816 -1.7060 -0.0637
 5189TIP3    H239763   3.351   1.544  17.633 -0.4124  0.1049  0.9042
 5190TIP3   OH239764   6.599   6.778  16.702 -0.6239  0.7226  0.5331
 5190TIP3    H139765   6.656   6.833  16.648  0.2511 -0.9374 -0.3270
 5190TIP3    H239766   6.630   6.792  16.792 -0.0909  1.2527  0.2728
 5191TIP3   OH239767   4.057   5.969  16.462 -0.4495  0.6592 -0.4172
 5191TIP3    H139768   3.993   6.009  16.520  1.5652  1.2457  1.5344
 5191TIP3    H239769   4.105   6.043  16.424 -0.7699  0.2355 -1.6963
 5192TIP3   OH239770   3.043   4.307  20.092  0.4691 -0.1189 -0.1680
 5192TIP3    H139771   2.995   4.346  20.019  1.3570 -0.6039 -1.0379
 5192TIP3    H239772   3.121   4.362  20.102  0.9964 -0.7954 -0.4481
 5193TIP3   OH239773   6.238   1.196  16.696 -0.4546 -0.4556 -0.5625
 5193TIP3    H139774   6.213   1.107  16.720  1.7889 -1.4698 -1.6406
 5193TIP3    H239775   6.170   1.251  16.733 -1.1769 -2.4917  1.3644
 5194TIP3   OH239776   3.285   3.712  17.556  0.2175  0.0583  0.1606
 5194TIP3    H139777   3.327   3.798  17.556  0.7306 -0.1759 -0.9417
 5194TIP3    H239778   3.215   3.720  17.620  0.8048  1.0243  0.7165
 5195TIP3   OH239779   0.878   3.701  17.742 -0.1909 -0.0869  0.5715
 5195TIP3    H139780   0.856   3.764  17.674  1.9117  0.1037  0.0030
 5195TIP3    H239781   0.912   3.754  17.814 -0.6141 -0.4262  1.0302
 5196TIP3   OH239782   1.264   3.743  17.860 -0.0424  0.4521 -0.1045
 5196TIP3    H139783   1.263   3.802  17.785  0.2983 -0.2263 -0.6570
 5196TIP3    H239784   1.192   3.682  17.844  0.7896 -0.4470 -0.5094
 5197TIP3   OH239785   5.371   4.613  19.150 -0.0849  0.3678  0.1938
 5197TIP3    H139786   5.279   4.586  19.154 -0.0149 -0.2269 -1.4567
 5197TIP3    H239787   5.404   4.599  19.238 -0.8212 -2.1844  0.1348
 5198TIP3   OH239788   0.949   5.667  17.554  0.1028 -0.0556  0.3974
 5198TIP3    H139789   0.939   5.718  17.473 -0.6057  1.2736  1.2882
 5198TIP3    H239790   0.994   5.726  17.614  0.4690 -0.9743  1.0402
 5199TIP3   OH239791   3.267   4.519  18.641 -0.6198  0.3926 -0.1331
 5199TIP3    H139792   3.172   4.521  18.652 -0.3513  0.8352  2.9822
 5199TIP3    H239793   3.291   4.428  18.659 -0.3705  0.5506  0.3684
 5200TIP3   OH239794   3.276   3.444  17.868  0.4481  0.3172  0.2263
 5200TIP3    H139795   3.209   3.378  17.885  0.7725 -0.3250 -0.8704
 5200TIP3    H239796   3.277   3.454  17.773  2.0120  0.1845  0.1911
 5201TIP3   OH239797   3.264   2.390  17.713  0.3958 -0.2919 -0.0823
 5201TIP3    H139798   3.221   2.472  17.737  3.1332  0.8037  1.5958
 5201TIP3    H239799   3.195   2.324  17.717 -1.8737  1.8413 -1.3410
 5202TIP3   OH239800   1.232   0.513  19.206  0.5693  0.1532  0.3663
 5202TIP3    H139801   1.141   0.494  19.229  0.4236  0.9266  0.4336
 5202TIP3    H239802   1.244   0.472  19.120  1.1204 -2.7668  1.6992
 5203TIP3   OH239803   6.686   3.560  18.980 -0.3424 -0.1273  0.2885
 5203TIP3    H139804   6.768   3.581  18.935 -1.4825  0.9406 -1.3851
 5203TIP3    H239805   6.693   3.466  19.000  1.2852 -0.0487  0.2391
 5204TIP3   OH239806   1.743   2.884  18.139 -0.0119  0.2589 -0.1197
 5204TIP3    H139807   1.740   2.952  18.207 -1.7514  1.0276 -0.9115
 5204TIP3    H239808   1.710   2.927  18.060 -0.4858 -1.3105 -0.8175
 5205TIP3   OH239809   5.277   5.370  19.533  0.3324  0.0863  0.1130
 5205TIP3    H139810   5.244   5.403  19.616  0.9625  0.0103  0.3918
 5205TIP3    H239811   5.318   5.445  19.491 -1.2797  0.5067 -0.8057
 5206TIP3   OH239812   3.876   4.430  18.924  0.0423 -0.0333  0.1529
 5206TIP3    H139813   3.800   4.482  18.900  0.4592  0.9744  0.8904
 5206TIP3    H239814   3.943   4.455  18.860 -0.0366 -0.3665 -0.0576
 5207TIP3   OH239815   0.153   0.551  19.670 -0.0948  0.0877  0.0067
 5207TIP3    H139816   0.108   0.516  19.747  1.7742 -0.8382  0.7512
 5207TIP3    H239817   0.209   0.621  19.704  1.4213 -0.9120 -0.2917
 5208TIP3   OH239818   2.042   0.878  18.516 -0.1723  0.0193  0.0271
 5208TIP3    H139819   2.109   0.873  18.447 -0.8828 -2.3317 -0.5946
 5208TIP3    H239820   2.081   0.933  18.583  1.7885 -0.0718 -0.9597
 5209TIP3   OH239821   3.130   4.638  17.316 -0.1441  0.2914  0.4298
 5209TIP3    H139822   3.060   4.613  17.256  0.1574  1.5019 -0.4825
 5209TIP3    H239823   3.167   4.717  17.277  1.1211  0.2021  1.3856
 5210TIP3   OH239824   3.115   5.598  17.850  0.2548 -0.3469 -0.8015
 5210TIP3    H139825   3.184   5.539  17.820  0.9264  0.1339 -0.2358
 5210TIP3    H239826   3.103   5.659  17.778  1.0352  0.0853 -0.5845
 5211TIP3   OH239827   0.463   2.382  17.538 -0.0688  0.0447 -0.5238
 5211TIP3    H139828   0.378   2.358  17.500  0.3216  0.6308 -1.8160
 5211TIP3    H239829   0.445   2.392  17.632 -1.0620 -1.4547 -0.5154
 5212TIP3   OH239830   4.092   3.840  19.159  0.2725 -0.1699  0.3610
 5212TIP3    H139831   4.187   3.849  19.153  0.5339 -1.1066  2.2012
 5212TIP3    H239832   4.068   3.780  19.089  1.0934 -0.2160  0.1168
 5213TIP3   OH239833   4.791   3.010  19.178 -0.1115 -0.0986 -0.4255
 5213TIP3    H139834   4.876   2.965  19.183 -0.0321  0.1271  0.4347
 5213TIP3    H239835   4.728   2.945  19.209 -0.0959  0.1071  0.0529
 5214TIP3   OH239836   2.293   6.325  19.459 -0.0142 -0.0447  0.3740
 5214TIP3    H139837   2.328   6.331  19.370  1.4452 -1.2310  0.8307
 5214TIP3    H239838   2.339   6.394  19.507 -1.7914  1.5190 -0.0364
 5215TIP3   OH239839   1.233   0.441  18.311  0.1759 -0.1747  0.5616
 5215TIP3    H139840   1.318   0.404  18.287  0.0960 -0.8606  1.2919
 5215TIP3    H239841   1.238   0.533  18.285  0.7613 -0.4544 -0.3452
 5216TIP3   OH239842   1.902   4.747  18.511 -0.0756  0.3146 -0.4903
 5216TIP3    H139843   1.810   4.740  18.486  0.2193  0.1010 -1.5226
 5216TIP3    H239844   1.900   4.744  18.607 -1.0687 -0.6028 -0.5172
 5217TIP3   OH239845   0.981   0.852  17.239  0.1668  0.2807  0.0600
 5217TIP3    H139846   1.002   0.870  17.148  0.3695  1.0752  0.2493
 5217TIP3    H239847   1.048   0.898  17.289 -0.6632  0.9083  0.6342
 5218TIP3   OH239848   1.753   0.232  19.785 -0.6367 -0.0461  0.0386
 5218TIP3    H139849   1.835   0.262  19.745 -1.8463  0.3122 -2.2942
 5218TIP3    H239850   1.716   0.311  19.826 -0.3517  0.0302  0.1535
 5219TIP3   OH239851   2.715   6.797  20.034 -0.3581 -0.0280 -0.4258
 5219TIP3    H139852   2.730   6.857  19.961 -1.0610 -1.1511 -1.5323
 5219TIP3    H239853   2.800   6.756  20.049 -0.2488  0.0731 -0.7521
 5220TIP3   OH239854   1.091   5.919  17.384  0.0815 -0.8453 -0.8400
 5220TIP3    H139855   0.996   5.924  17.370  0.0611  0.3351 -0.4424
 5220TIP3    H239856   1.102   5.927  17.479  0.5938 -0.3471 -0.9316
 5221TIP3   OH239857   2.937   6.098  19.465  0.4120 -1.1613 -0.0509
 5221TIP3    H139858   2.955   6.007  19.488 -1.4679 -1.1151  2.0696
 5221TIP3    H239859   2.981   6.149  19.533 -0.3221 -0.6367  0.0496
 5222TIP3   OH239860   2.322   4.737  19.709  0.1015 -0.2618  0.5502
 5222TIP3    H139861   2.344   4.682  19.784 -0.2860 -0.7986  0.2739
 5222TIP3    H239862   2.380   4.813  19.718  0.9268 -0.8914  0.7162
 5223TIP3   OH239863   2.926   1.915  17.570  0.0140 -0.4453  0.1388
 5223TIP3    H139864   2.843   1.870  17.558  1.3365 -2.6323 -1.5559
 5223TIP3    H239865   2.957   1.932  17.482  0.5844  1.9755  0.7490
 5224TIP3   OH239866   3.251   6.498  19.311  0.2490 -0.1641  0.0530
 5224TIP3    H139867   3.265   6.584  19.272  2.2751  0.2524  1.5079
 5224TIP3    H239868   3.297   6.438  19.252 -1.2538 -0.3144 -1.0186
 5225TIP3   OH239869   1.924   1.619  20.089 -0.1431  0.1942  0.0550
 5225TIP3    H139870   1.830   1.639  20.096 -0.0443  0.8117 -0.3370
 5225TIP3    H239871   1.930   1.526  20.112 -0.7379  0.3666  0.9639
 5226TIP3   OH239872   6.104   4.835  19.555 -0.4242 -0.0318 -0.0522
 5226TIP3    H139873   6.074   4.892  19.484 -0.5151 -0.0042  0.0089
 5226TIP3    H239874   6.029   4.828  19.613 -0.6356 -0.7605 -0.4055
 5227TIP3   OH239875   3.617   6.692  18.083 -0.0443  0.4882  0.0789
 5227TIP3    H139876   3.644   6.684  18.175  0.1891 -0.9850 -0.1033
 5227TIP3    H239877   3.523   6.678  18.085  0.1140 -0.6149 -0.0295
 5228TIP3   OH239878   6.057   5.966  18.824  0.5218 -0.3432 -0.4385
 5228TIP3    H139879   5.990   5.920  18.774  0.3451 -0.1724 -0.3621
 5228TIP3    H239880   6.026   5.963  18.914  0.7931 -0.5681 -0.3512
 5229TIP3   OH239881   4.090   1.886  18.317 -0.4706  0.2080  0.0959
 5229TIP3    H139882   4.056   1.821  18.256  0.2589  0.3415 -0.4687
 5229TIP3    H239883   4.172   1.848  18.350 -1.1530 -0.1264  1.4598
 5230TIP3   OH239884   2.283   6.129  17.153 -1.1565 -0.5111  0.0714
 5230TIP3    H139885   2.317   6.058  17.207  1.1916 -0.7159 -1.5719
 5230TIP3    H239886   2.311   6.209  17.198 -0.5688 -0.6560 -0.0433
 5231TIP3   OH239887   6.182   1.592  19.259  0.3615 -0.1010 -0.5018
 5231TIP3    H139888   6.162   1.655  19.329 -1.8123 -1.4595  0.1901
 5231TIP3    H239889   6.193   1.646  19.181 -2.2026  1.1737 -0.0872
 5232TIP3   OH239890   1.099   3.271  19.577  0.1244 -0.2534 -0.0787
 5232TIP3    H139891   1.173   3.210  19.580  0.8222  0.5899  0.4514
 5232TIP3    H239892   1.137   3.352  19.542 -0.1187  0.7460  1.8407
 5233TIP3   OH239893   4.032   5.720  19.804  0.4547  0.2286  0.1999
 5233TIP3    H139894   3.984   5.799  19.778  1.3171  0.7729  0.2306
 5233TIP3    H239895   3.987   5.690  19.883 -0.7947 -0.1615 -0.6308
 5234TIP3   OH239896   1.148   4.937  19.606 -0.5191 -0.7254  0.1445
 5234TIP3    H139897   1.177   4.941  19.515 -0.6678 -2.3341 -0.0039
 5234TIP3    H239898   1.205   4.872  19.647 -1.5523 -1.2725  0.7566
 5235TIP3   OH239899   0.033   0.691  17.546 -0.3108  0.6353  0.1475
 5235TIP3    H139900   0.038   0.647  17.631 -2.7039  0.3717  0.2274
 5235TIP3    H239901  -0.048   0.659  17.508  0.0533  1.7643 -1.6797
 5236TIP3   OH239902   1.411   4.587  17.149 -0.4622 -0.7677 -0.3854
 5236TIP3    H139903   1.325   4.594  17.189  0.8333  1.6585  2.3905
 5236TIP3    H239904   1.472   4.590  17.223  2.0479 -1.7790 -2.2697
 5237TIP3   OH239905   1.813   0.190  17.097 -0.0495 -0.0417  0.2450
 5237TIP3    H139906   1.815   0.281  17.126  0.0324 -0.3267  1.1774
 5237TIP3    H239907   1.903   0.172  17.069  0.5241 -0.4493  2.1383
 5238TIP3   OH239908   3.353   3.622  20.020 -0.0590  0.3807  0.0073
 5238TIP3    H139909   3.278   3.671  19.987 -0.8920 -1.1808 -0.4948
 5238TIP3    H239910   3.317   3.537  20.047  1.6214 -0.6942 -0.9566
 5239TIP3   OH239911   3.342   2.161  18.604 -0.0430 -0.1224  0.2776
 5239TIP3    H139912   3.340   2.221  18.679  1.2842 -0.2327  0.4147
 5239TIP3    H239913   3.278   2.093  18.627 -0.4322  0.4186  0.8216
 5240TIP3   OH239914   5.662   1.593  19.055 -0.1163  0.6142  0.0613
 5240TIP3    H139915   5.688   1.563  19.142  1.7653  0.4139 -0.5281
 5240TIP3    H239916   5.730   1.560  18.997 -0.4661  2.1075 -1.2698
 5241TIP3   OH239917   1.405   6.130  17.180 -0.0961 -0.1953  0.4912
 5241TIP3    H139918   1.419   6.135  17.274 -1.9064 -2.2248  0.9429
 5241TIP3    H239919   1.389   6.037  17.163  1.4814 -0.1123 -2.0638
 5242TIP3   OH239920   0.751   3.223  20.161  0.7698 -0.1937 -0.3888
 5242TIP3    H139921   0.787   3.208  20.073 -0.6163 -1.9935 -0.6896
 5242TIP3    H239922   0.688   3.153  20.174 -1.1845  1.6793  0.9150
 5243TIP3   OH239923   5.467   0.596  17.405 -0.4832 -0.0618  0.3731
 5243TIP3    H139924   5.396   0.538  17.378  1.2806 -1.5632 -1.3622
 5243TIP3    H239925   5.494   0.640  17.324 -0.0404  1.2182  1.1794
 5244TIP3   OH239926   6.544   3.929  18.874 -0.1499 -0.3555  0.9796
 5244TIP3    H139927   6.593   3.866  18.927  1.3350 -0.2044 -0.1472
 5244TIP3    H239928   6.573   4.014  18.906 -0.8827 -0.2541  1.3724
 5245TIP3   OH239929   6.516   3.717  17.917 -0.3034  0.0832 -0.2242
 5245TIP3    H139930   6.481   3.678  17.997  0.5162 -0.2121 -0.0002
 5245TIP3    H239931   6.591   3.768  17.946 -0.0388  0.0268 -0.7951
 5246TIP3   OH239932   6.243   3.925  20.066 -0.0196  0.3100  0.3277
 5246TIP3    H139933   6.300   3.903  20.140  0.2366 -2.6707 -0.6518
 5246TIP3    H239934   6.186   3.849  20.056 -0.4970  0.9061 -2.1314
 5247TIP3   OH239935   3.339   4.163  19.405  1.1320  0.2516  0.1018
 5247TIP3    H139936   3.363   4.203  19.489  1.2869 -0.4749  0.4125
 5247TIP3    H239937   3.339   4.069  19.422  0.3873  0.1245 -0.5145
 5248TIP3   OH239938   5.226   2.073  16.997 -0.2480  0.2474 -0.8653
 5248TIP3    H139939   5.212   2.121  17.079 -1.8813 -1.0645 -0.2981
 5248TIP3    H239940   5.273   2.133  16.941  0.7759  1.2566  0.9879
 5249TIP3   OH239941   4.545   4.426  16.630  0.0779  0.5230 -0.0186
 5249TIP3    H139942   4.500   4.462  16.707 -1.0055 -0.8172  0.0125
 5249TIP3    H239943   4.509   4.474  16.556 -1.3880 -0.4598  0.0203
 5250TIP3   OH239944   3.190   1.125  19.488  0.3670 -0.1274 -0.2289
 5250TIP3    H139945   3.157   1.178  19.415  0.5297 -0.3606 -0.4747
 5250TIP3    H239946   3.183   1.035  19.457  0.7389 -0.2094 -0.0801
 5251TIP3   OH239947   1.760   0.376  16.864 -0.1349 -0.1169  0.1631
 5251TIP3    H139948   1.798   0.421  16.939  0.1709 -0.7897  0.4164
 5251TIP3    H239949   1.829   0.317  16.833  0.0352  0.7460 -1.1601
 5252TIP3   OH239950   4.126   5.835  20.081 -0.7788 -0.3726 -0.0456
 5252TIP3    H139951   4.184   5.810  20.010 -0.1791 -0.5795  0.5081
 5252TIP3    H239952   4.183   5.841  20.158 -1.3962 -0.0474  0.3971
 5253TIP3   OH239953   0.234   5.037  17.903  0.0675 -0.4289  0.3167
 5253TIP3    H139954   0.160   5.089  17.871  0.4982 -0.4810 -0.8190
 5253TIP3    H239955   0.281   5.096  17.962 -0.6390 -0.2615  0.7310
 5254TIP3   OH239956   0.476   2.461  19.162  0.8003 -0.5215  0.2521
 5254TIP3    H139957   0.536   2.493  19.230  0.2179  0.4113  0.3438
 5254TIP3    H239958   0.457   2.538  19.108  0.7858 -1.1206 -0.6218
 5255TIP3   OH239959   4.770   5.437  18.680  0.1408  0.1735  0.1338
 5255TIP3    H139960   4.850   5.470  18.640 -0.9382 -0.4305 -2.7251
 5255TIP3    H239961   4.791   5.346  18.703  0.5813  0.3455  0.4391
 5256TIP3   OH239962   4.018   5.915  18.932  0.0227 -0.3755 -0.9891
 5256TIP3    H139963   3.938   5.898  18.982  1.3417 -2.2446  0.6299
 5256TIP3    H239964   4.005   6.003  18.896 -1.7389  0.4147  1.2953
 5257TIP3   OH239965   5.501   6.009  19.715  0.3102 -0.2845  0.1539
 5257TIP3    H139966   5.440   5.936  19.726 -0.0664  0.4138  3.6622
 5257TIP3    H239967   5.588   5.969  19.715  0.0429 -1.0008 -1.9319
 5258TIP3   OH239968   0.821   4.841  19.287  0.0640  0.0656 -0.0326
 5258TIP3    H139969   0.767   4.871  19.214  0.6635  0.5903 -0.2744
 5258TIP3    H239970   0.832   4.747  19.271 -0.8450 -0.0698  0.0743
 5259TIP3   OH239971   3.323   5.518  16.555  0.3496 -0.1320 -0.2998
 5259TIP3    H139972   3.344   5.601  16.511 -0.6621 -0.0739 -0.7124
 5259TIP3    H239973   3.256   5.541  16.620  0.3048 -0.5653 -0.1887
 5260TIP3   OH239974   2.785   2.646  18.058 -0.0921 -0.0398  0.5925
 5260TIP3    H139975   2.739   2.595  17.992 -0.5114 -0.2472  1.0443
 5260TIP3    H239976   2.814   2.725  18.012  1.1282 -0.9616 -0.2842
 5261TIP3   OH239977   2.690   1.591  18.602 -0.1535  0.2478  0.3963
 5261TIP3    H139978   2.723   1.520  18.656  1.9049  0.4185 -0.5134
 5261TIP3    H239979   2.597   1.598  18.624  0.2603 -0.6840  2.7264
 5262TIP3   OH239980   3.169   6.396  19.931 -0.0583  0.0205  0.1084
 5262TIP3    H139981   3.168   6.463  19.999 -1.5316 -1.3198  1.4765
 5262TIP3    H239982   3.081   6.398  19.894  0.3411 -0.1549 -0.8905
 5263TIP3   OH239983   4.150   0.369  19.157 -0.5429  0.5030 -0.5177
 5263TIP3    H139984   4.197   0.452  19.149 -2.2018  1.3928 -1.5223
 5263TIP3    H239985   4.098   0.362  19.077 -0.0712 -1.7913 -0.7107
 5264TIP3   OH239986   1.651   0.023  18.835  0.3234  0.5640  0.4057
 5264TIP3    H139987   1.612   0.110  18.831 -2.4867 -0.5751  0.4245
 5264TIP3    H239988   1.618  -0.022  18.757  1.6261 -0.5441  0.4447
 5265TIP3   OH239989   0.915   5.323  17.650 -0.3058  0.3455  0.0006
 5265TIP3    H139990   0.996   5.299  17.696 -0.3208  1.7021  0.8006
 5265TIP3    H239991   0.898   5.249  17.592  0.1292 -1.1338  1.6501
 5266TIP3   OH239992   0.408   6.646  19.187  0.0203  0.4640 -0.0435
 5266TIP3    H139993   0.393   6.681  19.100 -2.0918 -0.2542 -0.0245
 5266TIP3    H239994   0.349   6.695  19.244  0.5743  0.1848  0.7950
 5267TIP3   OH239995   1.732   0.189  18.335  0.0107  0.2604  0.6222
 5267TIP3    H139996   1.719   0.278  18.368 -1.1548 -0.6738  2.9171
 5267TIP3    H239997   1.727   0.134  18.413 -0.3495 -1.9153 -0.8642
 5268TIP3   OH239998   3.227   6.536  17.937  0.6041 -0.2285  0.3157
 5268TIP3    H139999   3.156   6.473  17.924 -0.6352  1.0363  0.6547
 5268TIP3    H240000   3.228   6.588  17.856  2.0105 -1.0186 -0.2067
 5269TIP3   OH240001   0.821   6.151  19.342  0.2246 -0.3788 -0.1313
 5269TIP3    H140002   0.740   6.141  19.393  0.8922 -0.1971  0.9901
 5269TIP3    H240003   0.791   6.155  19.251 -0.9295 -1.5923  0.1648
 5270TIP3   OH240004   3.128   3.218  17.964 -0.1406 -0.4407 -0.1425
 5270TIP3    H140005   3.154   3.219  18.056 -0.1970  0.1035 -0.1236
 5270TIP3    H240006   3.186   3.155  17.922  0.5623  0.0423  0.0812
 5271TIP3   OH240007   5.137   3.785  16.442 -0.0302 -0.0806 -0.4291
 5271TIP3    H140008   5.140   3.699  16.484 -2.6015 -0.6211 -1.1220
 5271TIP3    H240009   5.160   3.846  16.511  0.3844 -1.2287  0.4887
 5272TIP3   OH240010   1.583   0.903  16.757  0.1399 -0.6394 -0.3866
 5272TIP3    H140011   1.678   0.892  16.769  0.7145  3.5246  0.6535
 5272TIP3    H240012   1.569   0.887  16.663  2.0213 -0.7811 -0.6890
 5273TIP3   OH240013   5.643   2.507  17.647  0.1051  0.0972  0.2770
 5273TIP3    H140014   5.734   2.476  17.647  0.0510 -0.0880  1.3140
 5273TIP3    H240015   5.599   2.452  17.584  0.6520 -0.0046 -0.0258
 5274TIP3   OH240016   5.464   3.466  18.200  0.4783  0.1957 -0.5416
 5274TIP3    H140017   5.394   3.532  18.197 -0.0151 -0.3264 -3.4693
 5274TIP3    H240018   5.504   3.469  18.113 -1.8238 -5.5782 -2.2872
 5275TIP3   OH240019   6.150   4.670  19.280 -0.2124  0.4709 -0.2489
 5275TIP3    H140020   6.160   4.622  19.362 -0.3742  0.2836 -0.3394
 5275TIP3    H240021   6.082   4.735  19.299  0.5406  1.1859  0.1077
 5276TIP3   OH240022   3.764   4.970  19.450 -1.2130  0.0653 -0.1593
 5276TIP3    H140023   3.841   4.987  19.504 -0.7017 -1.5173 -0.3420
 5276TIP3    H240024   3.739   4.881  19.472 -3.5123  0.8110  0.4936
 5277TIP3   OH240025   4.374   1.878  19.110 -0.2704 -0.6892 -0.1908
 5277TIP3    H140026   4.332   1.821  19.045 -0.0806  0.6425 -1.5308
 5277TIP3    H240027   4.444   1.825  19.147 -0.0115 -1.3140 -1.5023
 5278TIP3   OH240028   2.863   4.215  17.519  0.6933 -0.2745 -0.2087
 5278TIP3    H140029   2.929   4.220  17.588  1.5850  1.6387 -1.1445
 5278TIP3    H240030   2.913   4.203  17.438 -0.1176  0.6330 -0.8692
 5279TIP3   OH240031   3.777   0.046  18.821  0.0513 -0.2383  0.6680
 5279TIP3    H140032   3.789   0.130  18.778  0.1982  0.0074  1.1726
 5279TIP3    H240033   3.695   0.056  18.870 -0.4661 -0.7429 -0.0703
 5280TIP3   OH240034   4.596   3.654  19.881 -0.3767 -0.6101  0.3478
 5280TIP3    H140035   4.514   3.680  19.924 -0.1624 -1.2793  1.1927
 5280TIP3    H240036   4.650   3.732  19.883 -0.4083 -0.6012  1.2291
 5281TIP3   OH240037   1.986   2.935  17.557  0.3268 -0.2196 -0.6186
 5281TIP3    H140038   1.984   2.971  17.468  0.4710  0.3686 -0.3914
 5281TIP3    H240039   2.006   3.011  17.612 -1.4853 -0.2192  0.0902
 5282TIP3   OH240040   0.185   5.997  17.656  0.7045  0.4686 -0.1229
 5282TIP3    H140041   0.099   6.027  17.685  0.9087  0.2772  0.7053
 5282TIP3    H240042   0.168   5.952  17.574 -0.2020 -0.8094  0.7256
 5283TIP3   OH240043   6.397   0.476  19.739 -0.1235 -0.3911 -0.4278
 5283TIP3    H140044   6.391   0.489  19.644  1.2539 -0.7044 -0.5743
 5283TIP3    H240045   6.467   0.535  19.767 -1.1084  0.3534  0.5488
 5284TIP3   OH240046   5.208   6.759  16.820 -0.1589  0.2197  0.1237
 5284TIP3    H140047   5.233   6.851  16.824 -1.9363  0.6965  1.5231
 5284TIP3    H240048   5.139   6.755  16.754 -0.2663 -0.0838  0.2526
 5285TIP3   OH240049   6.196   5.960  16.207 -0.2500 -0.0524 -0.1190
 5285TIP3    H140050   6.228   5.913  16.284 -0.0091  0.3010 -0.0036
 5285TIP3    H240051   6.273   6.000  16.168 -0.4287  0.1060 -0.3157
 5286TIP3   OH240052   4.277   3.354  18.825 -0.1533 -0.1262  0.1716
 5286TIP3    H140053   4.311   3.435  18.863 -0.3136  0.6286 -1.2231
 5286TIP3    H240054   4.356   3.302  18.807 -0.0445 -0.2628  0.9901
 5287TIP3   OH240055   1.542   5.913  17.579  0.0750 -0.1067  0.5804
 5287TIP3    H140056   1.607   5.892  17.513  0.8382 -1.4670  1.6935
 5287TIP3    H240057   1.472   5.848  17.565 -0.8293  1.0027 -0.2647
 5288TIP3   OH240058   5.886   6.599  19.127 -0.5077  0.4328  0.2546
 5288TIP3    H140059   5.826   6.672  19.139 -1.2244 -0.2773  1.2159
 5288TIP3    H240060   5.829   6.526  19.103  0.3087  0.4247 -1.8000
 5289TIP3   OH240061   2.043   1.479  18.808 -0.0138 -0.2515  0.0764
 5289TIP3    H140062   2.103   1.458  18.736  0.4313  0.7041  0.1529
 5289TIP3    H240063   1.956   1.478  18.769  0.3102  1.4644 -0.7987
 5290TIP3   OH240064   4.847   0.609  16.612  0.0856 -0.5994 -0.0821
 5290TIP3    H140065   4.934   0.643  16.588  0.1370 -1.6579 -1.4970
 5290TIP3    H240066   4.788   0.649  16.549 -0.1575 -1.4374 -0.3976
 5291TIP3   OH240067   0.747   0.878  17.689  0.0296  1.0197  0.3286
 5291TIP3    H140068   0.768   0.893  17.597  0.5069  1.8749  0.5718
 5291TIP3    H240069   0.684   0.946  17.711  2.3300  2.9582  1.4773
 5292TIP3   OH240070   1.143   0.939  16.940 -0.4654 -0.4282 -0.0569
 5292TIP3    H140071   1.160   0.940  16.846 -1.3301 -1.5215 -0.2394
 5292TIP3    H240072   1.220   0.897  16.977 -1.4423 -2.8351 -0.6085
 5293TIP3   OH240073   6.646   2.037  16.920  0.0020  0.2103  0.0912
 5293TIP3    H140074   6.689   2.018  17.003 -0.2334 -0.4573  0.0719
 5293TIP3    H240075   6.682   1.973  16.859  1.1728  1.5498 -0.6797
 5294TIP3   OH240076   5.452   0.665  17.141  0.2847 -0.4997 -0.2660
 5294TIP3    H140077   5.488   0.742  17.098  1.3873 -1.2945 -0.8129
 5294TIP3    H240078   5.360   0.662  17.113  0.2088  0.6514 -0.1628
 5295TIP3   OH240079   5.434   1.029  18.098 -0.6157  0.2122  0.5995
 5295TIP3    H140080   5.387   1.097  18.050  0.1098  1.4622  1.6110
 5295TIP3    H240081   5.371   0.997  18.163 -0.5009  0.9749  1.0965
 5296TIP3   OH240082   6.254   0.736  16.273  0.0923  0.4367 -0.0641
 5296TIP3    H140083   6.187   0.740  16.342  0.0036 -1.7255  0.0395
 5296TIP3    H240084   6.261   0.643  16.252  2.8702  0.6280 -0.2856
 5297TIP3   OH240085   1.688   3.476  18.737  0.3968  0.0448  0.2944
 5297TIP3    H140086   1.764   3.420  18.719  0.7663  0.7732 -0.5015
 5297TIP3    H240087   1.724   3.548  18.790  0.4237  0.7653 -0.6791
 5298TIP3   OH240088   3.265   2.221  18.873 -0.0464 -0.1969 -0.7826
 5298TIP3    H140089   3.269   2.304  18.921 -0.0518  0.4765 -1.9212
 5298TIP3    H240090   3.181   2.183  18.900  1.2721 -1.3527  2.1171
 5299TIP3   OH240091   0.068   5.611  18.560 -1.2546  0.7567 -0.0453
 5299TIP3    H140092   0.059   5.519  18.584  1.4968  0.3911 -0.1067
 5299TIP3    H240093  -0.022   5.644  18.556 -2.2774 -1.7563  0.5478
 5300TIP3   OH240094   1.870   1.702  16.413  0.0659 -0.1259  0.4970
 5300TIP3    H140095   1.788   1.752  16.412  0.5456  0.7052 -1.3627
 5300TIP3    H240096   1.889   1.685  16.321  0.9061 -2.1569  0.9912
 5301TIP3   OH240097   6.367   1.115  18.711 -0.3972 -0.4347  0.1264
 5301TIP3    H140098   6.447   1.085  18.668 -0.5456 -0.7324  0.0595
 5301TIP3    H240099   6.334   1.038  18.756 -1.1215 -0.5403 -0.5688
 5302TIP3   OH240100   2.009   6.020  19.968  0.2131  0.1621  0.6598
 5302TIP3    H140101   2.098   6.042  19.994 -0.3671  0.0855  2.9434
 5302TIP3    H240102   1.958   6.099  19.986 -0.4282 -0.2681  0.7839
 5303TIP3   OH240103   1.369   0.081  17.321  0.2487 -0.2522  0.0144
 5303TIP3    H140104   1.366   0.164  17.273 -1.8525 -1.4160 -2.0920
 5303TIP3    H240105   1.452   0.042  17.295  1.4568  1.3085  1.3536
 5304TIP3   OH240106   5.401   5.591  19.418 -0.0835 -0.0143 -0.3078
 5304TIP3    H140107   5.339   5.644  19.369 -1.1552 -1.4060 -0.5349
 5304TIP3    H240108   5.468   5.566  19.354  0.8662  1.6411 -0.0192
 5305TIP3   OH240109   2.650   6.172  19.142  0.0679  0.3951  0.1612
 5305TIP3    H140110   2.642   6.079  19.123  0.2435  0.5924 -0.9576
 5305TIP3    H240111   2.644   6.215  19.056  0.2368  1.3906  0.6291
 5306TIP3   OH240112   4.371   5.608  17.803  0.2482  0.1579  0.2610
 5306TIP3    H140113   4.335   5.523  17.830 -1.6948  0.8326 -0.0908
 5306TIP3    H240114   4.464   5.601  17.823 -0.0779 -1.5942  1.4409
 5307TIP3   OH240115   1.583   0.492  18.101  0.2034  0.0607 -0.0833
 5307TIP3    H140116   1.664   0.509  18.150 -0.3558 -1.7519  1.5880
 5307TIP3    H240117   1.613   0.456  18.017  1.1596 -0.8478  0.6184
 5308TIP3   OH240118   0.533   1.314  18.025 -0.1840  0.0915 -0.2911
 5308TIP3    H140119   0.596   1.385  18.015  0.4947 -0.3199  0.8322
 5308TIP3    H240120   0.448   1.356  18.013  0.1969  1.1277  0.4577
 5309TIP3   OH240121   6.317   1.872  17.908 -0.3237  0.4398  0.3116
 5309TIP3    H140122   6.287   1.813  17.977 -0.1722 -0.3713 -0.3021
 5309TIP3    H240123   6.270   1.954  17.925  0.7108  0.7117  2.1645
 5310TIP3   OH240124   6.025   5.953  19.599  0.0055  0.0474 -0.2178
 5310TIP3    H140125   6.020   6.006  19.679 -2.3168  0.0977 -0.3348
 5310TIP3    H240126   6.119   5.949  19.579  0.8358 -1.0462  3.2079
 5311TIP3   OH240127   6.720   2.893  16.947  0.1098  0.2465  0.1631
 5311TIP3    H140128   6.740   2.811  16.994  1.4886  0.3274 -0.2204
 5311TIP3    H240129   6.697   2.864  16.859 -1.5714  0.1537  0.6073
 5312TIP3   OH240130   2.236   6.550  16.966 -0.6168  0.2865 -0.7440
 5312TIP3    H140131   2.177   6.624  16.982  0.0186  0.9920 -1.5957
 5312TIP3    H240132   2.192   6.476  17.007 -0.0546  1.5496  2.4701
 5313TIP3   OH240133   5.067   2.859  19.182 -0.2839  0.3429  0.5746
 5313TIP3    H140134   5.045   2.885  19.271  0.7318  0.4561  0.8015
 5313TIP3    H240135   5.143   2.802  19.192  0.5381  1.2479 -0.2935
 5314TIP3   OH240136   6.699   4.922  17.375  0.1810  0.2471 -0.5590
 5314TIP3    H140137   6.736   5.006  17.403  0.0563  0.7827 -1.9358
 5314TIP3    H240138   6.698   4.869  17.454  2.0561  0.8889 -0.0529
 5315TIP3   OH240139   4.685   5.809  19.870  0.2405 -0.2820  0.1513
 5315TIP3    H140140   4.632   5.845  19.799 -0.5793  0.9346  1.3199
 5315TIP3    H240141   4.652   5.720  19.882  0.0215 -0.3104 -0.6269
 5316TIP3   OH240142   3.513   2.446  17.877  0.0762  0.1340  0.1901
 5316TIP3    H140143   3.423   2.434  17.846 -0.8997  1.9409  2.0442
 5316TIP3    H240144   3.557   2.492  17.806 -0.0667 -1.7488 -1.2056
 5317TIP3   OH240145   4.789   0.771  17.785  0.1967  0.2480 -0.3582
 5317TIP3    H140146   4.740   0.697  17.750  0.3859 -0.2868  0.4834
 5317TIP3    H240147   4.873   0.735  17.810  0.6668  0.9618 -0.8596
 5318TIP3   OH240148   3.590   6.605  17.548  0.2735  0.1508 -0.2701
 5318TIP3    H140149   3.602   6.691  17.588  0.7755 -0.8163  1.7606
 5318TIP3    H240150   3.512   6.569  17.592  2.0039 -1.7546  1.4468
 5319TIP3   OH240151   0.953   5.108  18.473 -0.0776 -0.4364  0.0161
 5319TIP3    H140152   1.000   5.071  18.548 -0.8641 -2.6209 -0.4686
 5319TIP3    H240153   1.010   5.176  18.439  0.2192  0.7958  2.6938
 5320TIP3   OH240154   4.639   5.703  17.302  0.1133  0.3726 -0.5585
 5320TIP3    H140155   4.565   5.667  17.253 -0.1222 -3.0903  1.9959
 5320TIP3    H240156   4.600   5.768  17.360  0.0692  2.7104 -2.9617
 5321TIP3   OH240157   5.298   3.553  17.845 -0.2740  0.3759 -0.0392
 5321TIP3    H140158   5.321   3.617  17.913 -1.9293 -0.8012  1.7430
 5321TIP3    H240159   5.202   3.552  17.845 -0.2875 -0.9787 -1.1119
 5322TIP3   OH240160   0.513   3.940  18.800  0.0945 -0.2339  0.6350
 5322TIP3    H140161   0.528   3.995  18.877  0.1987  0.0642  0.3997
 5322TIP3    H240162   0.437   3.887  18.824 -0.5425  0.6168  0.5333
 5323TIP3   OH240163   5.399   5.365  18.415 -0.0283 -0.5422  0.7967
 5323TIP3    H140164   5.363   5.432  18.473  0.2284  0.0549  0.2797
 5323TIP3    H240165   5.383   5.399  18.327  1.9518 -0.1733  0.5473
 5324TIP3   OH240166   2.548   2.948  19.556 -0.0450  0.1132  0.6149
 5324TIP3    H140167   2.458   2.978  19.542  1.4045  4.6854 -0.3429
 5324TIP3    H240168   2.575   2.913  19.471 -1.1586 -2.4510  1.2284
 5325TIP3   OH240169   1.166   4.436  17.490 -0.5159  0.8744 -0.0600
 5325TIP3    H140170   1.174   4.455  17.397 -2.3055 -1.4171 -0.7561
 5325TIP3    H240171   1.195   4.345  17.499 -1.9993  0.4895  1.3144
 5326TIP3   OH240172   1.802   3.421  19.315  0.3128  0.1152 -0.5017
 5326TIP3    H140173   1.856   3.402  19.392  1.8665 -0.6624 -1.7152
 5326TIP3    H240174   1.722   3.371  19.329  0.2775  0.5140  0.8986
 5327TIP3   OH240175   3.013   3.560  18.899 -0.4277 -0.1688  0.5867
 5327TIP3    H140176   2.992   3.523  18.813 -1.0725 -1.1838  1.1588
 5327TIP3    H240177   3.106   3.542  18.911 -0.4148 -0.3307  0.2431
 5328TIP3   OH240178   5.302   2.879  19.382  0.5608 -0.2060 -0.2299
 5328TIP3    H140179   5.330   2.830  19.304  0.1059  1.1280 -1.2661
 5328TIP3    H240180   5.334   2.968  19.367  0.4090  0.0916  1.0930
 5329TIP3   OH240181   1.577   5.777  19.046 -0.4227  0.4015  0.1982
 5329TIP3    H140182   1.580   5.708  19.111 -1.4854  1.3631  1.3330
 5329TIP3    H240183   1.540   5.735  18.968 -1.0456 -0.3203  0.8634
 5330TIP3   OH240184   2.405   0.850  16.509 -0.2008 -0.1377  0.3076
 5330TIP3    H140185   2.324   0.827  16.463  0.6553 -1.3237 -0.6515
 5330TIP3    H240186   2.387   0.831  16.601 -1.0545 -0.2488  0.1256
 5331TIP3   OH240187   0.886   4.824  18.910  0.1471 -0.0552 -0.3287
 5331TIP3    H140188   0.927   4.783  18.987  1.8609 -1.3607 -1.8512
 5331TIP3    H240189   0.859   4.750  18.856 -3.5839  0.7476  0.1435
 5332TIP3   OH240190   3.802   0.033  19.553  0.3618  0.1218  0.6820
 5332TIP3    H140191   3.788   0.046  19.647 -0.6590 -1.6463  0.8181
 5332TIP3    H240192   3.842  -0.054  19.547  0.6967  0.3449 -0.5088
 5333TIP3   OH240193   2.844   5.971  17.753 -0.4739 -0.1738 -0.2180
 5333TIP3    H140194   2.936   5.956  17.732 -0.5080 -1.4480  0.3947
 5333TIP3    H240195   2.842   5.976  17.849 -0.7538  2.1307 -0.2976
 5334TIP3   OH240196   3.144   6.606  17.663  0.1038 -0.1241  0.0307
 5334TIP3    H140197   3.124   6.645  17.578 -0.3634  0.1171  0.2500
 5334TIP3    H240198   3.074   6.541  17.676 -0.3446  0.4796  0.6431
 5335TIP3   OH240199   0.602   5.826  18.895 -0.3663  0.3501  0.0318
 5335TIP3    H140200   0.545   5.806  18.821 -2.9431 -1.7241  2.3302
 5335TIP3    H240201   0.555   5.894  18.944  0.8583  1.0621  0.2710
 5336TIP3   OH240202   0.950   3.410  19.745 -0.2284  0.1441  0.1581
 5336TIP3    H140203   0.940   3.340  19.809  0.4363 -1.3628 -1.3134
 5336TIP3    H240204   1.012   3.375  19.681  0.0130  2.0362 -0.7062
 5337TIP3   OH240205   4.227   1.145  18.060 -0.1251 -0.1416  0.3242
 5337TIP3    H140206   4.284   1.169  17.987 -0.1211 -3.0899 -0.7987
 5337TIP3    H240207   4.287   1.114  18.128 -0.1656  2.0045  1.3943
 5338TIP3   OH240208   4.128   5.959  17.036  0.3084  0.2578  0.4100
 5338TIP3    H140209   4.079   5.946  16.955 -0.9439  0.9482  1.0130
 5338TIP3    H240210   4.137   5.871  17.073 -0.6871  0.1348  0.3897
 5339TIP3   OH240211   4.581   3.343  17.126  0.6390  0.1390  0.4137
 5339TIP3    H140212   4.647   3.384  17.071  1.1830 -1.3648 -0.1170
 5339TIP3    H240213   4.499   3.354  17.078  0.6574  1.1507  0.5996
 5340TIP3   OH240214   6.413   2.689  19.855  0.0403 -0.4532 -0.2865
 5340TIP3    H140215   6.384   2.773  19.819  1.1152  1.1651  2.3780
 5340TIP3    H240216   6.333   2.636  19.858 -0.8394  0.7408 -1.2682
 5341TIP3   OH240217   4.377   2.037  18.614 -0.2877  0.3448 -0.0302
 5341TIP3    H140218   4.384   2.067  18.704  0.3425 -1.5449  0.5888
 5341TIP3    H240219   4.283   2.037  18.595 -0.5791 -1.0352  1.2850
 5342TIP3   OH240220   0.048   4.033  18.739 -0.0226 -0.0573 -1.0419
 5342TIP3    H140221  -0.008   3.961  18.768 -0.5980  0.7186 -0.1628
 5342TIP3    H240222   0.126   3.990  18.704  0.1185 -1.0741  0.4470
 5343TIP3   OH240223   5.219   1.924  18.657 -0.5829  0.4244  0.2652
 5343TIP3    H140224   5.208   1.845  18.604 -0.7044  1.6088 -1.5661
 5343TIP3    H240225   5.146   1.980  18.631 -1.2473  0.6963  2.4689
 5344TIP3   OH240226   5.850   1.222  19.557 -0.2677  0.1884 -0.5957
 5344TIP3    H140227   5.817   1.138  19.525 -0.5109 -0.4876  1.3223
 5344TIP3    H240228   5.802   1.237  19.639  1.1900  1.2391  0.1052
 5345TIP3   OH240229   3.934   3.996  19.636  0.2782  0.3327  0.0380
 5345TIP3    H140230   4.013   4.046  19.658 -0.7778  1.3636  1.7565
 5345TIP3    H240231   3.913   4.022  19.546  0.8985  1.4165  0.1958
 5346TIP3   OH240232   0.304   5.943  19.714  0.1892 -0.5913  0.0567
 5346TIP3    H140233   0.384   5.977  19.754  0.2231 -0.2997 -0.2580
 5346TIP3    H240234   0.239   6.013  19.726  0.1152 -0.6290 -0.1171
 5347TIP3   OH240235   5.650   6.427  17.647 -0.8309 -0.0750 -0.4241
 5347TIP3    H140236   5.558   6.403  17.641 -1.3230  1.0485  1.7444
 5347TIP3    H240237   5.656   6.513  17.605 -0.6388 -0.3739 -1.0280
 5348TIP3   OH240238   4.044   6.740  18.672 -0.4647 -0.0058  0.4442
 5348TIP3    H140239   4.026   6.729  18.765  1.1494 -0.0605  0.7690
 5348TIP3    H240240   4.011   6.827  18.651 -1.3474 -0.2121  0.9190
 5349TIP3   OH240241   6.153   0.361  16.314 -0.1026  0.4052  0.1589
 5349TIP3    H140242   6.182   0.414  16.239  0.1008  0.8826  0.5680
 5349TIP3    H240243   6.102   0.422  16.368  2.5818  1.0802  2.1629
 5350TIP3   OH240244   5.729   5.691  17.894  0.2413  0.2875  1.1575
 5350TIP3    H140245   5.734   5.653  17.806  0.5445  0.2907  1.1752
 5350TIP3    H240246   5.736   5.616  17.952  2.1611  0.4795  1.2232
 5351TIP3   OH240247   2.907   0.715  18.459 -0.0921 -0.7219 -0.2453
 5351TIP3    H140248   2.991   0.734  18.499 -0.3579  0.8531 -0.3614
 5351TIP3    H240249   2.916   0.627  18.423  1.1956 -0.9157  0.5088
 5352TIP3   OH240250   2.429   4.997  17.446 -0.1985  0.1271 -0.4071
 5352TIP3    H140251   2.345   5.038  17.468 -0.8853 -1.1072 -0.6709
 5352TIP3    H240252   2.435   4.922  17.505  0.4886 -0.0847 -0.7403
 5353TIP3   OH240253   0.386   3.800  17.656 -0.2481 -0.3110 -0.0441
 5353TIP3    H140254   0.457   3.827  17.716  0.8338 -0.7952 -1.0622
 5353TIP3    H240255   0.325   3.874  17.656  1.9784  1.6992 -1.7742
 5354TIP3   OH240256   3.108   1.234  19.199 -0.1373 -0.4416  0.2056
 5354TIP3    H140257   3.057   1.313  19.181  0.6879 -0.1745 -1.1027
 5354TIP3    H240258   3.043   1.167  19.219 -0.9509  0.1165 -0.5176
 5355TIP3   OH240259   4.766   1.326  19.563 -0.3722 -0.2893 -0.2386
 5355TIP3    H140260   4.674   1.304  19.578 -0.4522  0.1198 -0.1205
 5355TIP3    H240261   4.814   1.274  19.627 -0.6639  0.9839  1.0606
 5356TIP3   OH240262   4.226   5.068  17.511  0.0621 -0.1727  0.4854
 5356TIP3    H140263   4.177   5.133  17.461 -0.0159  0.3089  1.1674
 5356TIP3    H240264   4.294   5.119  17.556 -0.7828 -0.3401  2.0294
 5357TIP3   OH240265   2.010   3.670  19.434 -0.2501 -0.1970  0.2356
 5357TIP3    H140266   1.934   3.663  19.377  0.7747  1.1551 -1.3977
 5357TIP3    H240267   2.079   3.621  19.389  0.1691 -0.4026  1.0872
 5358TIP3   OH240268   1.466   1.249  18.489  0.1458 -0.2579  0.2600
 5358TIP3    H140269   1.377   1.266  18.519  0.3442  1.1323  0.1362
 5358TIP3    H240270   1.464   1.269  18.395  0.6011 -0.0908  0.2799
 5359TIP3   OH240271   4.090   0.226  17.157  0.2106 -0.0364 -0.3298
 5359TIP3    H140272   4.167   0.262  17.202 -0.3057 -0.0126  0.5612
 5359TIP3    H240273   4.111   0.133  17.144  0.3089 -0.0795  0.1099
 5360TIP3   OH240274   4.919   2.740  18.007 -0.0074 -0.0295 -0.0117
 5360TIP3    H140275   4.977   2.794  17.952 -1.0913  1.8680  0.6341
 5360TIP3    H240276   4.979   2.679  18.051  1.1878  0.1799 -1.2728
 5361TIP3   OH240277   0.301   5.693  19.903 -0.3797 -0.3045 -0.1529
 5361TIP3    H140278   0.216   5.649  19.897 -0.2755 -0.5159 -0.0589
 5361TIP3    H240279   0.286   5.779  19.863 -1.1615  0.4165  1.5534
 5362TIP3   OH240280   5.654   4.393  16.580  0.7141 -0.2837  0.0627
 5362TIP3    H140281   5.627   4.331  16.648  0.1803  0.3847  0.4679
 5362TIP3    H240282   5.697   4.339  16.514  1.1064 -0.9622  0.8624
 5363TIP3   OH240283   4.070   5.148  17.789  0.5662 -0.0044 -0.0696
 5363TIP3    H140284   4.156   5.158  17.748  2.1192 -2.3379  2.3300
 5363TIP3    H240285   4.018   5.100  17.724  0.8181  1.8808 -1.7539
 5364TIP3   OH240286   3.691   6.289  18.582  0.2508  0.2074 -0.1471
 5364TIP3    H140287   3.779   6.318  18.605  0.3317 -0.7337  0.7956
 5364TIP3    H240288   3.682   6.203  18.624 -0.3194 -0.7131 -2.0239
 5365TIP3   OH240289   1.922   5.754  18.830  0.1744 -0.1750  0.7761
 5365TIP3    H140290   1.930   5.838  18.785 -0.2019 -0.3520  0.3715
 5365TIP3    H240291   1.907   5.690  18.759 -0.4265 -0.4552  1.1480
 5366TIP3   OH240292   1.447   6.606  18.108  0.2331  0.4252 -0.1225
 5366TIP3    H140293   1.426   6.592  18.015  1.0136  1.1595 -0.4154
 5366TIP3    H240294   1.538   6.579  18.117 -0.2535 -1.0004  0.7547
 5367TIP3   OH240295   0.474   0.420  18.804 -0.0791  0.1870 -0.7018
 5367TIP3    H140296   0.515   0.335  18.819 -2.6762 -0.8226  1.5778
 5367TIP3    H240297   0.442   0.447  18.890 -2.7286  1.5714 -1.9903
 5368TIP3   OH240298   0.748   3.877  17.578  0.2711  0.7570 -0.0788
 5368TIP3    H140299   0.667   3.927  17.583  0.0845  0.3470  1.5172
 5368TIP3    H240300   0.753   3.849  17.486 -1.1343  1.1991 -0.3169
 5369TIP3   OH240301   4.785   1.071  18.352  0.4862 -0.2828  0.0517
 5369TIP3    H140302   4.838   1.060  18.273  1.3717 -0.0868  0.6042
 5369TIP3    H240303   4.775   1.166  18.361 -1.6765 -0.3214 -1.1374
 5370TIP3   OH240304   2.529   2.208  19.614  0.3550  0.2247  0.4607
 5370TIP3    H140305   2.572   2.231  19.696  1.0893 -0.8831  0.4032
 5370TIP3    H240306   2.478   2.129  19.635 -0.1923  0.4634  0.0695
 5371TIP3   OH240307   6.350   2.634  20.179  0.2877 -0.2247 -0.1959
 5371TIP3    H140308   6.418   2.570  20.159 -0.0950 -0.1884 -1.8046
 5371TIP3    H240309   6.397   2.709  20.215  0.8674 -0.9465  0.5918
 5372TIP3   OH240310   6.161   4.183  20.023  0.4452 -0.3143  0.4739
 5372TIP3    H140311   6.185   4.098  20.061  0.1262 -0.1387  1.0816
 5372TIP3    H240312   6.221   4.245  20.063  0.4652 -0.2019  0.2708
 5373TIP3   OH240313   1.028   3.901  17.972 -0.7761  0.1482 -0.2882
 5373TIP3    H140314   1.045   3.980  17.920 -1.7094  1.1338  0.8131
 5373TIP3    H240315   1.115   3.867  17.995 -0.3624  0.0119 -1.9818
 5374TIP3   OH240316   4.914   4.357  17.431 -0.2896  0.0088  0.0540
 5374TIP3    H140317   4.882   4.297  17.363 -2.4198  1.8636 -0.7205
 5374TIP3    H240318   4.868   4.329  17.510  1.2836 -1.4018  0.5282
 5375TIP3   OH240319   3.585   5.502  17.741 -0.2459  0.1133 -0.2001
 5375TIP3    H140320   3.619   5.591  17.746  0.0352  0.0469 -0.7935
 5375TIP3    H240321   3.555   5.493  17.651  0.1223 -0.5262 -0.2684
 5376TIP3   OH240322   6.279   5.110  19.572 -0.1673 -0.2233 -0.4701
 5376TIP3    H140323   6.233   5.137  19.492 -0.9605  0.6177  0.2593
 5376TIP3    H240324   6.249   5.170  19.639  1.4222 -0.1531  0.2210
 5377TIP3   OH240325   1.791   1.033  17.356 -0.4500  0.2881 -0.0617
 5377TIP3    H140326   1.738   1.065  17.283 -0.3125 -1.2706 -0.8930
 5377TIP3    H240327   1.872   1.083  17.349 -1.2359  1.6566  0.3377
 5378TIP3   OH240328   1.796   3.545  19.654  0.3943 -0.0702 -0.5175
 5378TIP3    H140329   1.864   3.504  19.601  1.8538  0.2442  1.0407
 5378TIP3    H240330   1.844   3.595  19.720 -1.3572  0.3869  0.4602
 5379TIP3   OH240331   1.569   2.553  17.485  0.6518 -0.4919  0.2314
 5379TIP3    H140332   1.623   2.564  17.407 -1.1883  0.2855 -0.9957
 5379TIP3    H240333   1.589   2.629  17.540  1.8804 -0.9930  0.5063
 5380TIP3   OH240334   1.881   0.911  17.684  0.3688  0.1847  0.1495
 5380TIP3    H140335   1.803   0.863  17.711  1.2262 -1.6524 -0.4373
 5380TIP3    H240336   1.874   0.917  17.589  0.8267  0.2189  0.1143
 5381TIP3   OH240337   0.893   5.010  16.977  0.0885  0.0656  0.2686
 5381TIP3    H140338   0.890   5.084  16.916  1.3082  0.0588  0.1707
 5381TIP3    H240339   0.980   4.972  16.964  0.8345  0.7367  2.7955
 5382TIP3   OH240340   4.669   2.505  17.830 -0.4721  0.0790  0.6582
 5382TIP3    H140341   4.660   2.410  17.827 -0.7374  0.0086  2.5223
 5382TIP3    H240342   4.742   2.524  17.771 -0.4906 -1.2666  0.1811
 5383TIP3   OH240343   1.427   4.513  19.021  0.0742  0.3243 -0.1397
 5383TIP3    H140344   1.416   4.606  19.004  1.2527  0.4891 -0.1210
 5383TIP3    H240345   1.447   4.475  18.935  1.9022  0.4886  0.1655
 5384TIP3   OH240346   3.137   2.767  16.700  0.1088 -0.3084  0.7134
 5384TIP3    H140347   3.056   2.716  16.704 -1.4829  1.7699 -1.9374
 5384TIP3    H240348   3.119   2.845  16.752  0.6862 -0.1553  0.6945
 5385TIP3   OH240349   5.475   1.958  17.893 -0.4318 -0.7494 -0.0677
 5385TIP3    H140350   5.568   1.969  17.911 -0.7340  1.0303  0.6775
 5385TIP3    H240351   5.461   2.004  17.811 -1.0196  1.1425  1.0221
 5386TIP3   OH240352   6.093   3.857  18.183  0.0266 -0.1079 -0.0876
 5386TIP3    H140353   5.997   3.860  18.188 -0.2723 -3.6154 -0.9173
 5386TIP3    H240354   6.120   3.817  18.265  0.9162  1.5415  0.4630
 5387TIP3   OH240355   2.081   6.704  18.985 -0.3895  0.5087  0.2284
 5387TIP3    H140356   2.032   6.773  18.939 -0.1020 -0.1509 -1.1239
 5387TIP3    H240357   2.171   6.737  18.988 -0.5867  0.9825  1.2171
 5388TIP3   OH240358   5.547   0.834  18.691 -0.3153  0.3846 -0.5801
 5388TIP3    H140359   5.614   0.766  18.683  2.6221  2.8633  0.9620
 5388TIP3    H240360   5.556   0.886  18.611  1.6103  2.2785  0.7751
 5389TIP3   OH240361   4.720   1.826  17.359 -0.4620  0.0127 -0.3758
 5389TIP3    H140362   4.704   1.838  17.265  0.0382  2.5376 -0.2085
 5389TIP3    H240363   4.800   1.773  17.362  0.7526  1.6389 -1.4864
 5390TIP3   OH240364   5.709   3.231  18.721  0.0926  0.1377  0.4174
 5390TIP3    H140365   5.756   3.156  18.757  2.0540  0.3149 -1.5922
 5390TIP3    H240366   5.776   3.298  18.710 -1.0596  1.1731 -0.5769
 5391TIP3   OH240367   3.269   5.308   9.794 -0.0545  0.5182 -0.1325
 5391TIP3    H140368   3.354   5.339   9.762  0.5899 -1.1540 -0.1429
 5391TIP3    H240369   3.223   5.388   9.820  0.3965  1.7447 -2.7212
 5392TIP3   OH240370   2.522   1.584   9.387 -0.3201  0.3201 -0.5703
 5392TIP3    H140371   2.465   1.566   9.462  0.7589 -0.7942 -0.0075
 5392TIP3    H240372   2.528   1.501   9.340  0.3823  0.5787 -0.9514
 5393TIP3   OH240373   0.452   5.572  10.726  0.3668 -0.1356  0.0393
 5393TIP3    H140374   0.478   5.513  10.797 -0.7406 -0.3333  0.2974
 5393TIP3    H240375   0.520   5.640  10.726  1.1019 -0.8535  0.4046
 5394TIP3   OH240376   6.710   1.231  10.579  0.0306  0.5588  0.1093
 5394TIP3    H140377   6.626   1.267  10.607 -0.6365 -0.9868  0.1843
 5394TIP3    H240378   6.700   1.136  10.586  1.4691  0.2985 -0.7689
 5395TIP3   OH240379   4.195   5.476  10.475 -0.6590  0.2864  0.0657
 5395TIP3    H140380   4.120   5.533  10.487 -1.0636 -0.3312  0.5558
 5395TIP3    H240381   4.187   5.410  10.544  0.7637  0.6644  0.6385
 5396TIP3   OH240382   0.475   4.096   9.292 -0.7292  0.3020 -0.4627
 5396TIP3    H140383   0.507   4.082   9.382 -1.1079  0.6096 -0.2771
 5396TIP3    H240384   0.485   4.190   9.278  0.5261  0.0826 -1.2127
 5397TIP3   OH240385   3.322   1.887   8.942 -0.9531 -0.2979  0.0111
 5397TIP3    H140386   3.385   1.837   8.890 -0.6626  1.1200 -1.0564
 5397TIP3    H240387   3.351   1.978   8.935 -2.8787  0.3595 -0.1758
 5398TIP3   OH240388   4.309   4.107  11.012 -0.2264  0.1653  0.4093
 5398TIP3    H140389   4.314   4.121  11.107  0.0501  2.5379  0.1085
 5398TIP3    H240390   4.290   4.014  11.002  0.6596 -0.3219  2.7631
 5399TIP3   OH240391   0.437   3.195   8.777 -0.6543 -0.4298 -0.3970
 5399TIP3    H140392   0.520   3.150   8.761  0.6044  1.1785  1.2474
 5399TIP3    H240393   0.429   3.258   8.705 -1.2060 -1.5607 -1.3533
 5400TIP3   OH240394   1.838   2.856  12.648  0.2300  0.1131  0.1432
 5400TIP3    H140395   1.820   2.946  12.676 -2.3267 -0.3688  0.3018
 5400TIP3    H240396   1.881   2.865  12.563  0.9127  1.4843  0.6110
 5401TIP3   OH240397   0.713   0.121  10.557  0.0472 -0.3302  0.1140
 5401TIP3    H140398   0.703   0.169  10.475  0.3855 -2.2361 -1.1108
 5401TIP3    H240399   0.808   0.113  10.567  0.0214  0.3473  1.0016
 5402TIP3   OH240400   0.629   2.203   8.867  0.3231 -0.0427  0.2453
 5402TIP3    H140401   0.714   2.163   8.888  0.1772  0.0060  0.9593
 5402TIP3    H240402   0.573   2.179   8.941  0.8265  3.3738  1.9028
 5403TIP3   OH240403   0.577   2.986  10.145  0.2852  0.5127 -0.1834
 5403TIP3    H140404   0.533   3.060  10.102 -0.3504  0.1223 -0.2244
 5403TIP3    H240405   0.570   3.005  10.239 -1.0056 -0.0910 -0.1304
 5404TIP3   OH240406   2.878   3.489   9.023  0.2999  0.0394  0.5129
 5404TIP3    H140407   2.821   3.429   9.072  0.3497  0.0484  0.5823
 5404TIP3    H240408   2.966   3.453   9.034  0.1834 -0.5811 -0.4958
 5405TIP3   OH240409   0.953   0.196  10.767  0.3035 -0.2120  0.2861
 5405TIP3    H140410   1.029   0.223  10.716 -0.5208 -0.2357 -1.0193
 5405TIP3    H240411   0.905   0.278  10.783 -0.5015 -0.4495 -0.8073
 5406TIP3   OH240412   3.234   2.397  10.991 -0.3557  0.4561  0.4116
 5406TIP3    H140413   3.258   2.374  11.080  1.0235  0.0028 -0.0535
 5406TIP3    H240414   3.139   2.383  10.987 -0.3200 -0.2109  1.5963
 5407TIP3   OH240415   5.074   5.623  10.893  0.2508  0.4126  0.1963
 5407TIP3    H140416   5.001   5.561  10.901  0.3812 -0.1628 -2.1615
 5407TIP3    H240417   5.053   5.674  10.815  1.5975  1.3418  0.4159
 5408TIP3   OH240418   1.816   2.402  10.586  0.3800  0.3742  0.1083
 5408TIP3    H140419   1.869   2.460  10.532 -0.9716 -0.0109 -1.7100
 5408TIP3    H240420   1.727   2.435  10.576 -0.1153 -0.7078  0.7928
 5409TIP3   OH240421   2.629   4.810  12.411 -0.6192 -0.6126  0.2481
 5409TIP3    H140422   2.536   4.804  12.434 -0.5950  0.3483  0.6212
 5409TIP3    H240423   2.635   4.887  12.355 -0.3210 -1.6908 -1.2944
 5410TIP3   OH240424   0.279   5.091   8.324 -0.0455 -0.4224  0.1291
 5410TIP3    H140425   0.315   5.169   8.365  3.7143 -1.0953 -1.4637
 5410TIP3    H240426   0.329   5.081   8.243 -2.0688 -3.1579 -0.9531
 5411TIP3   OH240427   5.017   2.554  11.235  0.3611  0.2078 -0.0992
 5411TIP3    H140428   4.986   2.554  11.144 -0.8787  0.3130  0.3136
 5411TIP3    H240429   5.040   2.463  11.252 -1.0648 -0.1530  0.0121
 5412TIP3   OH240430   4.780   3.186   9.470 -0.0888 -0.1855  0.3562
 5412TIP3    H140431   4.754   3.125   9.539 -1.6565  0.9986  0.8729
 5412TIP3    H240432   4.727   3.159   9.394 -1.5752  1.0876  0.8787
 5413TIP3   OH240433   6.660   5.402  10.305 -0.0947  0.5656 -0.0368
 5413TIP3    H140434   6.617   5.338  10.362 -0.3570 -0.3596 -1.2273
 5413TIP3    H240435   6.690   5.350  10.229 -0.3262  1.8429 -1.0365
 5414TIP3   OH240436   1.965   5.778   9.702  0.3704 -0.0439  0.0990
 5414TIP3    H140437   1.872   5.789   9.723  0.2438  3.4736 -1.5764
 5414TIP3    H240438   1.968   5.699   9.648 -1.1313 -1.7683  2.3340
 5415TIP3   OH240439   5.510   2.578   8.920  0.1625  0.1067 -0.2022
 5415TIP3    H140440   5.437   2.609   8.974  0.7738  1.4885 -0.1260
 5415TIP3    H240441   5.552   2.510   8.972 -1.6688 -1.4803 -0.6872
 5416TIP3   OH240442   1.516   0.258   9.889 -0.3759 -0.3472 -0.2333
 5416TIP3    H140443   1.588   0.314   9.860 -0.9427  0.9640  0.7599
 5416TIP3    H240444   1.525   0.256   9.984 -1.5932 -0.2255 -0.1048
 5417TIP3   OH240445   2.948   4.971  11.562 -0.1809 -0.3163  0.3539
 5417TIP3    H140446   3.007   4.989  11.489 -1.1718 -0.5693 -0.5318
 5417TIP3    H240447   2.990   4.899  11.610  0.9181  0.4510  0.5695
 5418TIP3   OH240448   2.831   5.971  10.237  0.1276  0.4950 -0.1063
 5418TIP3    H140449   2.760   6.000  10.294  1.3130  0.6680  1.3480
 5418TIP3    H240450   2.900   6.036  10.250  0.7142  0.1055 -1.1645
 5419TIP3   OH240451   3.804   4.782   9.662 -0.6872  0.4314  0.0095
 5419TIP3    H140452   3.830   4.721   9.593 -2.3560  1.1634 -1.3120
 5419TIP3    H240453   3.730   4.740   9.705 -0.6383  0.6896  0.3525
 5420TIP3   OH240454   4.642   5.053   8.599  0.0687 -0.5353 -0.3082
 5420TIP3    H140455   4.565   5.055   8.656 -0.2085 -0.7731 -0.6703
 5420TIP3    H240456   4.633   5.130   8.543  0.4954 -0.1352  0.1637
 5421TIP3   OH240457   2.151   4.663   9.585 -0.8004 -0.1537 -0.4192
 5421TIP3    H140458   2.089   4.640   9.654 -1.5154  2.8772  0.1049
 5421TIP3    H240459   2.193   4.743   9.616  0.5030  0.0608 -2.5263
 5422TIP3   OH240460   3.560   6.399   9.422  0.7184  0.0308 -0.3468
 5422TIP3    H140461   3.505   6.336   9.375 -1.2568  0.9639  0.5685
 5422TIP3    H240462   3.506   6.478   9.427  2.5647  1.3427 -0.2357
 5423TIP3   OH240463   2.862   2.262  10.965  0.2201 -0.0426 -0.0818
 5423TIP3    H140464   2.805   2.231  11.036  0.3338 -0.7866 -0.2995
 5423TIP3    H240465   2.888   2.182  10.920  1.0413  0.3323 -0.2872
 5424TIP3   OH240466   2.075   2.713   8.999 -0.2141  0.2733 -0.4844
 5424TIP3    H140467   2.040   2.682   9.083 -1.2782 -2.3652 -1.7657
 5424TIP3    H240468   2.166   2.735   9.017 -0.6446  0.6050  1.5186
 5425TIP3   OH240469   3.828   4.019   9.831  0.4384  0.1622  0.3027
 5425TIP3    H140470   3.849   4.020   9.924  0.3014  0.7358  0.3303
 5425TIP3    H240471   3.741   4.059   9.825  0.5854  0.4307 -0.1001
 5426TIP3   OH240472   6.335   3.614  11.675 -0.0888  0.8762  0.1703
 5426TIP3    H140473   6.314   3.696  11.719 -0.5003 -0.2222  2.0908
 5426TIP3    H240474   6.416   3.584  11.717 -1.9122 -1.5502  2.2645
 5427TIP3   OH240475   2.772   1.193   9.310  0.4816  0.5756  0.5150
 5427TIP3    H140476   2.783   1.116   9.255  0.6261  0.0140  1.3133
 5427TIP3    H240477   2.857   1.237   9.307 -0.4600  2.4778 -2.4813
 5428TIP3   OH240478   4.341   5.458   8.971 -0.3293  0.1001 -0.0675
 5428TIP3    H140479   4.425   5.413   8.972 -0.9510 -1.3176 -2.5011
 5428TIP3    H240480   4.296   5.427   9.050  0.1846 -1.7606 -0.4495
 5429TIP3   OH240481   3.757   5.604   8.692  0.4884  0.3708 -0.2037
 5429TIP3    H140482   3.717   5.522   8.664 -0.4394  0.6836  0.1575
 5429TIP3    H240483   3.721   5.620   8.780  1.9136  0.3425  0.4122
 5430TIP3   OH240484   1.106   0.102   9.566 -0.1074  0.4039 -0.2082
 5430TIP3    H140485   1.120   0.031   9.502  0.6387  0.0550  0.3305
 5430TIP3    H240486   1.193   0.124   9.597 -0.2856  1.8922 -0.6978
 5431TIP3   OH240487   1.574   6.219   9.350 -0.3772  0.1009  0.1823
 5431TIP3    H140488   1.478   6.213   9.355 -0.3721  0.2329  0.4441
 5431TIP3    H240489   1.595   6.302   9.393 -0.2652  0.9219 -1.3796
 5432TIP3   OH240490   5.136   5.054  10.423 -0.8275  0.2371  0.2519
 5432TIP3    H140491   5.046   5.023  10.422 -1.1127  1.0249  0.6392
 5432TIP3    H240492   5.174   5.013  10.501 -1.0529  0.4565  0.4785
 5433TIP3   OH240493   1.824   3.259   9.002 -0.3521  0.2215  0.5548
 5433TIP3    H140494   1.756   3.322   8.976 -0.6597 -0.4450 -0.3203
 5433TIP3    H240495   1.811   3.185   8.943  2.3723  0.8558 -1.0055
 5434TIP3   OH240496   6.496   3.777  11.006 -0.7775  0.3380 -0.7684
 5434TIP3    H140497   6.577   3.754  11.050 -1.1638 -0.5962 -0.5124
 5434TIP3    H240498   6.523   3.799  10.916 -0.2635 -0.1789 -0.7471
 5435TIP3   OH240499   0.852   0.823   9.017 -0.3419 -0.3313 -0.8834
 5435TIP3    H140500   0.767   0.843   8.977  0.1815 -1.5422 -2.7691
 5435TIP3    H240501   0.833   0.754   9.080 -0.8606  0.0055 -0.6578
 5436TIP3   OH240502   2.206   0.269   8.807 -0.4251  0.2674 -0.1592
 5436TIP3    H140503   2.294   0.251   8.774 -0.1134  0.7179  0.4252
 5436TIP3    H240504   2.195   0.363   8.796 -0.7138  0.2602  0.0723
 5437TIP3   OH240505   3.827   0.430   8.940  0.1396 -0.2194 -0.2532
 5437TIP3    H140506   3.880   0.386   9.007 -0.9226  0.2734  0.9389
 5437TIP3    H240507   3.854   0.521   8.944  0.2004 -0.2163 -0.6470
 5438TIP3   OH240508   4.865   6.171  10.634  0.6342  0.7223  0.7312
 5438TIP3    H140509   4.901   6.105  10.575  1.0925  1.7430 -0.1715
 5438TIP3    H240510   4.942   6.208  10.679  0.2309 -0.6941  2.7498
 5439TIP3   OH240511   5.290   1.136   9.572 -0.0014 -0.1181  0.4543
 5439TIP3    H140512   5.331   1.172   9.651  1.4675  1.3786 -0.8985
 5439TIP3    H240513   5.197   1.131   9.593  0.3161  0.5042  2.1770
 5440TIP3   OH240514   1.207   2.956  11.361 -0.8682  0.0159 -0.4661
 5440TIP3    H140515   1.207   2.958  11.456 -0.3825  0.5912 -0.4723
 5440TIP3    H240516   1.165   2.873  11.338 -1.5012  0.1384  0.2406
 5441TIP3   OH240517   2.845   3.766   9.004  0.2348 -0.1679 -0.1886
 5441TIP3    H140518   2.934   3.790   8.979  0.5514 -1.4482 -0.3607
 5441TIP3    H240519   2.844   3.671   9.003 -1.4672 -0.1876 -1.3494
 5442TIP3   OH240520   5.652   5.304   9.836 -0.1618 -0.1586  0.0162
 5442TIP3    H140521   5.656   5.227   9.779 -1.0409  0.0896 -0.3897
 5442TIP3    H240522   5.584   5.283   9.900  0.7392 -0.3909  0.9363
 5443TIP3   OH240523   1.699   5.193   8.849 -0.5100  0.0646 -0.2652
 5443TIP3    H140524   1.670   5.219   8.937 -2.6641 -4.0947  0.5387
 5443TIP3    H240525   1.791   5.172   8.859 -0.4273  0.7831  0.6552
 5444TIP3   OH240526   4.881   6.546  11.000  0.1595  0.0409 -0.2769
 5444TIP3    H140527   4.811   6.491  10.965 -0.0056  1.0508 -1.6039
 5444TIP3    H240528   4.842   6.633  11.006  1.1232  0.4968 -0.4544
 5445TIP3   OH240529   2.559   0.949   9.427 -1.0084 -0.0191  0.0107
 5445TIP3    H140530   2.477   0.998   9.426 -1.1832 -0.3154 -0.4618
 5445TIP3    H240531   2.555   0.898   9.507 -0.3027  1.5944  1.1318
 5446TIP3   OH240532   3.379   1.066  11.036 -0.0563 -0.2687 -0.4229
 5446TIP3    H140533   3.332   1.117  11.102 -1.8512  0.3425 -2.0705
 5446TIP3    H240534   3.451   1.123  11.008 -0.5999  0.3674 -0.5448
 5447TIP3   OH240535   1.926   2.752   8.616  0.3364  0.1351  0.4853
 5447TIP3    H140536   2.019   2.728   8.624  0.8326  1.1955 -1.5906
 5447TIP3    H240537   1.883   2.670   8.590  0.5493 -0.4961  1.9804
 5448TIP3   OH240538   6.546   0.599   9.445  0.0859 -0.1256  0.1033
 5448TIP3    H140539   6.530   0.524   9.503 -0.3212 -0.5475 -0.5409
 5448TIP3    H240540   6.543   0.675   9.503  0.2286 -0.5851  0.7206
 5449TIP3   OH240541   5.557   1.903   9.319  0.2003  0.0199  0.2891
 5449TIP3    H140542   5.588   1.876   9.405 -1.2462 -1.1047  0.4882
 5449TIP3    H240543   5.478   1.953   9.336 -0.5363 -0.8713 -0.4018
 5450TIP3   OH240544   5.756   0.092  11.351  0.0577 -0.1366 -0.1415
 5450TIP3    H140545   5.743   0.011  11.301 -1.0387 -0.5729  0.8026
 5450TIP3    H240546   5.675   0.141  11.338  0.7751  0.8875 -0.8219
 5451TIP3   OH240547   3.326   2.886  11.428 -0.4576 -0.6958  0.1686
 5451TIP3    H140548   3.237   2.889  11.465 -0.7205 -3.8793  0.1187
 5451TIP3    H240549   3.365   2.808  11.467  1.1645 -1.2019 -2.2320
 5452TIP3   OH240550   6.498   1.823  10.782 -0.0092 -0.0401  0.3423
 5452TIP3    H140551   6.535   1.874  10.854  1.9355  0.1163 -0.7145
 5452TIP3    H240552   6.499   1.733  10.813  1.1982 -0.0250  0.3643
 5453TIP3   OH240553   1.382   4.664   8.960  0.1368  0.4937  0.0868
 5453TIP3    H140554   1.299   4.681   9.004  0.1016  0.7341 -0.0726
 5453TIP3    H240555   1.384   4.725   8.887  1.1847  1.6497  1.0309
 5454TIP3   OH240556   5.688   1.546  10.695  0.4334  0.1020 -0.4377
 5454TIP3    H140557   5.615   1.582  10.745  0.8516 -0.6607  0.7546
 5454TIP3    H240558   5.741   1.622  10.671 -0.9717  0.7261 -1.7401
 5455TIP3   OH240559   0.393   3.008   9.386  0.3414 -0.0533 -0.2375
 5455TIP3    H140560   0.371   2.992   9.294  0.0022 -0.3974 -0.0997
 5455TIP3    H240561   0.379   3.102   9.398 -1.9779 -0.3916  0.0727
 5456TIP3   OH240562   6.096   6.722   9.357 -0.0360  0.1863  0.1480
 5456TIP3    H140563   6.104   6.814   9.331  0.8947  0.1548  0.2970
 5456TIP3    H240564   6.172   6.706   9.413 -0.0904 -0.7259 -0.0210
 5457TIP3   OH240565   1.999   6.188  11.666  0.2633  0.3191  0.6444
 5457TIP3    H140566   1.925   6.223  11.715 -1.5405 -0.0020 -1.6515
 5457TIP3    H240567   2.022   6.107  11.711  0.0172  1.0247  2.0804
 5458TIP3   OH240568   3.743   3.982  12.955 -0.0000 -0.1126 -0.5688
 5458TIP3    H140569   3.756   4.056  13.014 -0.8411  0.7434 -1.4320
 5458TIP3    H240570   3.727   4.021  12.869 -1.6777 -1.2268 -0.8243
 5459TIP3   OH240571   4.175   3.342  11.002  0.2791 -0.2108  0.4480
 5459TIP3    H140572   4.228   3.316  10.927  2.0860 -0.6115  1.7977
 5459TIP3    H240573   4.085   3.319  10.977  1.0367 -1.8778 -0.9360
 5460TIP3   OH240574   1.616   4.982   9.079  0.1257  0.1516  0.5942
 5460TIP3    H140575   1.562   5.042   9.027  1.1550  0.7444  0.1791
 5460TIP3    H240576   1.670   5.040   9.133  2.5207 -0.2774 -1.1947
 5461TIP3   OH240577   2.046   5.236  12.661 -0.2911  0.5109 -0.1851
 5461TIP3    H140578   2.075   5.286  12.737  2.0183 -1.6236  0.4797
 5461TIP3    H240579   2.037   5.301  12.591  1.1819  2.0388  0.9722
 5462TIP3   OH240580   4.668   4.614  10.233  0.1448  0.1724  0.1793
 5462TIP3    H140581   4.626   4.670  10.299  0.0563 -0.4078  0.6336
 5462TIP3    H240582   4.761   4.615  10.256  0.1847  0.3637  0.0097
 5463TIP3   OH240583   0.485   6.708   9.901  0.1896 -0.1349  0.0492
 5463TIP3    H140584   0.494   6.657   9.982  0.9666 -0.4225 -0.2074
 5463TIP3    H240585   0.574   6.740   9.883 -0.1126  0.5117 -0.3132
 5464TIP3   OH240586   2.770   4.999  10.417  0.1071 -0.3516 -0.3420
 5464TIP3    H140587   2.705   5.067  10.399 -0.6511 -0.7800  0.6723
 5464TIP3    H240588   2.853   5.038  10.390 -0.2895  1.0458  0.3554
 5465TIP3   OH240589   1.359   3.761   8.913 -0.3204 -0.2160  0.4431
 5465TIP3    H140590   1.404   3.750   8.996  0.3755  0.7490  0.2047
 5465TIP3    H240591   1.404   3.702   8.853  1.1322  1.2620  0.0257
 5466TIP3   OH240592   1.123   6.383   8.602 -0.0373  0.1380  0.2609
 5466TIP3    H140593   1.176   6.337   8.668 -0.6393 -0.3580  0.4176
 5466TIP3    H240594   1.062   6.316   8.570 -0.2339  0.5668 -0.2719
 5467TIP3   OH240595   2.387   5.699  11.062 -0.8547 -0.5086  0.4709
 5467TIP3    H140596   2.353   5.779  11.100 -0.7590 -1.0059  1.6469
 5467TIP3    H240597   2.475   5.690  11.100  0.4767  0.4915 -2.0977
 5468TIP3   OH240598   2.247   1.484   8.831 -0.4808 -0.1010 -0.1555
 5468TIP3    H140599   2.202   1.400   8.820 -0.3860 -0.3873  1.4391
 5468TIP3    H240600   2.253   1.519   8.742 -2.9175 -0.5351 -0.5816
 5469TIP3   OH240601   2.197   1.976  12.331  0.3779  0.1799 -0.1763
 5469TIP3    H140602   2.274   2.034  12.329 -0.0470  0.7442 -0.3344
 5469TIP3    H240603   2.150   2.001  12.410  0.6617 -0.5802  0.2469
 5470TIP3   OH240604   4.702   2.079   8.866  0.1830  0.0734 -0.0966
 5470TIP3    H140605   4.736   2.125   8.942  0.9558  1.8883 -1.4505
 5470TIP3    H240606   4.737   2.128   8.791  0.6730 -2.4673 -1.6693
 5471TIP3   OH240607   4.290   0.337  10.649 -0.0315  0.2927 -0.4537
 5471TIP3    H140608   4.346   0.399  10.602 -0.2292  0.4478 -0.4863
 5471TIP3    H240609   4.252   0.282  10.580 -0.2277  0.4431 -0.4668
 5472TIP3   OH240610   4.973   2.584   9.556 -0.5549  0.1278 -0.4608
 5472TIP3    H140611   4.884   2.618   9.549 -0.4528  1.3338  2.4534
 5472TIP3    H240612   4.962   2.491   9.573 -1.1918  0.0886 -1.0329
 5473TIP3   OH240613   2.217   5.440  10.317 -0.1459 -0.6496  0.2029
 5473TIP3    H140614   2.122   5.442  10.321 -0.1504  1.0039  0.0227
 5473TIP3    H240615   2.246   5.487  10.396  0.4606  0.4757 -0.6588
 5474TIP3   OH240616   2.884   6.363   9.128  0.5608 -0.5508 -0.3847
 5474TIP3    H140617   2.918   6.293   9.184  0.1949  0.1072  0.6815
 5474TIP3    H240618   2.962   6.407   9.095  0.7811 -0.6121  0.0399
 5475TIP3   OH240619   2.469   4.226  11.574  0.0092  0.3644  0.1087
 5475TIP3    H140620   2.468   4.131  11.569  1.3088  0.4132 -1.7211
 5475TIP3    H240621   2.378   4.251  11.556  0.0726 -0.4685 -1.5292
 5476TIP3   OH240622   3.768   3.331  11.892  0.2098 -0.3813 -0.6357
 5476TIP3    H140623   3.787   3.288  11.809 -0.1551  1.0576 -1.4790
 5476TIP3    H240624   3.793   3.266  11.958  1.2050 -1.2694 -1.8384
 5477TIP3   OH240625   0.038   6.483  10.483  0.4496 -0.2084  0.7509
 5477TIP3    H140626  -0.047   6.526  10.477  0.4936 -0.2992 -1.2167
 5477TIP3    H240627   0.026   6.415  10.549 -1.1930 -0.5990  0.0982
 5478TIP3   OH240628   2.280   3.259  11.194  0.4186 -0.3151 -0.3371
 5478TIP3    H140629   2.194   3.301  11.185 -0.4860 -1.5450  1.7531
 5478TIP3    H240630   2.322   3.305  11.266  1.4463  0.1277 -1.1985
 5479TIP3   OH240631   1.429   1.029  10.111 -0.4559  0.7212  0.5044
 5479TIP3    H140632   1.468   0.945  10.136 -0.5818  0.8773  1.2672
 5479TIP3    H240633   1.457   1.042  10.021  1.1920  0.7687  0.9822
 5480TIP3   OH240634   0.998   3.983   9.447  0.5865 -0.5454  0.2092
 5480TIP3    H140635   1.033   3.986   9.359 -1.5134 -0.2691 -0.6870
 5480TIP3    H240636   1.009   3.892   9.475 -0.2614 -1.0583 -1.0492
 5481TIP3   OH240637   1.339   3.826  11.673 -0.2271 -0.3371 -0.6955
 5481TIP3    H140638   1.264   3.782  11.714 -1.0713  2.4614  1.0753
 5481TIP3    H240639   1.372   3.885  11.741  2.7620 -0.4462 -1.9037
 5482TIP3   OH240640   1.279   5.895  11.276  1.2291 -0.3311 -0.0869
 5482TIP3    H140641   1.304   5.986  11.261  0.0391  0.0954  0.4233
 5482TIP3    H240642   1.277   5.855  11.189 -0.4258  0.7175 -0.5544
 5483TIP3   OH240643   0.543   6.151  11.447  0.1984  0.2470 -0.3543
 5483TIP3    H140644   0.483   6.078  11.429 -0.3733  0.5115  0.4278
 5483TIP3    H240645   0.511   6.189  11.529  0.0918  1.7738 -1.0606
 5484TIP3   OH240646   6.767   0.225   9.377  0.3345 -0.5002 -0.1954
 5484TIP3    H140647   6.843   0.273   9.411  1.7938 -2.2495 -0.8134
 5484TIP3    H240648   6.730   0.181   9.453  0.4763 -0.3405 -0.0314
 5485TIP3   OH240649   1.568   6.286   8.707 -0.0820  0.4213 -0.3219
 5485TIP3    H140650   1.575   6.381   8.710  0.0598  0.3996  2.3856
 5485TIP3    H240651   1.474   6.268   8.710 -0.0608  0.4800  0.9023
 5486TIP3   OH240652   4.124   0.153   9.155 -0.0753 -0.2410 -0.3357
 5486TIP3    H140653   4.068   0.200   9.217 -1.0510  0.1749 -1.5041
 5486TIP3    H240654   4.143   0.069   9.199 -0.0520  0.3671  0.8599
 5487TIP3   OH240655   6.669   0.902   8.786  0.4751 -0.2490 -0.2756
 5487TIP3    H140656   6.716   0.977   8.822  0.3460  0.8825 -2.3299
 5487TIP3    H240657   6.586   0.938   8.755  0.6223 -1.1163 -1.7657
 5488TIP3   OH240658   6.468   4.741   9.465 -0.7518  0.2425 -0.0575
 5488TIP3    H140659   6.380   4.703   9.458 -1.0131  0.8669 -0.2425
 5488TIP3    H240660   6.517   4.701   9.392 -0.9944  0.1814 -0.1880
 5489TIP3   OH240661   4.889   3.544   8.489 -0.5779 -0.3748  0.2085
 5489TIP3    H140662   4.928   3.630   8.471 -0.3931 -0.2090  1.3429
 5489TIP3    H240663   4.949   3.482   8.448 -1.0227  0.0558 -1.1313
 5490TIP3   OH240664   4.161   2.772   9.431  0.1169  0.3898  0.1642
 5490TIP3    H140665   4.150   2.678   9.420 -0.2735  0.4734 -0.2273
 5490TIP3    H240666   4.081   2.800   9.477 -0.0130  0.6006 -0.1828
 5491TIP3   OH240667   4.124   0.003  11.771  0.4271 -0.3008 -0.1742
 5491TIP3    H140668   4.170   0.087  11.770 -0.6451  0.3016  0.1925
 5491TIP3    H240669   4.185  -0.058  11.814  0.6927  0.5909  0.7374
 5492TIP3   OH240670   1.641   5.769  10.095 -0.3037 -0.7182 -0.3497
 5492TIP3    H140671   1.662   5.717  10.173  1.3193  0.8068  0.3017
 5492TIP3    H240672   1.584   5.839  10.128  1.4992  0.7521 -0.1720
 5493TIP3   OH240673   1.129   3.099  11.008  0.0504 -0.1945 -0.3184
 5493TIP3    H140674   1.033   3.101  11.014  0.0686 -0.0895 -0.0172
 5493TIP3    H240675   1.158   3.125  11.096  0.3361 -2.9946  0.5368
 5494TIP3   OH240676   3.014   6.172   9.260  0.6263  0.1690  0.0739
 5494TIP3    H140677   2.985   6.171   9.351 -2.2189 -1.6336 -0.7379
 5494TIP3    H240678   3.038   6.081   9.241 -2.5315 -0.3904 -1.9375
 5495TIP3   OH240679   2.527   6.103  10.261 -0.2412 -0.1593  0.3018
 5495TIP3    H140680   2.502   6.195  10.273 -2.2118 -0.5352 -0.4618
 5495TIP3    H240681   2.491   6.080  10.175  1.4421 -1.2830 -0.1345
 5496TIP3   OH240682   4.117   3.618   8.501  0.4878  0.5051 -0.3410
 5496TIP3    H140683   4.108   3.525   8.520 -1.0086  0.4962 -0.9291
 5496TIP3    H240684   4.211   3.632   8.491  1.1172 -0.2590  3.0315
 5497TIP3   OH240685   6.404   1.070   9.119 -0.5179  0.0640  0.0366
 5497TIP3    H140686   6.476   1.069   9.183  0.2069  0.3014 -0.7480
 5497TIP3    H240687   6.401   0.980   9.086  0.6581  0.4596 -1.2431
 5498TIP3   OH240688   6.050   0.312  11.864  0.3848 -0.1900 -0.3013
 5498TIP3    H140689   6.006   0.394  11.844  0.7091  0.1782  0.4483
 5498TIP3    H240690   6.115   0.301  11.795  1.4527  1.0229  0.4536
 5499TIP3   OH240691   1.406   5.693   9.576 -0.2398 -0.5523 -0.0449
 5499TIP3    H140692   1.416   5.763   9.512 -0.7309  0.8240  1.3139
 5499TIP3    H240693   1.448   5.617   9.536 -0.9454  0.1185 -2.1698
 5500TIP3   OH240694   2.446   1.989  10.111  0.5332  0.5536 -0.7192
 5500TIP3    H140695   2.440   1.933  10.034  1.3472 -1.5038  0.6226
 5500TIP3    H240696   2.382   1.951  10.173  1.5885  0.6520  0.4721
 5501TIP3   OH240697   1.188   0.434  10.904 -0.2894 -0.2880 -0.0075
 5501TIP3    H140698   1.157   0.503  10.964 -0.4792 -0.6519  0.3183
 5501TIP3    H240699   1.255   0.387  10.954  2.0717  1.4950 -1.2450
 5502TIP3   OH240700   2.639   6.003   9.304  0.1538  0.2958  0.4691
 5502TIP3    H140701   2.723   5.956   9.307  0.4258  0.8048  3.0693
 5502TIP3    H240702   2.659   6.083   9.256  0.8462 -0.1288  0.0278
 5503TIP3   OH240703   1.041   4.118  11.161  0.1680  0.0480  0.0239
 5503TIP3    H140704   1.069   4.049  11.101  0.8848 -0.8315  1.3061
 5503TIP3    H240705   0.993   4.072  11.230 -0.9484  1.0718 -0.0470
 5504TIP3   OH240706   3.908   3.177  11.204  0.0039  0.1699 -0.2784
 5504TIP3    H140707   3.935   3.107  11.145  0.5981  0.8926 -0.8847
 5504TIP3    H240708   3.945   3.256  11.166 -0.0549  0.7280  0.7846
 5505TIP3   OH240709   1.216   0.287  11.250 -0.3966  0.8275  0.4588
 5505TIP3    H140710   1.293   0.253  11.295 -0.4026  1.5168  0.9999
 5505TIP3    H240711   1.246   0.369  11.210 -0.5018  0.4370 -0.4416
 5506TIP3   OH240712   4.845   2.225  10.179  0.6339  0.1529  0.2357
 5506TIP3    H140713   4.913   2.183  10.128  0.0401  0.6697 -1.0335
 5506TIP3    H240714   4.787   2.154  10.205  0.6551 -0.0573 -0.2820
 5507TIP3   OH240715   0.218   6.719  10.127 -0.0466  0.0458 -0.5217
 5507TIP3    H140716   0.291   6.689  10.180  0.5609  1.4212 -0.5413
 5507TIP3    H240717   0.151   6.651  10.137  0.0687  0.2193  1.9420
 5508TIP3   OH240718   3.702   6.615   9.154  0.9378  0.6826 -0.0808
 5508TIP3    H140719   3.633   6.606   9.219  1.7447  1.5452  0.9389
 5508TIP3    H240720   3.682   6.549   9.087 -0.7131  0.7678  0.3047
 5509TIP3   OH240721   2.398   2.302  10.080 -0.0084 -0.1648  0.2816
 5509TIP3    H140722   2.452   2.224  10.092 -1.5500 -1.0900  1.6723
 5509TIP3    H240723   2.457   2.375  10.099  1.5586 -0.9206 -1.3536
 5510TIP3   OH240724   2.443   4.790   8.986  0.3001 -0.5235 -0.7209
 5510TIP3    H140725   2.471   4.862   9.043 -0.2139 -0.2250 -0.8456
 5510TIP3    H240726   2.423   4.831   8.902  0.2494 -0.8467 -0.8692
 5511TIP3   OH240727   1.652   3.966   9.027  0.1475 -0.6929 -0.4822
 5511TIP3    H140728   1.739   3.941   9.058  0.1634  1.7104  1.7662
 5511TIP3    H240729   1.669   4.035   8.963 -0.0051  1.3282  1.5114
 5512TIP3   OH240730   6.316   5.201   8.336 -0.0017  0.1050  0.1840
 5512TIP3    H140731   6.327   5.106   8.342  1.8766  0.3273  0.9823
 5512TIP3    H240732   6.358   5.224   8.253 -1.1043  0.1843 -0.3713
 5513TIP3   OH240733   6.494   5.967  10.835  0.3650 -0.4235 -0.0347
 5513TIP3    H140734   6.475   5.900  10.769  0.7895  0.1950 -0.7997
 5513TIP3    H240735   6.412   5.975  10.884 -0.4980  0.2406 -1.5102
 5514TIP3   OH240736   1.397   5.911   9.409  0.1374 -0.2137  0.5283
 5514TIP3    H140737   1.399   5.958   9.492  0.2672  1.2428 -0.2713
 5514TIP3    H240738   1.475   5.940   9.362  0.1739 -1.1666 -0.0365
 5515TIP3   OH240739   2.225   5.873   9.561 -0.5923 -0.9074 -0.3914
 5515TIP3    H140740   2.155   5.850   9.622 -0.6464  0.4257  0.0750
 5515TIP3    H240741   2.226   5.968   9.560  1.8193 -0.8525  0.3241
 5516TIP3   OH240742   1.736   4.212  12.033 -0.4424 -0.1909 -0.0704
 5516TIP3    H140743   1.733   4.307  12.048 -1.9412 -0.1472 -0.4463
 5516TIP3    H240744   1.674   4.176  12.097 -1.0474 -0.7538 -0.9490
 5517TIP3   OH240745   4.145   1.468  17.713 -0.4920  0.4246 -0.6003
 5517TIP3    H140746   4.239   1.475  17.726 -0.5610 -0.4575  0.4138
 5517TIP3    H240747   4.115   1.559  17.709  0.1883  0.7258  0.6736
 5518TIP3   OH240748   6.544   3.838  11.869 -0.0734  0.0252  0.3990
 5518TIP3    H140749   6.551   3.917  11.923  1.9526 -0.3553  0.7559
 5518TIP3    H240750   6.554   3.766  11.931 -0.4885 -0.4990 -0.1301
 5519TIP3   OH240751   4.200   6.695  10.845  0.2435 -0.0776  0.1047
 5519TIP3    H140752   4.147   6.616  10.856  0.0224  0.0617  0.0473
 5519TIP3    H240753   4.155   6.761  10.897  0.8065 -0.1593  0.7102
 5520TIP3   OH240754   6.409   6.007  12.282 -0.6527 -0.0538 -0.5140
 5520TIP3    H140755   6.422   5.945  12.211 -1.4320 -0.0316 -0.6881
 5520TIP3    H240756   6.344   6.069  12.248  2.0564  2.5276 -1.3886
 5521TIP3   OH240757   6.382   4.856  11.276  0.0989 -0.0100 -0.0769
 5521TIP3    H140758   6.293   4.852  11.310 -0.3416  0.0379 -1.1932
 5521TIP3    H240759   6.373   4.842  11.182  1.0994  1.6448 -0.4609
 5522TIP3   OH240760   0.326   5.918   9.905  0.5472  0.1478 -0.7518
 5522TIP3    H140761   0.372   5.887   9.983 -1.5544 -0.1478  0.4543
 5522TIP3    H240762   0.345   5.852   9.838  1.0466 -0.4895  0.0012
 5523TIP3   OH240763   1.086   6.555  10.668  0.2625  0.2301 -0.0386
 5523TIP3    H140764   1.032   6.480  10.692 -0.1910 -0.3186 -2.5142
 5523TIP3    H240765   1.054   6.627  10.723 -0.5512 -0.9126  1.0371
 5524TIP3   OH240766   4.891   4.696   9.520 -0.1218 -0.6616  0.4444
 5524TIP3    H140767   4.962   4.631   9.524 -0.0231 -0.5111  1.2733
 5524TIP3    H240768   4.879   4.724   9.610  0.5022  1.2146 -0.0043
 5525TIP3   OH240769   2.127   5.604  10.122  0.4082 -0.3733  0.3564
 5525TIP3    H140770   2.174   5.525  10.147 -0.6394 -1.0117  0.3528
 5525TIP3    H240771   2.083   5.633  10.202 -0.9823 -1.0578 -0.1185
 5526TIP3   OH240772   0.222   5.803   8.926 -0.0848  0.3098  0.3422
 5526TIP3    H140773   0.233   5.862   9.000  0.0105  0.9691 -0.1863
 5526TIP3    H240774   0.207   5.861   8.851  0.8124 -0.2992 -0.3325
 5527TIP3   OH240775   1.355   0.195  10.951  0.4162 -0.2350  0.0392
 5527TIP3    H140776   1.311   0.155  10.876 -0.2063 -1.9870  1.2585
 5527TIP3    H240777   1.322   0.146  11.027  2.8988 -0.2191  1.2143
 5528TIP3   OH240778   3.639   0.709   9.093  0.0841 -0.6782  0.3835
 5528TIP3    H140779   3.721   0.666   9.070 -0.1115 -0.2359 -1.2338
 5528TIP3    H240780   3.664   0.798   9.119  0.0219  0.0569 -1.8487
 5529TIP3   OH240781   5.566   0.402  17.743 -0.0633  0.4354  0.4451
 5529TIP3    H140782   5.616   0.325  17.769  0.5251  0.5443 -0.3216
 5529TIP3    H240783   5.614   0.438  17.669 -0.6365  1.2269  0.4425
 5530TIP3   OH240784   4.566   2.845  10.380 -0.1984 -0.4073  0.0011
 5530TIP3    H140785   4.491   2.821  10.327  0.7752 -1.3770 -0.9943
 5530TIP3    H240786   4.642   2.814  10.330  0.9128  1.0741  0.6661
 5531TIP3   OH240787   1.230   0.453  10.133 -0.2309 -0.7538  0.0258
 5531TIP3    H140788   1.198   0.382  10.078  0.7567 -1.1422 -0.0704
 5531TIP3    H240789   1.247   0.412  10.218 -0.7778 -0.3737  0.3267
 5532TIP3   OH240790   3.459   2.047  10.426  0.3696  0.8438  0.3864
 5532TIP3    H140791   3.450   1.953  10.436 -1.6194  1.0163  0.5488
 5532TIP3    H240792   3.392   2.085  10.483 -0.1344  2.2911 -1.0708
 5533TIP3   OH240793   2.139   6.441   8.968  0.1681 -0.5534  0.0420
 5533TIP3    H140794   2.222   6.477   8.999  0.4075  0.1142 -1.2931
 5533TIP3    H240795   2.127   6.361   9.019  0.8158  0.1822  1.3904
 5534TIP3   OH240796   3.364   5.035  10.029 -0.0712 -0.9281 -0.2046
 5534TIP3    H140797   3.268   5.043  10.032  0.0066  0.0587  0.1533
 5534TIP3    H240798   3.395   5.102  10.090  0.8709 -0.7250 -0.8835
 5535TIP3   OH240799   2.548   4.281   8.487 -0.3751  0.4136  0.0698
 5535TIP3    H140800   2.632   4.261   8.446 -0.5814 -2.1546  0.7313
 5535TIP3    H240801   2.513   4.196   8.514 -2.2707  1.5854  1.6186
 5536TIP3   OH240802   2.965   3.261  10.983 -0.4210 -0.2938 -0.2937
 5536TIP3    H140803   3.060   3.257  10.993 -0.6751  0.1814  4.0901
 5536TIP3    H240804   2.941   3.172  10.955  1.1204 -1.3487  1.5069
 5537TIP3   OH240805   0.437   3.607  11.319 -0.2774  0.1539  0.0522
 5537TIP3    H140806   0.424   3.526  11.369 -0.3898 -0.3414 -0.7643
 5537TIP3    H240807   0.352   3.625  11.280 -0.4306  1.0416  0.7514
 5538TIP3   OH240808   4.226   3.893   9.647 -0.3208  0.4857 -0.1588
 5538TIP3    H140809   4.153   3.832   9.648 -0.8783  1.1207 -0.9127
 5538TIP3    H240810   4.302   3.840   9.623 -0.1684 -0.5300  2.3145
 5539TIP3   OH240811   4.732   4.695  12.551 -0.5438  0.0824 -0.1279
 5539TIP3    H140812   4.818   4.725  12.521 -0.3631  0.7754  1.0478
 5539TIP3    H240813   4.710   4.624  12.491  0.6551  0.1790 -0.7135
 5540TIP3   OH240814   0.947   5.740  11.577 -0.5788 -0.1809 -0.1922
 5540TIP3    H140815   0.975   5.791  11.653  0.5046 -1.1476  0.0902
 5540TIP3    H240816   0.926   5.805  11.510  0.1716  0.6451  0.3631
 5541TIP3   OH240817   0.506   1.272   9.030 -0.2093 -0.4089  0.1707
 5541TIP3    H140818   0.506   1.287   8.935  0.1176  0.1983  0.2567
 5541TIP3    H240819   0.419   1.301   9.058  0.1947  0.8173  0.2444
 5542TIP3   OH240820   1.716   4.789  10.874 -0.1181 -0.7108 -0.1354
 5542TIP3    H140821   1.811   4.788  10.862 -0.2406 -1.5846 -1.2438
 5542TIP3    H240822   1.685   4.714  10.824 -1.3700 -0.6654  0.5291
 5543TIP3   OH240823   2.495   4.279  10.584 -0.2441 -0.4499 -0.8232
 5543TIP3    H140824   2.496   4.202  10.641  0.7332 -0.4226 -0.7866
 5543TIP3    H240825   2.584   4.314  10.590 -1.2381  2.0751  1.0318
 5544TIP3   OH240826   2.852   0.684  11.151 -0.3874  0.0627  0.2628
 5544TIP3    H140827   2.893   0.638  11.078  1.4301  1.2538  0.4681
 5544TIP3    H240828   2.925   0.720  11.201 -1.4920 -1.3127  3.1457
 5545TIP3   OH240829   0.784   5.079   9.963  0.0982 -0.6166  0.6878
 5545TIP3    H140830   0.877   5.069   9.984  0.4757 -2.5386 -1.4720
 5545TIP3    H240831   0.739   5.022  10.025  0.5481 -1.0985  0.5783
 5546TIP3   OH240832   4.883   4.851  11.398  0.3317  0.6066  0.3223
 5546TIP3    H140833   4.925   4.846  11.484  2.9382 -2.1374 -0.9313
 5546TIP3    H240834   4.800   4.804  11.410  0.2608  0.9967  1.5082
 5547TIP3   OH240835   3.034   5.969  11.595  0.8818  0.0023 -0.2391
 5547TIP3    H140836   3.127   5.993  11.593  0.3112  2.3228 -1.0933
 5547TIP3    H240837   2.988   6.046  11.563 -1.2020 -1.9509 -2.3210
 5548TIP3   OH240838   5.184   4.973  10.678  0.2818 -0.0821 -0.0857
 5548TIP3    H140839   5.133   4.893  10.674  1.3999 -0.9119  1.3752
 5548TIP3    H240840   5.271   4.948  10.649  0.0728  1.2150 -2.0764
 5549TIP3   OH240841   5.319   6.023  10.308 -0.1274  0.1007  0.1505
 5549TIP3    H140842   5.390   6.088  10.310 -0.2174  0.2185 -0.3339
 5549TIP3    H240843   5.291   6.021  10.216  0.3712 -1.1641 -0.0052
 5550TIP3   OH240844   4.531   0.471  10.507  0.3520 -0.2685 -0.2356
 5550TIP3    H140845   4.583   0.549  10.522 -1.4036  0.6223  1.6895
 5550TIP3    H240846   4.588   0.399  10.535  1.4211  0.4302 -0.5540
 5551TIP3   OH240847   4.935   0.624   8.961  0.0439  0.3597  0.0470
 5551TIP3    H140848   4.872   0.557   8.934  1.3798 -0.7031 -0.5909
 5551TIP3    H240849   4.952   0.605   9.053  0.9170 -0.6447 -0.3005
 5552TIP3   OH240850   1.844   2.602   8.962 -0.0839 -0.0147  0.2895
 5552TIP3    H140851   1.939   2.592   8.966 -0.0198 -0.1692 -1.1887
 5552TIP3    H240852   1.829   2.696   8.972  0.3491  0.2142 -1.0526
 5553TIP3   OH240853   5.451   1.245  10.614 -0.2951 -0.0622 -0.0082
 5553TIP3    H140854   5.367   1.287  10.637 -0.9702 -0.5043 -1.5505
 5553TIP3    H240855   5.434   1.152  10.625  0.4274 -0.0902  0.9572
 5554TIP3   OH240856   3.760   1.757  11.125 -0.7105  0.1603 -0.4604
 5554TIP3    H140857   3.809   1.833  11.156 -0.5631 -0.8415  2.0825
 5554TIP3    H240858   3.826   1.700  11.085 -0.1908 -0.0784  0.6909
 5555TIP3   OH240859   3.274   1.884   9.865  0.7637  0.2205  1.0294
 5555TIP3    H140860   3.257   1.790   9.853 -0.1030  0.5664 -0.8352
 5555TIP3    H240861   3.264   1.898   9.959 -3.4641 -0.8068  0.9226
 5556TIP3   OH240862   0.015   0.339  10.301 -0.0855  0.1982  0.1393
 5556TIP3    H140863  -0.066   0.360  10.346 -0.1953 -2.0766  1.1589
 5556TIP3    H240864   0.069   0.297  10.368  1.6929  1.0786 -0.6815
 5557TIP3   OH240865   3.747   6.233  11.207  0.4189  0.2135 -0.2916
 5557TIP3    H140866   3.714   6.247  11.118 -1.9722 -0.9291  0.3333
 5557TIP3    H240867   3.839   6.209  11.195  0.5136  1.3828 -2.3372
 5558TIP3   OH240868   4.399   5.112   8.776 -0.0487  0.8574  0.4906
 5558TIP3    H140869   4.423   5.190   8.827 -0.9734  2.5052 -1.4659
 5558TIP3    H240870   4.307   5.125   8.754 -0.2111 -0.8000  0.0934
 5559TIP3   OH240871   2.510   6.754  11.677 -0.2445  0.6773  0.1583
 5559TIP3    H140872   2.528   6.798  11.594 -0.2712  0.4584  0.0389
 5559TIP3    H240873   2.436   6.803  11.714 -2.0927 -0.9079 -1.2343
 5560TIP3   OH240874   3.357   3.712  10.385 -0.9319  0.6013  0.8127
 5560TIP3    H140875   3.369   3.761  10.466 -1.8388  0.4664  1.0322
 5560TIP3    H240876   3.273   3.741  10.351 -0.6268  0.5395  0.0002
 5561TIP3   OH240877   0.830   1.396   8.714 -0.2567  0.6059 -0.4858
 5561TIP3    H140878   0.842   1.485   8.749  0.1242 -0.0763  1.2017
 5561TIP3    H240879   0.907   1.381   8.659 -0.8282  1.6756 -1.6296
 5562TIP3   OH240880   4.731   5.684  10.347  0.0727 -0.8757  0.3351
 5562TIP3    H140881   4.671   5.627  10.299  1.6617 -1.1488 -1.4293
 5562TIP3    H240882   4.691   5.771  10.342 -0.4121 -1.1341 -0.3934
 5563TIP3   OH240883   0.237   0.059   9.527  0.0051 -0.4561  0.2237
 5563TIP3    H140884   0.264   0.053   9.619  0.4198  2.5037  0.4102
 5563TIP3    H240885   0.269   0.146   9.499  0.8638 -1.6833 -3.0613
 5564TIP3   OH240886   0.705   6.112  11.169  0.0331 -0.1271  0.3424
 5564TIP3    H140887   0.686   6.116  11.262  0.5894  1.7346  0.4120
 5564TIP3    H240888   0.645   6.176  11.129  1.1697  0.5678 -0.3062
 5565TIP3   OH240889   0.095   4.637  10.230 -0.0844  0.7643 -0.0529
 5565TIP3    H140890   0.104   4.555  10.279  0.3680  0.4461 -0.6557
 5565TIP3    H240891   0.079   4.704  10.297  0.0140  0.2560  0.4814
 5566TIP3   OH240892   3.736   6.525  10.404 -0.5115  0.2403 -0.1025
 5566TIP3    H140893   3.660   6.555  10.454  0.2208  0.7139  0.7335
 5566TIP3    H240894   3.805   6.513  10.468  1.7505  4.7550 -1.2514
 5567TIP3   OH240895   4.730   0.630   9.549 -0.3206 -0.4534  0.0711
 5567TIP3    H140896   4.668   0.671   9.610 -0.3204  1.6188 -1.2185
 5567TIP3    H240897   4.803   0.691   9.544  0.7686 -1.7375 -0.2233
 5568TIP3   OH240898   1.997   1.531  11.006 -0.1264  0.5658 -0.4568
 5568TIP3    H140899   1.907   1.535  10.973 -1.0090  1.1912  1.8390
 5568TIP3    H240900   2.051   1.536  10.927 -2.0857  0.7685 -1.8724
 5569TIP3   OH240901   4.211   3.695   9.078 -0.2246  0.0618 -0.3278
 5569TIP3    H140902   4.228   3.605   9.053 -2.2477  0.3275 -3.0954
 5569TIP3    H240903   4.135   3.689   9.137  0.6483 -0.1054  0.8158
 5570TIP3   OH240904   0.570   5.312   9.551 -0.0428 -0.7316  0.1341
 5570TIP3    H140905   0.608   5.267   9.626 -0.1800  2.1683  2.0995
 5570TIP3    H240906   0.638   5.308   9.484  0.3514 -2.8013  0.5940
 5571TIP3   OH240907   6.745   6.180  10.034 -0.2280  0.3793 -0.1473
 5571TIP3    H140908   6.835   6.194  10.062  0.0519  0.5182 -1.0975
 5571TIP3    H240909   6.745   6.199   9.940 -0.9184 -1.1137 -0.4707
 5572TIP3   OH240910   3.921   4.383  12.309  0.2311  0.0650  0.3787
 5572TIP3    H140911   3.861   4.333  12.254  0.2752 -0.5673  0.8859
 5572TIP3    H240912   3.872   4.461  12.334 -0.4399 -0.4968  0.8840
 5573TIP3   OH240913   4.156   1.498   9.026 -0.1265  0.0136 -0.1658
 5573TIP3    H140914   4.110   1.563   9.077  0.8779  0.4380  0.2245
 5573TIP3    H240915   4.186   1.545   8.948 -0.8658 -0.4078 -0.7196
 5574TIP3   OH240916   5.785   4.359  10.925  0.0090  0.0038  0.3795
 5574TIP3    H140917   5.694   4.335  10.946  0.7437 -1.2472  2.4664
 5574TIP3    H240918   5.777   4.443  10.881 -2.1803 -0.1482  0.3437
 5575TIP3   OH240919   5.969   4.387  10.369 -0.4104  0.0278 -0.7314
 5575TIP3    H140920   5.918   4.320  10.414  0.7576  0.2577  1.0125
 5575TIP3    H240921   5.927   4.394  10.283 -0.9921 -2.4283 -0.7363
 5576TIP3   OH240922   2.165   3.191   8.564  0.2138  0.0209  0.4948
 5576TIP3    H140923   2.113   3.113   8.582 -1.3040  1.0224  0.6715
 5576TIP3    H240924   2.100   3.259   8.547  1.5053  0.7717 -1.7913
 5577TIP3   OH240925   1.911   2.717  10.099 -0.4714 -0.0912 -0.2689
 5577TIP3    H140926   1.937   2.632  10.136  2.4931  0.9304  0.2157
 5577TIP3    H240927   1.992   2.755  10.067 -1.6191  2.8851  0.1070
 5578TIP3   OH240928   0.930   1.626   9.401 -0.6647 -0.4422 -0.3045
 5578TIP3    H140929   0.842   1.626   9.439 -0.7478  0.2900 -0.4768
 5578TIP3    H240930   0.919   1.591   9.313 -0.7277 -0.6664 -0.2076
 5579TIP3   OH240931   0.581   4.660   9.526  0.0878  0.3946  0.3588
 5579TIP3    H140932   0.534   4.599   9.582 -1.2138  0.8790 -0.1590
 5579TIP3    H240933   0.664   4.616   9.505  0.2223 -0.1501  1.9294
 5580TIP3   OH240934   0.176   4.730   9.927  0.2698 -0.0342 -0.0380
 5580TIP3    H140935   0.251   4.786   9.947 -0.3290  0.6473  0.3824
 5580TIP3    H240936   0.150   4.694  10.012 -0.2071  0.1598 -0.0999
 5581TIP3   OH240937   5.199   1.206  10.017 -0.0460  0.2380  0.6450
 5581TIP3    H140938   5.280   1.238  10.056  1.1641  1.1558 -2.2870
 5581TIP3    H240939   5.212   1.111  10.008 -0.0131  0.1398  1.6663
 5582TIP3   OH240940   5.815   5.792  11.257 -0.1651  0.2067 -0.3078
 5582TIP3    H140941   5.784   5.879  11.230 -1.7836 -0.0164  0.6723
 5582TIP3    H240942   5.829   5.801  11.351 -0.4636 -0.6182 -0.1787
 5583TIP3   OH240943   2.152   4.382   9.041  0.1317 -0.2266 -0.2893
 5583TIP3    H140944   2.080   4.394   9.103  0.5950 -1.1172  0.4346
 5583TIP3    H240945   2.118   4.417   8.958 -0.7494  0.3208  0.2899
 5584TIP3   OH240946   1.553   4.190  12.249  0.4417  0.6854  0.3776
 5584TIP3    H140947   1.506   4.108  12.229 -0.2596  0.6808  1.8473
 5584TIP3    H240948   1.534   4.205  12.342  1.8052  1.7280  0.5092
 5585TIP3   OH240949   0.749   5.090  10.590 -0.1351  0.7261 -0.8556
 5585TIP3    H140950   0.676   5.129  10.541 -0.9031 -0.8712 -1.0617
 5585TIP3    H240951   0.806   5.054  10.522 -0.0633  0.4546 -0.6542
 5586TIP3   OH240952   2.145   4.530  11.359 -0.1014  0.2516  0.4367
 5586TIP3    H140953   2.193   4.612  11.374 -1.9736  1.5541 -0.2454
 5586TIP3    H240954   2.081   4.552  11.291 -1.3700 -1.4947  1.0008
 5587TIP3   OH240955   3.036   2.933  11.259 -0.1282 -0.3881  0.0858
 5587TIP3    H140956   3.057   2.924  11.166 -1.0759  1.1861 -0.3007
 5587TIP3    H240957   3.105   2.882  11.303  0.0119 -1.6424 -1.4690
 5588TIP3   OH240958   2.540   4.479   8.671 -0.2591  0.0590 -0.3214
 5588TIP3    H140959   2.551   4.412   8.604 -0.7214  0.7050 -1.0536
 5588TIP3    H240960   2.630   4.502   8.697 -0.0990 -0.9615  0.0753
 5589TIP3   OH240961   2.217   4.656  10.816 -0.4011  0.1519 -0.4810
 5589TIP3    H140962   2.227   4.580  10.758 -0.9594 -0.4626  0.2047
 5589TIP3    H240963   2.132   4.693  10.794  0.3362  1.2548 -1.5696
 5590TIP3   OH240964   0.940   2.622  11.072  0.3672 -0.3926  0.1342
 5590TIP3    H140965   0.938   2.678  10.995 -0.0854  2.1338  1.8635
 5590TIP3    H240966   0.852   2.629  11.110 -0.2392 -3.6037 -0.3776
 5591TIP3   OH240967   5.860   3.346  10.950 -0.0358 -0.2874 -0.3765
 5591TIP3    H140968   5.888   3.290  10.878 -0.7357 -0.4395 -0.5382
 5591TIP3    H240969   5.780   3.305  10.982 -0.1158  0.1792  0.0235
 5592TIP3   OH240970   1.835   2.879  11.155  0.3102  0.1870 -0.1939
 5592TIP3    H140971   1.772   2.925  11.100  0.4145  0.3775 -0.1552
 5592TIP3    H240972   1.919   2.893  11.112  0.3379 -0.0072 -0.2069
 5593TIP3   OH240973   2.611   0.950   9.974  0.6833  0.2883 -0.4372
 5593TIP3    H140974   2.693   0.918  10.012  0.7813  0.7125 -0.2849
 5593TIP3    H240975   2.634   1.035   9.937  0.9620 -0.7020 -2.7607
 5594TIP3   OH240976   2.464   4.982   9.667 -0.2849 -0.5056 -0.4196
 5594TIP3    H140977   2.475   4.970   9.761 -0.0795  0.7068 -0.2678
 5594TIP3    H240978   2.550   4.962   9.630  0.5394  1.8686  0.0003
 5595TIP3   OH240979   1.709   1.556  10.319 -0.2519  0.0654  0.1398
 5595TIP3    H140980   1.757   1.609  10.383  0.5984  2.2226 -2.1184
 5595TIP3    H240981   1.617   1.576  10.336 -0.1804 -0.7891  1.7626
 5596TIP3   OH240982   0.617   0.556   8.928 -0.6114 -0.3160  0.1077
 5596TIP3    H140983   0.614   0.646   8.897 -3.1168  0.3730  2.0019
 5596TIP3    H240984   0.603   0.503   8.850 -2.6261  1.1329 -0.5979
 5597TIP3   OH240985   5.603   0.530   8.944 -0.1764 -0.1957  0.0259
 5597TIP3    H140986   5.515   0.566   8.954 -0.7839 -1.5918 -0.0673
 5597TIP3    H240987   5.612   0.514   8.850  0.2292  0.0566  0.0182
 5598TIP3   OH240988   5.533   4.230  10.934  0.4775 -0.6998  0.1678
 5598TIP3    H140989   5.466   4.214  10.867  1.3251 -1.7800 -0.4671
 5598TIP3    H240990   5.590   4.153  10.930  1.0304 -0.4019  1.5795
 5599TIP3   OH240991   1.809   2.452   9.356  0.0255  0.4709  0.9600
 5599TIP3    H140992   1.748   2.507   9.308 -0.6311 -0.6806  0.4181
 5599TIP3    H240993   1.767   2.365   9.357  1.5846 -0.3169  0.7035
 5600TIP3   OH240994   1.874   1.105  10.585  0.0851 -0.0574 -0.2122
 5600TIP3    H140995   1.942   1.101  10.517 -0.9154 -0.8810 -1.2257
 5600TIP3    H240996   1.796   1.071  10.541 -0.4028 -1.4489  1.6029
 5601TIP3   OH240997   2.695   0.807  12.266 -0.1414  0.0859 -0.0062
 5601TIP3    H140998   2.755   0.880  12.248 -1.4268  1.0652 -0.5419
 5601TIP3    H240999   2.673   0.773  12.180 -1.8431  1.0263  0.0143
 5602TIP3   OH241000   1.788   5.292  10.985 -0.0330 -0.0860 -0.1162
 5602TIP3    H141001   1.780   5.289  11.080  0.2257  0.5520 -0.0774
 5602TIP3    H241002   1.879   5.270  10.968 -0.1476 -0.4828 -0.2365
 5603TIP3   OH241003   5.068   1.872   9.307 -0.4527  0.1716  0.1660
 5603TIP3    H141004   5.101   1.874   9.217  0.4691 -0.1587  0.4827
 5603TIP3    H241005   4.976   1.847   9.298 -0.7315  1.4308 -0.7710
 5604TIP3   OH241006   0.071   6.759  11.218 -0.0079 -0.0450 -0.2332
 5604TIP3    H141007  -0.021   6.786  11.213 -0.2474 -0.7931 -0.0343
 5604TIP3    H241008   0.117   6.820  11.161 -0.8895 -0.7845 -1.8086
 5605TIP3   OH241009   5.326   1.758   9.560  0.3498  0.2081  0.1458
 5605TIP3    H141010   5.403   1.801   9.598  0.7499 -0.2842 -0.0942
 5605TIP3    H241011   5.257   1.771   9.625  0.4485  1.2354  0.0602
 5606TIP3   OH241012   5.707   1.861  10.446 -0.1270  0.0213 -0.1853
 5606TIP3    H141013   5.622   1.817  10.442  0.6552 -1.4450 -1.5858
 5606TIP3    H241014   5.687   1.953  10.429 -1.8628  0.4276  3.2460
 5607TIP3   OH241015   4.055   4.702   9.748 -0.1700  0.3529 -0.0545
 5607TIP3    H141016   4.057   4.641   9.675  1.1599  0.7258 -0.3462
 5607TIP3    H241017   3.964   4.732   9.752 -1.2833 -2.7279  1.0403
 5608TIP3   OH241018   4.982   1.123   9.811 -0.7901 -0.1440 -0.2261
 5608TIP3    H141019   4.995   1.144   9.718  0.7990 -1.9890 -0.4612
 5608TIP3    H241020   5.018   1.199   9.858 -1.5564  0.7800 -1.0723
 5609TIP3   OH241021   6.610   3.757   9.634 -0.0018 -0.5110  0.0731
 5609TIP3    H141022   6.580   3.740   9.545  0.4772  0.1607 -0.2193
 5609TIP3    H241023   6.648   3.674   9.663  0.3802 -0.5634 -0.5629
 5610TIP3   OH241024   1.563   6.759  11.426 -0.2230 -0.2394 -0.0751
 5610TIP3    H141025   1.519   6.721  11.502  0.8849 -0.9675  0.2301
 5610TIP3    H241026   1.547   6.697  11.355 -0.3765 -0.0898 -0.1715
 5611TIP3   OH241027   2.648   2.028   9.107  0.1477 -0.2685  0.1793
 5611TIP3    H141028   2.664   1.942   9.145 -0.6937 -0.3122  0.4405
 5611TIP3    H241029   2.558   2.049   9.130 -0.2163 -0.0520 -1.3161
 5612TIP3   OH241030   2.610   0.490   9.619 -1.0797  0.6772 -0.1545
 5612TIP3    H141031   2.670   0.535   9.560  1.0058 -1.6786 -0.0114
 5612TIP3    H241032   2.607   0.546   9.697  1.7025  0.5420  0.1816
 5613TIP3   OH241033   5.013   6.028   8.935 -0.2330 -0.1917  0.0748
 5613TIP3    H141034   5.076   6.028   8.862 -0.8386 -0.7098 -0.4581
 5613TIP3    H241035   5.033   6.109   8.983 -0.6220  0.8072 -1.3691
 5614TIP3   OH241036   3.213   3.259  12.491  0.3506 -0.3647 -0.1626
 5614TIP3    H141037   3.298   3.235  12.453  0.8891 -0.0071  0.7896
 5614TIP3    H241038   3.192   3.187  12.551 -0.4020 -0.8289 -0.9593
 5615TIP3   OH241039   5.156   6.462  10.963 -0.2213 -0.6581  0.1586
 5615TIP3    H141040   5.183   6.373  10.938 -3.0708 -1.2181 -1.3877
 5615TIP3    H241041   5.065   6.452  10.992 -0.5228  1.7208  0.2066
 5616TIP3   OH241042   3.445   5.790  10.408 -0.4539  0.1681 -0.4518
 5616TIP3    H141043   3.396   5.840  10.473 -0.5349 -1.8516  1.1230
 5616TIP3    H241044   3.493   5.857  10.359  0.2931  1.7915  2.2303
 5617TIP3   OH241045   0.988   6.788  11.059  0.6699  0.0655  0.1006
 5617TIP3    H141046   0.973   6.695  11.077  3.2331 -0.2927  0.8795
 5617TIP3    H241047   0.969   6.798  10.966 -0.6965 -0.9724  0.2392
 5618TIP3   OH241048   3.221   1.113   8.783  0.1733 -0.6901  0.2812
 5618TIP3    H141049   3.229   1.018   8.793 -1.4052 -0.8897 -0.1213
 5618TIP3    H241050   3.127   1.130   8.788  0.2133  0.5801 -2.0312
 5619TIP3   OH241051   3.003   3.353  11.643 -0.1080 -0.1483  0.2074
 5619TIP3    H141052   2.982   3.378  11.553  0.5797  0.0480  0.0934
 5619TIP3    H241053   3.090   3.313  11.636  0.6465  1.2769  0.9981
 5620TIP3   OH241054   6.055   0.051  10.603 -0.4877  0.4059 -0.0842
 5620TIP3    H141055   6.056   0.068  10.509 -1.0293  0.5727 -0.0624
 5620TIP3    H241056   6.049   0.138  10.643  0.5530  0.3922  0.1320
 5621TIP3   OH241057   3.662   1.709  10.307 -0.5356  0.1337  0.0704
 5621TIP3    H141058   3.659   1.614  10.297 -1.2365 -0.0649  1.8072
 5621TIP3    H241059   3.599   1.727  10.377  0.5163  1.7483  0.6526
 5622TIP3   OH241060   0.546   1.154  10.183  0.7155  0.0394  0.1660
 5622TIP3    H141061   0.616   1.103  10.141 -0.5409  0.1764 -2.2423
 5622TIP3    H241062   0.472   1.094  10.188 -0.2332  1.0516 -1.0768
 5623TIP3   OH241063   2.927   6.248  12.021  0.2446  0.3912 -0.4640
 5623TIP3    H141064   2.969   6.229  12.105 -1.2682  1.6539  0.6221
 5623TIP3    H241065   2.988   6.307  11.976  0.8318  0.1076 -0.0584
 5624TIP3   OH241066   4.913   1.740   9.943 -0.2341 -0.0424  0.4273
 5624TIP3    H141067   4.988   1.759   9.999  0.5719 -1.1425 -0.2250
 5624TIP3    H241068   4.839   1.736  10.002  0.1892  1.2451  1.0666
 5625TIP3   OH241069   0.204   1.254   9.357 -0.8829  0.1046 -0.6201
 5625TIP3    H141070   0.173   1.322   9.297 -1.2606  1.3574  0.9262
 5625TIP3    H241071   0.124   1.207   9.382 -0.7289 -0.4045 -1.0707
 5626TIP3   OH241072   2.569   3.667   8.359  0.0857 -0.0558 -0.4252
 5626TIP3    H141073   2.596   3.736   8.299 -0.6451  0.6616  0.0463
 5626TIP3    H241074   2.618   3.686   8.440  0.2980 -0.4111 -0.4706
 5627TIP3   OH241075   6.125   2.488  10.265 -0.4607  0.4931 -0.1658
 5627TIP3    H141076   6.112   2.507  10.358 -2.2944 -1.4195  0.0307
 5627TIP3    H241077   6.067   2.549  10.220  0.2262  1.2340 -0.0772
 5628TIP3   OH241078   6.408   4.373   8.759 -0.2951 -0.5135  0.5996
 5628TIP3    H141079   6.481   4.422   8.719 -1.2051  0.3283 -0.0781
 5628TIP3    H241080   6.451   4.311   8.818  0.9597  0.3074  0.6073
 5629TIP3   OH241081   4.277   3.131  11.184  0.1484  0.0527  0.5640
 5629TIP3    H141082   4.255   3.212  11.139 -2.5291 -0.1397  1.3699
 5629TIP3    H241083   4.314   3.160  11.268  0.7055  0.4164  0.1979
 5630TIP3   OH241084   4.148   5.740  10.857 -0.1646  0.3047 -0.7025
 5630TIP3    H141085   4.199   5.661  10.839 -1.0092 -0.3037 -0.4766
 5630TIP3    H241086   4.079   5.740  10.790 -1.1643 -0.0455  0.2887
 5631TIP3   OH241087   4.963   0.531   9.213  0.5119 -0.0309  0.2276
 5631TIP3    H141088   4.924   0.457   9.258  0.8315  0.4458  1.3339
 5631TIP3    H241089   5.012   0.577   9.282  1.3009  0.5294 -0.6834
 5632TIP3   OH241090   6.018   2.780   9.660  0.4983  0.1207 -0.0791
 5632TIP3    H141091   6.112   2.790   9.676  0.8698 -1.2739 -1.2036
 5632TIP3    H241092   5.990   2.865   9.625  1.3790  0.4820  0.0788
 5633TIP3   OH241093   0.513   6.344  10.023 -0.1483 -0.1648  0.3775
 5633TIP3    H141094   0.598   6.307  10.047  0.2680  0.5532  0.0148
 5633TIP3    H241095   0.518   6.355   9.928 -0.5166  0.2114  0.4016
 5634TIP3   OH241096   4.935   5.382   8.742 -0.0596 -0.6181 -0.6485
 5634TIP3    H141097   4.892   5.427   8.815  1.6872 -0.6225  0.4399
 5634TIP3    H241098   4.947   5.449   8.676 -0.1903 -0.2087 -0.2621
 5635TIP3   OH241099   1.935   4.318  10.991 -0.0467 -0.2263 -0.6317
 5635TIP3    H141100   1.963   4.346  10.904 -1.5015  0.0936 -1.0243
 5635TIP3    H241101   1.850   4.278  10.976  0.4097 -1.6520  0.4365
 5636TIP3   OH241102   2.192   0.552  10.969 -0.1049  0.0106 -0.1135
 5636TIP3    H141103   2.197   0.457  10.963  0.2061  0.0198 -0.0146
 5636TIP3    H241104   2.282   0.580  10.989 -0.0665  0.3665 -0.7422
 5637TIP3   OH241105   1.096   3.438  11.295 -0.0312 -0.0059 -0.2319
 5637TIP3    H141106   1.142   3.371  11.244 -0.9400 -0.5934 -0.2877
 5637TIP3    H241107   1.156   3.457  11.368 -0.0566 -1.3961  0.1899
 5638TIP3   OH241108   6.077   1.991   9.156 -0.1093 -0.8843 -0.3856
 5638TIP3    H141109   5.992   2.000   9.199  1.5262  1.1527  2.7661
 5638TIP3    H241110   6.113   1.910   9.191  0.4833 -0.1401  0.7822
 5639TIP3   OH241111   1.883   3.820  11.703 -0.5851  0.1658  0.1390
 5639TIP3    H141112   1.791   3.837  11.685 -0.5199  1.1565  0.6482
 5639TIP3    H241113   1.893   3.838  11.797  0.1835  0.3483  0.0342
 5640TIP3   OH241114   4.559   4.909  12.494  0.8546 -0.6745 -0.3533
 5640TIP3    H141115   4.597   4.932  12.409  2.3292 -0.5224  0.3298
 5640TIP3    H241116   4.600   4.825  12.517  1.6332  0.0194  0.8889
 5641TIP3   OH241117   2.530   3.294  10.028 -0.2184 -0.0698  0.2035
 5641TIP3    H141118   2.477   3.230   9.980  0.0144 -0.9545  1.0729
 5641TIP3    H241119   2.467   3.341  10.083 -0.6823  1.8513 -1.8327
 5642TIP3   OH241120   0.243   3.616  10.973  0.3873  0.0762  0.1770
 5642TIP3    H141121   0.224   3.606  10.880  0.7011 -0.0186  0.1218
 5642TIP3    H241122   0.170   3.572  11.017  1.3872 -1.9578 -0.0561
 5643TIP3   OH241123   2.995   4.221  11.833  0.1460  0.1075 -0.5791
 5643TIP3    H141124   3.062   4.260  11.890  0.0238 -0.3646 -0.1079
 5643TIP3    H241125   3.010   4.262  11.748  0.1847  0.9868 -0.1574
 5644TIP3   OH241126   2.994   2.070   9.345 -0.0699 -0.0176 -0.6576
 5644TIP3    H141127   3.070   2.049   9.399 -1.1683 -1.6398  0.3260
 5644TIP3    H241128   2.956   2.148   9.387 -0.2992 -0.6294  0.2966
 5645TIP3   OH241129   2.494   0.213   9.875  0.6584  0.2079 -0.0766
 5645TIP3    H141130   2.505   0.126   9.837  1.1084 -0.1510  0.8585
 5645TIP3    H241131   2.399   0.228   9.872  0.5560 -0.4062 -0.0255
 5646TIP3   OH241132   2.607   4.965  11.567 -0.5635 -0.2788  0.0094
 5646TIP3    H141133   2.562   4.985  11.649 -0.1558 -2.9366  0.9628
 5646TIP3    H241134   2.698   4.953  11.592 -0.3205 -0.5300 -0.9494
 5647TIP3   OH241135   5.036   3.382  12.165 -0.1256 -0.1188  0.4684
 5647TIP3    H141136   4.971   3.333  12.216  0.3950  0.6486  1.9364
 5647TIP3    H241137   5.067   3.320  12.099 -0.7909 -1.1743  1.1185
 5648TIP3   OH241138   6.573   3.520  11.248  0.2867  0.3704  0.0617
 5648TIP3    H141139   6.572   3.425  11.238  1.6671  0.4486 -1.2855
 5648TIP3    H241140   6.568   3.534  11.343 -1.1105 -0.9780  0.2243
 5649TIP3   OH241141   3.588   3.135   9.963 -0.8121 -0.0018  0.1762
 5649TIP3    H141142   3.525   3.095  10.023  1.8772 -1.8669  2.0099
 5649TIP3    H241143   3.608   3.220  10.003  0.5054 -0.9763  1.7678
 5650TIP3   OH241144   4.800   6.353   9.677  0.1138  0.0381  0.4757
 5650TIP3    H141145   4.874   6.324   9.625 -0.1007  1.1200 -0.5094
 5650TIP3    H241146   4.838   6.400   9.751  0.4972  2.2492 -1.0077
 5651TIP3   OH241147   4.940   3.236   8.173  0.1831  0.6040  0.4558
 5651TIP3    H141148   5.004   3.168   8.154  0.6936  1.0167  0.6887
 5651TIP3    H241149   4.858   3.202   8.137  0.2491 -0.5072  1.3123
 5652TIP3   OH241150   0.704   5.003  10.889  0.0012 -0.4785 -0.1751
 5652TIP3    H141151   0.724   5.056  10.812  1.4394 -0.5523  0.1228
 5652TIP3    H241152   0.732   5.058  10.963 -0.0760 -0.9695  0.2237
 5653TIP3   OH241153   1.140   5.154  11.416 -0.3002  0.5065 -0.0760
 5653TIP3    H141154   1.112   5.131  11.504 -0.0391 -1.9302 -0.5598
 5653TIP3    H241155   1.059   5.181  11.371 -0.5299  1.1511  0.7137
 5654TIP3   OH241156   5.472   1.343   9.180  0.1277 -0.0408  0.5403
 5654TIP3    H141157   5.465   1.427   9.135  2.7213  0.2928  0.6161
 5654TIP3    H241158   5.536   1.294   9.129  0.2718 -1.1292  1.7100
 5655TIP3   OH241159   4.886   4.949  10.134  0.9806 -0.1105  0.5357
 5655TIP3    H141160   4.893   5.035  10.175 -1.3422 -0.1293  1.1047
 5655TIP3    H241161   4.792   4.936  10.120  1.3742 -1.9674 -0.8328
 5656TIP3   OH241162   3.767   4.336  11.012 -0.2774 -0.0347 -0.6303
 5656TIP3    H141163   3.821   4.411  11.038  0.4275 -0.2841 -1.3365
 5656TIP3    H241164   3.783   4.326  10.918 -1.0808 -0.5027 -0.7274
 5657TIP3   OH241165   6.115   4.920  11.795  0.2404 -0.2555 -0.5890
 5657TIP3    H141166   6.201   4.890  11.826  0.0835 -0.6456 -0.5341
 5657TIP3    H241167   6.094   4.995  11.851  1.4331  1.0918 -1.8525
 5658TIP3   OH241168   4.092   1.854  11.066  0.2821  0.0082 -0.2666
 5658TIP3    H141169   4.170   1.892  11.107 -0.7754 -0.3402  2.1960
 5658TIP3    H241170   4.020   1.909  11.096 -0.9311 -2.1719  1.0700
 5659TIP3   OH241171   1.512   4.307  10.245 -0.2365  0.4849  0.0399
 5659TIP3    H141172   1.592   4.354  10.222 -0.0077  0.5770  0.9620
 5659TIP3    H241173   1.528   4.217  10.218  0.6971  0.2355  1.3413
 5660TIP3   OH241174   2.650   4.896   9.456 -0.0753  0.0732 -0.2831
 5660TIP3    H141175   2.701   4.850   9.390 -0.5460 -0.1266 -0.5114
 5660TIP3    H241176   2.697   4.978   9.470 -1.8258  1.8059 -3.5070
 5661TIP3   OH241177   5.761   5.349  11.316 -0.2506  0.2066  0.1811
 5661TIP3    H141178   5.853   5.326  11.303 -0.4704 -0.9246  0.4633
 5661TIP3    H241179   5.735   5.394  11.236 -0.0333 -1.4582 -0.8780
 5662TIP3   OH241180   4.600   6.343  10.407  0.3507 -0.2819 -0.3206
 5662TIP3    H141181   4.544   6.364  10.482 -0.8718 -0.4644 -1.1549
 5662TIP3    H241182   4.671   6.408  10.411  0.5151 -0.5186  1.1863
 5663TIP3   OH241183   5.183   3.317   9.704  0.1770  0.0416  0.2951
 5663TIP3    H141184   5.201   3.407   9.731 -0.9767 -0.4476  2.9675
 5663TIP3    H241185   5.095   3.321   9.666 -0.3167 -0.0840  1.3798
 5664TIP3   OH241186   1.585   4.216   9.605 -0.1741  0.1852  0.2822
 5664TIP3    H141187   1.565   4.257   9.689  1.0517 -1.6935  1.5741
 5664TIP3    H241188   1.499   4.189   9.571 -0.5914 -0.2771  1.6233
 5665TIP3   OH241189   6.549   6.478   9.171 -0.1152  0.2891  0.0369
 5665TIP3    H141190   6.506   6.487   9.086 -3.2719  0.1044  1.4669
 5665TIP3    H241191   6.527   6.389   9.199  0.2654  0.5880  1.3376
 5666TIP3   OH241192   0.357   4.916  10.424 -0.9887 -0.5099 -0.0012
 5666TIP3    H141193   0.304   4.890  10.499  1.3570 -2.7671  1.0131
 5666TIP3    H241194   0.442   4.874  10.438  0.3739  1.0572 -2.6748
 5667TIP3   OH241195   4.313   3.937  10.750  0.1061 -0.0816  0.0718
 5667TIP3    H141196   4.333   3.860  10.697  2.1163 -0.6718  1.5523
 5667TIP3    H241197   4.360   4.009  10.707  0.5984 -0.2830  0.2654
 5668TIP3   OH241198   3.695   5.118  10.070  0.1335 -0.3141  0.4463
 5668TIP3    H141199   3.614   5.154  10.107  0.7131  1.7536 -0.1908
 5668TIP3    H241200   3.725   5.185  10.008  1.9911 -1.3418  0.1682
 5669TIP3   OH241201   0.015   6.435   9.250 -0.3801  0.6626  0.0744
 5669TIP3    H141202   0.014   6.446   9.345 -0.9388 -0.0425  0.1606
 5669TIP3    H241203  -0.067   6.474   9.220 -0.5669  0.1912 -0.0315
 5670TIP3   OH241204   1.250   0.137   8.465  0.1648 -0.1682 -0.3786
 5670TIP3    H141205   1.318   0.073   8.483  1.1882  0.5065 -1.6970
 5670TIP3    H241206   1.284   0.219   8.503  0.3535  0.2867 -1.4899
 5671TIP3   OH241207   2.740   3.342  11.683  0.0852  0.0410 -0.2238
 5671TIP3    H141208   2.833   3.364  11.690 -0.4527  4.4957 -2.9220
 5671TIP3    H241209   2.737   3.257  11.640  2.8995 -0.2226 -0.0290
 5672TIP3   OH241210   1.454   6.599  10.843  0.3847 -0.3983  0.1733
 5672TIP3    H141211   1.521   6.563  10.785  1.3853  3.2947 -1.2445
 5672TIP3    H241212   1.407   6.662  10.789 -2.8485 -1.2092  1.7910
 5673TIP3   OH241213   6.570   0.997   9.628  0.1068  0.2743  0.2486
 5673TIP3    H141214   6.534   1.086   9.630  0.7432  0.5442  0.0273
 5673TIP3    H241215   6.527   0.952   9.701  0.7292  1.1419  1.1827
 5674TIP3   OH241216   2.698   1.617   9.019  0.1443  0.4492  0.1849
 5674TIP3    H141217   2.742   1.628   8.934  0.2977 -1.0096  0.0381
 5674TIP3    H241218   2.615   1.664   9.010 -0.6001 -1.0542 -1.4128
 5675TIP3   OH241219   3.416   0.071  10.860 -0.6818  0.4195  0.0466
 5675TIP3    H141220   3.388   0.049  10.771  1.0315 -0.7767 -0.2398
 5675TIP3    H241221   3.512   0.072  10.856 -0.5899  2.4224  1.4188
 5676TIP3   OH241222   5.043   1.202  11.116 -0.5865  0.3544 -0.2026
 5676TIP3    H141223   5.106   1.217  11.186 -1.5792  1.8243  0.4149
 5676TIP3    H241224   5.087   1.234  11.037  0.3863 -0.9624 -0.2388
 5677TIP3   OH241225   5.854   4.483   9.811 -0.4890 -0.0558 -0.0817
 5677TIP3    H141226   5.769   4.497   9.852 -1.8653 -0.6472 -2.5141
 5677TIP3    H241227   5.902   4.427   9.872 -1.4816  0.9865  1.7321
 5678TIP3   OH241228   1.416   5.523  10.818  0.0664  0.5767  0.5305
 5678TIP3    H141229   1.439   5.454  10.880  1.1171  0.4442  0.0034
 5678TIP3    H241230   1.329   5.498  10.786  0.3643 -0.4147  0.4721
 5679TIP3   OH241231   6.557   4.756  10.994  0.4992  0.0840  0.9345
 5679TIP3    H141232   6.630   4.802  11.037 -0.3933  1.2414  1.2796
 5679TIP3    H241233   6.497   4.826  10.969  0.2649 -0.7204 -0.8356
 5680TIP3   OH241234   5.970   2.972  11.028 -0.2549 -0.1693 -0.0107
 5680TIP3    H141235   6.057   2.985  11.066 -1.3514  1.6298  2.1023
 5680TIP3    H241236   5.962   2.877  11.021  1.6251 -0.4063  0.3127
 5681TIP3   OH241237   5.398   3.544  10.989 -0.4513 -0.3238  1.0319
 5681TIP3    H141238   5.355   3.562  11.073  0.0327  1.0841  1.0169
 5681TIP3    H241239   5.432   3.630  10.962 -1.5397 -0.5185 -1.1293
 5682TIP3   OH241240   5.780   3.395  10.441  0.4570  0.1529 -0.8188
 5682TIP3    H141241   5.830   3.357  10.513  0.4133  1.5910  0.0060
 5682TIP3    H241242   5.792   3.490  10.451 -1.8638  0.5217 -1.0067
 5683TIP3   OH241243   3.290   2.302   9.549 -0.1106  0.0616 -0.7836
 5683TIP3    H141244   3.264   2.384   9.591 -1.2140 -1.0004  0.7102
 5683TIP3    H241245   3.386   2.305   9.545 -0.0498  0.7023  0.7749
 5684TIP3   OH241246   6.432   4.258   9.688  0.4747 -0.0133  0.3137
 5684TIP3    H141247   6.352   4.213   9.659  0.2753  0.4572  0.1339
 5684TIP3    H241248   6.491   4.186   9.713 -0.7544 -0.3447  2.5409
 5685TIP3   OH241249   1.108   0.224  11.691 -0.0559 -0.3080 -0.1106
 5685TIP3    H141250   1.198   0.251  11.675  0.7354 -2.9252 -0.7243
 5685TIP3    H241251   1.067   0.226  11.604 -0.0430 -0.7748 -0.1333
 5686TIP3   OH241252   2.392   0.084  10.542  0.1033 -0.1394 -0.2448
 5686TIP3    H141253   2.334   0.133  10.484 -1.2888  0.7291  1.7710
 5686TIP3    H241254   2.334   0.051  10.611  1.6481 -1.3442  0.5416
 5687TIP3   OH241255   1.380   3.238   9.879  0.0185  0.2149  0.0041
 5687TIP3    H141256   1.327   3.208   9.805 -0.1141  1.8733 -0.6254
 5687TIP3    H241257   1.387   3.162   9.936 -0.4650 -0.9190 -1.3793
 5688TIP3   OH241258   2.776   1.971  12.109 -0.2359 -0.6908  0.1790
 5688TIP3    H141259   2.693   2.016  12.122  0.3190  0.9766 -1.5740
 5688TIP3    H241260   2.817   1.971  12.195 -1.5645 -0.5246  0.8290
 5689TIP3   OH241261   0.484   5.553   9.880 -0.2250 -0.3529  0.1388
 5689TIP3    H141262   0.430   5.514   9.812 -3.6405  2.5037  0.8399
 5689TIP3    H241263   0.429   5.550   9.959  2.0535 -0.2141  1.8557
 5690TIP3   OH241264   5.951   0.315   9.804  0.0985  0.7043 -0.3515
 5690TIP3    H141265   5.887   0.245   9.809 -0.3651  1.0892 -0.7857
 5690TIP3    H241266   5.942   0.350   9.715  0.0072  1.5939 -0.0084
 5691TIP3   OH241267   0.588   1.899  11.257 -0.1913 -0.2977  0.1723
 5691TIP3    H141268   0.655   1.883  11.324 -0.7289 -3.5242  0.0699
 5691TIP3    H241269   0.636   1.942  11.186  1.3588 -0.8368  0.8449
 5692TIP3   OH241270   6.426   3.001  10.353 -0.2698  0.2461  0.0481
 5692TIP3    H141271   6.496   3.064  10.368  0.3807 -0.5315  0.3081
 5692TIP3    H241272   6.366   3.013  10.426 -0.0955  0.4939  0.1509
 5693TIP3   OH241273   4.021   0.325   9.577  0.0438 -0.8516  0.2893
 5693TIP3    H141274   3.942   0.376   9.559 -0.2918 -1.8276 -1.1220
 5693TIP3    H241275   3.999   0.236   9.552  1.0613 -1.4703  1.4583
 5694TIP3   OH241276   2.008   4.105  11.856 -0.1000  0.3702  0.2103
 5694TIP3    H141277   1.971   4.194  11.857  1.3342  1.0471 -1.6637
 5694TIP3    H241278   1.935   4.049  11.884 -1.0165  2.1132  1.5502
 5695TIP3   OH241279   3.798   5.136  11.702  0.5058  0.0968 -0.1767
 5695TIP3    H141280   3.752   5.091  11.632  1.7131 -0.2465 -0.7822
 5695TIP3    H241281   3.777   5.086  11.781 -1.2109  0.7372 -0.1773
 5696TIP3   OH241282   4.557   4.456  10.770 -0.1653  0.4592 -0.0859
 5696TIP3    H141283   4.547   4.368  10.734  0.8415 -0.3310  1.4527
 5696TIP3    H241284   4.540   4.514  10.696 -1.0896 -1.0010 -1.0912
 5697TIP3   OH241285   3.537   4.535  11.430 -0.2338  0.1388  0.2363
 5697TIP3    H141286   3.512   4.443  11.436  2.1514 -0.5344  0.9989
 5697TIP3    H241287   3.582   4.543  11.347  1.3809  0.0935  1.0746
 5698TIP3   OH241288   4.581   2.231   9.475  0.5650 -0.0949 -0.1831
 5698TIP3    H141289   4.675   2.225   9.488  0.2455  0.5434  3.9325
 5698TIP3    H241290   4.549   2.142   9.492  0.2598  0.4041  2.2665
 5699TIP3   OH241291   1.322   4.468   9.990  0.6747  0.4438  0.4994
 5699TIP3    H141292   1.359   4.517  10.063  2.2538 -2.5940  1.8917
 5699TIP3    H241293   1.239   4.434  10.023  0.9341 -0.1513  0.5430
 5700TIP3   OH241294   6.648   3.424   9.957 -0.1521 -0.3227 -0.1711
 5700TIP3    H141295   6.724   3.397  10.008 -0.0824 -0.7512 -0.4931
 5700TIP3    H241296   6.583   3.450  10.022  0.1218 -0.3580  0.1194
 5701TIP3   OH241297   1.999   6.797  11.423 -0.1000 -0.3725  0.3067
 5701TIP3    H141298   1.916   6.846  11.426 -0.6919 -1.2726 -0.5558
 5701TIP3    H241299   2.037   6.820  11.339  1.3002  1.2015  1.3256
 5702TIP3   OH241300   0.816   3.008  12.340 -0.3966  0.3972  0.4161
 5702TIP3    H141301   0.785   3.004  12.250 -0.0180 -0.8192  0.3201
 5702TIP3    H241302   0.852   3.096  12.349  1.6898 -0.1918 -1.3446
 5703TIP3   OH241303   2.503   6.065  10.817 -0.6447 -0.5129 -0.3478
 5703TIP3    H141304   2.514   6.071  10.911  1.5592  0.0409 -0.5910
 5703TIP3    H241305   2.548   6.141  10.782  1.9811 -2.6295 -1.9949
 5704TIP3   OH241306   3.497   3.938  12.027 -0.3826  0.6411  0.0970
 5704TIP3    H141307   3.547   3.986  11.961 -0.6626  0.5093 -0.2154
 5704TIP3    H241308   3.463   4.006  12.085  0.0301  0.7421  0.2272
 5705TIP3   OH241309   2.480   2.685   9.862  0.1301  0.2640  0.0584
 5705TIP3    H141310   2.516   2.671   9.949  0.2553  0.1747 -0.0078
 5705TIP3    H241311   2.542   2.643   9.802  0.2166  0.6091 -0.0979
 5706TIP3   OH241312   1.258   6.181  11.501 -0.1143  0.4994 -0.3120
 5706TIP3    H141313   1.206   6.100  11.501  0.0136  0.4113 -0.7193
 5706TIP3    H241314   1.278   6.195  11.408 -0.3785  1.1595 -0.2710
 5707TIP3   OH241315   0.499   6.265  10.887 -0.1489  0.4999 -0.6183
 5707TIP3    H141316   0.527   6.258  10.978  0.3192 -0.6874 -0.8332
 5707TIP3    H241317   0.407   6.292  10.892 -1.0558 -2.3461  0.3536
 5708TIP3   OH241318   4.948   4.828  11.701 -0.2971 -0.0712  0.3944
 5708TIP3    H141319   5.003   4.751  11.718  0.2067 -0.0214 -0.9234
 5708TIP3    H241320   4.960   4.883  11.778 -0.1782 -1.0346  1.0788
 5709TIP3   OH241321   4.003   1.392  10.808 -0.5740 -0.1689 -0.0206
 5709TIP3    H141322   4.004   1.300  10.782  1.7919 -0.0044 -0.7728
 5709TIP3    H241323   3.975   1.439  10.730 -2.6920 -0.2578  0.6331
 5710TIP3   OH241324   4.516   5.245   9.375  0.1168  0.1455  0.3056
 5710TIP3    H141325   4.540   5.164   9.421 -1.9846 -0.8345 -0.2329
 5710TIP3    H241326   4.485   5.216   9.290  0.0500  1.6005 -0.1899
 5711TIP3   OH241327   1.805   2.154   9.574 -0.3291  0.1316 -0.0716
 5711TIP3    H141328   1.797   2.059   9.583  0.6758 -0.2715 -2.5467
 5711TIP3    H241329   1.844   2.183   9.656 -1.4529 -1.4558  1.0808
 5712TIP3   OH241330   1.139   2.624  11.638  0.0034 -0.2683  0.0776
 5712TIP3    H141331   1.048   2.631  11.665 -0.1676 -0.9503 -0.2924
 5712TIP3    H241332   1.143   2.543  11.587  0.7969 -0.2058  0.0199
 5713TIP3   OH241333   1.932   0.507  10.456 -0.7850  0.0239  0.3397
 5713TIP3    H141334   2.025   0.527  10.449 -0.6813 -0.1495  1.1550
 5713TIP3    H241335   1.896   0.530  10.370  0.2273 -1.1236 -0.4209
 5714TIP3   OH241336   4.775   5.424  11.484  0.0848 -0.4812 -0.2485
 5714TIP3    H141337   4.770   5.330  11.468  0.9769 -0.8676  1.4362
 5714TIP3    H241338   4.802   5.461  11.400 -1.2771 -1.5882 -1.2185
 5715TIP3   OH241339   1.928   6.487   9.143  0.2422 -0.5782 -0.5148
 5715TIP3    H141340   1.959   6.488   9.052 -0.9425 -1.0010 -0.9376
 5715TIP3    H241341   1.933   6.579   9.170  1.3245 -0.5520 -0.7362
 5716TIP3   OH241342   0.454   3.790  11.520  0.5202 -0.2507 -0.2377
 5716TIP3    H141343   0.421   3.739  11.594 -0.6842  2.1475  1.0062
 5716TIP3    H241344   0.467   3.726  11.450  0.9530 -2.4866  1.7799
 5717TIP3   OH241345   3.635   3.422   9.716 -0.2204  0.4326 -0.3354
 5717TIP3    H141346   3.669   3.510   9.703 -1.0794  0.7607 -0.4389
 5717TIP3    H241347   3.701   3.378   9.770  0.6351  0.8526 -1.0082
 5718TIP3   OH241348   4.492   1.253   9.992 -0.1548 -0.0027 -0.4344
 5718TIP3    H141349   4.441   1.333  10.003 -1.2502 -0.9506  2.2913
 5718TIP3    H241350   4.570   1.266  10.045  0.7553  0.0537 -1.7351
 5719TIP3   OH241351   0.082   2.612  11.740  0.1547  0.0265 -0.0426
 5719TIP3    H141352   0.177   2.607  11.752  0.2394 -0.7813 -0.9341
 5719TIP3    H241353   0.059   2.701  11.766  1.0339 -0.0144  0.9431
 5720TIP3   OH241354   1.185   6.036  11.913 -0.3863 -0.2582 -1.4934
 5720TIP3    H141355   1.229   6.120  11.927 -0.5792 -0.4002  0.1525
 5720TIP3    H241356   1.238   5.972  11.961 -1.3962 -0.7135 -0.9404
 5721TIP3   OH241357   5.145   4.146   9.894  0.0488 -0.1157  0.7095
 5721TIP3    H141358   5.211   4.210   9.867 -1.2465  1.6816  1.5901
 5721TIP3    H241359   5.193   4.063   9.901  1.9307  0.8805  0.1434
 5722TIP3   OH241360   1.917   5.766  10.890 -0.5270 -0.3837 -0.2011
 5722TIP3    H141361   1.975   5.710  10.942  0.3445  1.2700  0.6746
 5722TIP3    H241362   1.968   5.845  10.873 -1.3013 -0.2769 -2.4125
 5723TIP3   OH241363   1.174   2.876  10.843 -0.2153  0.0941 -0.1039
 5723TIP3    H141364   1.116   2.887  10.768 -0.1168  2.3783  0.1080
 5723TIP3    H241365   1.176   2.961  10.886  2.0864 -0.3191  0.7938
 5724TIP3   OH241366   0.225   3.166  10.621 -0.2938  0.2812  0.4037
 5724TIP3    H141367   0.270   3.129  10.697 -0.2740 -0.0814  0.2168
 5724TIP3    H241368   0.132   3.155  10.641 -0.2808 -0.5343  0.0242
 5725TIP3   OH241369   1.910   2.822  11.912  0.2595  0.2612  0.2105
 5725TIP3    H141370   1.944   2.902  11.952 -0.5914 -0.6382  2.9601
 5725TIP3    H241371   1.988   2.769  11.897  0.6091  0.5576  0.9057
 5726TIP3   OH241372   6.781   3.324   9.052  0.7751  0.1058 -0.4615
 5726TIP3    H141373   6.695   3.365   9.053  0.7693  0.1546  1.2675
 5726TIP3    H241374   6.843   3.397   9.045  0.6844  0.0956 -1.3740
 5727TIP3   OH241375   4.834   5.084  10.398 -0.1267  0.0056 -0.0963
 5727TIP3    H141376   4.899   5.154  10.404  0.1503 -0.2620  0.0901
 5727TIP3    H241377   4.753   5.128  10.372  0.7739  0.0023 -3.3100
 5728TIP3   OH241378   6.124   3.826   9.586  0.3699  0.2695 -0.3322
 5728TIP3    H141379   6.193   3.821   9.653 -1.1001  1.1514  1.3157
 5728TIP3    H241380   6.094   3.735   9.577  1.3447 -0.0339 -0.6490
 5729TIP3   OH241381   5.655   0.826   9.366  0.0140  0.1979 -0.0079
 5729TIP3    H141382   5.737   0.856   9.406  0.3138 -0.1212 -0.3737
 5729TIP3    H241383   5.587   0.876   9.410  0.2843 -0.5501  1.3167
 5730TIP3   OH241384   1.417   3.363  11.135 -0.0395  0.4401  0.3562
 5730TIP3    H141385   1.370   3.282  11.153  0.7449 -0.4783 -1.3987
 5730TIP3    H241386   1.356   3.416  11.084  0.5976 -0.6164 -1.6367
 5731TIP3   OH241387   2.820   1.470   9.242  0.5359  0.3633 -0.4527
 5731TIP3    H141388   2.775   1.507   9.165 -0.8556  1.0572  0.6533
 5731TIP3    H241389   2.787   1.381   9.249  0.3815  0.4213 -0.4435
 5732TIP3   OH241390   5.915   5.930   8.541 -0.8825  0.1958  0.7121
 5732TIP3    H141391   5.844   5.876   8.507 -0.1295 -1.0121  1.0215
 5732TIP3    H241392   5.931   5.897   8.629  1.5005 -1.0232 -0.1084
 5733TIP3   OH241393   4.838   3.519  10.602 -0.2698  0.2162  0.1000
 5733TIP3    H141394   4.923   3.535  10.560 -0.3950  0.3916 -0.0867
 5733TIP3    H241395   4.834   3.583  10.673  1.6779 -2.5330  2.9889
 5734TIP3   OH241396   3.252   4.109   9.813  0.1250 -0.0533  0.1936
 5734TIP3    H141397   3.259   4.016   9.834  2.2731  0.3912  1.8097
 5734TIP3    H241398   3.209   4.148   9.889 -0.7422  0.2894 -0.4628
 5735TIP3   OH241399   0.799   1.912   9.469 -0.5128 -0.2537  0.0387
 5735TIP3    H141400   0.775   1.987   9.523  0.9138 -1.2964  2.2497
 5735TIP3    H241401   0.726   1.851   9.480 -1.3332  0.4445 -1.1895
 5736TIP3   OH241402   4.882   0.344  11.068  0.1724  0.2632 -0.4028
 5736TIP3    H141403   4.943   0.399  11.118  0.1704 -1.1520  1.2306
 5736TIP3    H241404   4.938   0.278  11.028 -0.2408 -1.1006  1.1797
 5737TIP3   OH241405   3.834   1.903  10.264 -0.0002 -0.1847  0.5561
 5737TIP3    H141406   3.754   1.853  10.280  0.0398 -1.0347 -1.5836
 5737TIP3    H241407   3.905   1.844  10.290  0.0872 -1.7630 -2.8265
 5738TIP3   OH241408   4.650   2.450  10.839 -0.1917 -0.2455 -0.2902
 5738TIP3    H141409   4.707   2.474  10.766  1.6951 -1.3188  0.7364
 5738TIP3    H241410   4.603   2.531  10.861 -1.3027 -0.0432 -3.0246
 5739TIP3   OH241411   4.888   3.989  11.816  0.1503 -0.2982  0.3038
 5739TIP3    H141412   4.973   4.033  11.820 -0.1752  0.5411 -1.2115
 5739TIP3    H241413   4.853   3.998  11.905  1.0918  0.4532  0.6278
 5740TIP3   OH241414   6.078   5.929  10.383  0.0283  0.1282  0.3080
 5740TIP3    H141415   5.983   5.916  10.393 -0.0149 -0.8547 -1.0309
 5740TIP3    H241416   6.113   5.911  10.470 -0.9398 -0.3892  0.6176
 5741TIP3   OH241417   1.129   0.507  10.432 -0.1640 -0.0075 -0.2186
 5741TIP3    H141418   1.147   0.423  10.474  0.4119 -0.3543 -1.1177
 5741TIP3    H241419   1.040   0.499  10.398  0.0155 -0.3792 -0.5995
 5742TIP3   OH241420   1.541   1.355   8.656  0.1128  0.1146  0.6809
 5742TIP3    H141421   1.467   1.301   8.680  0.4113 -1.2987 -1.2796
 5742TIP3    H241422   1.614   1.320   8.707  0.1100 -0.7733  0.1006
 5743TIP3   OH241423   4.699   2.258  17.298  0.2825  0.0744  0.1592
 5743TIP3    H141424   4.750   2.332  17.267  0.6831 -0.1697  0.2222
 5743TIP3    H241425   4.688   2.201  17.221  2.7083 -1.3519  0.7683
 5744TIP3   OH241426   5.216   6.484  10.504 -0.3245 -0.2636  0.1588
 5744TIP3    H141427   5.135   6.434  10.494  0.5526 -1.4822 -1.3922
 5744TIP3    H241428   5.188   6.576  10.497 -1.5346 -0.6719 -0.7162
 5745TIP3   OH241429   1.696   0.485   9.001  0.4623  0.2847 -0.2711
 5745TIP3    H141430   1.702   0.503   8.907  0.7077 -2.4411 -0.8417
 5745TIP3    H241431   1.782   0.449   9.024  0.0442 -0.0829  0.7496
 5746TIP3   OH241432   3.591   4.943   8.768  0.0134  0.2309 -0.5665
 5746TIP3    H141433   3.614   4.954   8.861  1.3176  0.5221 -0.8966
 5746TIP3    H241434   3.568   5.031   8.738  0.7002  0.3424 -0.7838
 5747TIP3   OH241435   3.305   5.496  11.159 -0.4372  0.0977  0.3574
 5747TIP3    H141436   3.319   5.545  11.078 -0.1759  0.0450  0.3681
 5747TIP3    H241437   3.390   5.454  11.176 -0.6512 -0.3388  0.3603
 5748TIP3   OH241438   4.246   2.022  10.214 -0.0321 -0.0700 -0.1586
 5748TIP3    H141439   4.286   1.994  10.297  0.8744  2.6447  0.4405
 5748TIP3    H241440   4.160   1.979  10.213 -0.6535  0.8453  2.9240
 5749TIP3   OH241441   2.386   3.295  10.709 -0.2574  0.4023 -0.2703
 5749TIP3    H141442   2.434   3.335  10.782  0.4709  0.0321 -0.5340
 5749TIP3    H241443   2.295   3.323  10.722 -0.2737 -0.2268  1.1761
 5750TIP3   OH241444   3.266   0.165  11.102 -0.5587  0.3067 -0.5063
 5750TIP3    H141445   3.300   0.115  11.029 -2.1058  0.6325 -1.4949
 5750TIP3    H241446   3.278   0.108  11.178 -0.0110 -0.5159 -1.1955
 5751TIP3   OH241447   0.598   0.455   8.668  0.1347  0.0257  0.5030
 5751TIP3    H141448   0.517   0.406   8.680 -0.2135  0.7496  1.1770
 5751TIP3    H241449   0.666   0.388   8.664 -0.5269 -0.6116 -0.4309
 5752TIP3   OH241450   2.018   3.050   9.994 -0.8160 -0.5664  0.2272
 5752TIP3    H141451   1.975   3.056  10.079 -1.4770  1.0807 -0.1989
 5752TIP3    H241452   2.059   3.135   9.982  1.2851 -1.5612 -0.0852
 5753TIP3   OH241453   1.139   1.632   9.129  0.2026 -0.3681  0.6634
 5753TIP3    H141454   1.187   1.597   9.055  1.4490  2.3557  0.0598
 5753TIP3    H241455   1.059   1.580   9.133  0.6625 -1.3874 -1.8133
 5754TIP3   OH241456   2.606   5.411   9.489  0.4116  0.2281  0.7078
 5754TIP3    H141457   2.596   5.502   9.516 -0.9098  0.9360 -1.8815
 5754TIP3    H241458   2.577   5.361   9.565  1.6921  1.8968  2.3927
 5755TIP3   OH241459   6.057   4.347   9.607  0.3345 -0.4249  0.0524
 5755TIP3    H141460   5.996   4.409   9.649 -0.7034 -1.7141  0.5232
 5755TIP3    H241461   6.118   4.403   9.559  0.1027  1.0078  1.3373
 5756TIP3   OH241462   0.661   6.057   9.846 -0.2273  0.3378  0.0897
 5756TIP3    H141463   0.621   5.970   9.846 -1.1380  0.7117  1.9420
 5756TIP3    H241464   0.619   6.103   9.773 -0.0547 -0.6205 -0.6321
 5757TIP3   OH241465   1.943   1.423   8.925 -0.1372  0.1217  0.3444
 5757TIP3    H141466   1.916   1.482   8.995 -1.0811  0.9942 -0.7029
 5757TIP3    H241467   2.024   1.461   8.891  1.2921 -1.2571  2.0308
 5758TIP3   OH241468   3.052   6.544   9.013  0.3758 -0.3667  0.1732
 5758TIP3    H141469   3.110   6.540   9.089  0.3652 -1.2533  0.1335
 5758TIP3    H241470   3.097   6.604   8.953  1.0299 -0.6848  0.3342
 5759TIP3   OH241471   2.390   3.223   9.231 -0.5419 -0.3474  0.6409
 5759TIP3    H141472   2.404   3.272   9.150 -0.2382 -0.1241  0.8229
 5759TIP3    H241473   2.321   3.161   9.210 -2.6394  1.7054  1.0505
 5760TIP3   OH241474   4.335   6.433  11.209  0.0006  0.0990  0.4824
 5760TIP3    H141475   4.342   6.349  11.255  0.0552  0.0378  0.3616
 5760TIP3    H241476   4.392   6.492  11.258  0.8317 -0.2186 -0.0890
 5761TIP3   OH241477   3.950   0.081   9.446 -0.1609 -0.6221 -0.2094
 5761TIP3    H141478   4.023   0.032   9.408 -0.6243 -0.5229 -1.2795
 5761TIP3    H241479   3.904   0.017   9.501 -0.5735 -1.3316 -1.3388
 5762TIP3   OH241480   3.361   6.713  11.226  0.3093  0.0105  0.7849
 5762TIP3    H141481   3.401   6.713  11.314 -1.1192 -0.0498  1.4647
 5762TIP3    H241482   3.267   6.711  11.243 -0.0316  1.2643 -0.7588
 5763TIP3   OH241483   1.910   4.662   9.774  0.5298 -0.4346  0.1743
 5763TIP3    H141484   1.828   4.617   9.793 -1.4128  2.4172 -0.7450
 5763TIP3    H241485   1.909   4.739   9.831  3.6536 -1.3554  1.6468
 5764TIP3   OH241486   3.034   5.980   9.502  0.3132 -0.4521 -0.4185
 5764TIP3    H141487   3.101   5.926   9.543 -1.2804 -1.3381  1.1806
 5764TIP3    H241488   3.027   6.057   9.558  0.8720  0.2614 -1.3088
 5765TIP3   OH241489   4.101   1.111  10.708 -0.9755  0.0224  0.0914
 5765TIP3    H141490   4.044   1.036  10.695  0.4806 -1.0588 -0.2597
 5765TIP3    H241491   4.187   1.074  10.728 -0.2586  1.5871  0.1207
 5766TIP3   OH241492   1.529   3.476  11.689  0.1539  0.1984  0.0712
 5766TIP3    H141493   1.468   3.403  11.686  0.5101 -0.1556  0.9682
 5766TIP3    H241494   1.476   3.552  11.713 -0.3839  0.4514 -1.7689
 5767TIP3   OH241495   6.440   5.408   9.474 -0.1507  0.1753 -0.3397
 5767TIP3    H141496   6.419   5.497   9.446  2.2742  0.8903 -0.1557
 5767TIP3    H241497   6.498   5.420   9.549 -0.7354 -1.6043  0.4468
 5768TIP3   OH241498   5.582   2.777   9.888  0.0924 -0.3796  0.8087
 5768TIP3    H141499   5.549   2.846   9.831 -0.3037 -1.0339  0.2353
 5768TIP3    H241500   5.514   2.766   9.954  0.1096 -0.2882  0.8414
 5769TIP3   OH241501   2.352   1.480  10.625  0.3413 -0.6003  0.2943
 5769TIP3    H141502   2.347   1.389  10.594 -0.3388  0.0130 -1.5079
 5769TIP3    H241503   2.413   1.523  10.565 -0.2386  0.4185  0.4161
 5770TIP3   OH241504   3.881   1.285   9.913 -0.2763 -0.1476 -0.2580
 5770TIP3    H141505   3.864   1.359   9.854 -1.2509  0.9776  1.3650
 5770TIP3    H241506   3.937   1.322   9.982  2.2897 -1.8420 -1.2602
 5771TIP3   OH241507   0.840   2.197   9.988  0.0016  0.0469  0.1627
 5771TIP3    H141508   0.747   2.200   9.967 -0.1762 -1.5650  0.6418
 5771TIP3    H241509   0.843   2.183  10.082  0.7817  2.5794  0.6023
 5772TIP3   OH241510   6.100   6.527  12.253 -0.2578  0.2262  1.0879
 5772TIP3    H141511   6.053   6.590  12.198  1.0325  1.9997  1.9070
 5772TIP3    H241512   6.155   6.478  12.193 -1.9443 -0.8086  0.3179
 5773TIP3   OH241513   5.616   4.954   8.780 -0.5461 -0.0225  0.0675
 5773TIP3    H141514   5.659   4.972   8.863  0.1861 -0.9692 -0.0910
 5773TIP3    H241515   5.565   5.033   8.762 -0.3130  0.3965  1.1564
 5774TIP3   OH241516   6.270   3.198  10.540  0.1049 -0.2784  0.6845
 5774TIP3    H141517   6.342   3.181  10.601 -0.1022 -0.6915  0.8213
 5774TIP3    H241518   6.211   3.123  10.551  0.9271 -1.2868 -1.2919
 5775TIP3   OH241519   3.008   0.844   9.441 -0.1490  0.2954  0.0687
 5775TIP3    H141520   3.099   0.836   9.414  0.0411  3.3242 -0.5077
 5775TIP3    H241521   2.961   0.863   9.360 -0.8963  1.0827  0.6713
 5776TIP3   OH241522   2.732   5.560  10.811  0.3641  0.5136  0.1505
 5776TIP3    H141523   2.795   5.629  10.790 -0.6034  1.4487  0.2289
 5776TIP3    H241524   2.766   5.482  10.766  1.3489  1.0908 -0.1357
 5777TIP3   OH241525   3.923   2.198  10.068 -0.0782  0.2776 -0.5564
 5777TIP3    H141526   4.008   2.193  10.023 -0.0393 -1.9374 -0.3388
 5777TIP3    H241527   3.941   2.170  10.157 -0.7068  1.8432  0.1066
 5778TIP3   OH241528   4.085   6.426  10.957  0.1906  0.0379 -0.1129
 5778TIP3    H141529   4.055   6.359  11.018 -0.1962  1.3910  1.2400
 5778TIP3    H241530   4.007   6.447  10.905  0.2050 -0.2567 -0.2551
 5779TIP3   OH241531   1.736   1.610   9.370  0.0998  0.0789 -0.5428
 5779TIP3    H141532   1.746   1.665   9.293 -1.4604 -0.9877 -1.5710
 5779TIP3    H241533   1.657   1.559   9.353 -0.1303 -0.4048  1.6370
 5780TIP3   OH241534   0.380   5.093  11.122 -0.0074 -0.7981 -0.4085
 5780TIP3    H141535   0.474   5.109  11.114  0.2384 -0.9256  1.5979
 5780TIP3    H241536   0.371   4.998  11.116 -0.1147 -0.7394 -1.3110
 5781TIP3   OH241537   4.001   3.049   9.553 -0.0233 -0.1629  0.3220
 5781TIP3    H141538   4.000   3.144   9.539 -0.3146 -0.0927  0.7988
 5781TIP3    H241539   4.073   3.034   9.614 -0.3261 -0.1843  0.6765
 5782TIP3   OH241540   5.688   4.913  10.750 -0.7492  0.0840 -0.6150
 5782TIP3    H141541   5.738   4.989  10.722 -0.0458 -0.7676 -1.8061
 5782TIP3    H241542   5.723   4.892  10.837 -0.5150  0.7482 -0.5423
 5783TIP3   OH241543   1.513   0.251   8.299 -0.3745 -0.0130  0.5221
 5783TIP3    H141544   1.556   0.270   8.216  0.4198 -1.5779  0.5400
 5783TIP3    H241545   1.507   0.155   8.302 -0.2267 -0.0028  2.3311
 5784TIP3   OH241546   3.998   4.187  12.486  0.0807  0.0804 -0.1036
 5784TIP3    H141547   3.909   4.155  12.501 -0.7436  2.6979  1.1738
 5784TIP3    H241548   3.987   4.268  12.437  1.5305  1.7055  2.0890
 5785TIP3   OH241549   1.696   5.807   9.758 -0.1619  0.1079  0.4764
 5785TIP3    H141550   1.689   5.902   9.764  1.2335  0.4402 -1.9617
 5785TIP3    H241551   1.621   5.781   9.704 -0.4484 -0.1779  1.0044
 5786TIP3   OH241552   5.708   5.091   9.673  0.4999 -0.1414 -0.2411
 5786TIP3    H141553   5.767   5.125   9.606 -0.7243  0.3362 -1.1156
 5786TIP3    H241554   5.680   5.006   9.639 -0.2979  0.1998 -0.4723
 5787TIP3   OH241555   3.154   3.757   8.987 -0.1946 -0.3278  0.0716
 5787TIP3    H141556   3.210   3.707   9.045  0.8114  0.2336 -0.3974
 5787TIP3    H241557   3.192   3.746   8.900  0.9109  2.3414  0.1262
 5788TIP3   OH241558   2.939   5.433  10.474 -0.4922 -0.5597  0.1462
 5788TIP3    H141559   2.993   5.511  10.468 -0.1395 -0.6044  1.9868
 5788TIP3    H241560   2.890   5.431  10.392  0.0473  1.1551 -0.2624
 5789TIP3   OH241561   2.630   1.947  10.396  0.3734  0.4691  0.3421
 5789TIP3    H141562   2.645   1.997  10.316 -0.3976 -1.7389 -1.3181
 5789TIP3    H241563   2.546   1.978  10.429  0.2052  0.7203 -0.3081
 5790TIP3   OH241564   5.852   3.074  11.928  0.2447  0.1996 -0.2733
 5790TIP3    H141565   5.894   3.115  11.853 -0.5411  0.9172 -0.3355
 5790TIP3    H241566   5.910   3.092  12.002 -0.0758  1.4053 -0.3063
 5791TIP3   OH241567   2.651   6.005  10.474  0.0759 -0.3714  0.1331
 5791TIP3    H141568   2.590   6.037  10.408  0.5625  1.3824  0.4953
 5791TIP3    H241569   2.600   5.944  10.526 -0.4601 -1.3919 -1.5156
 5792TIP3   OH241570   6.469   0.088  10.627  0.0809 -0.2573 -0.1812
 5792TIP3    H141571   6.565   0.088  10.630  0.0646  0.3928  1.1388
 5792TIP3    H241572   6.444   0.020  10.690 -0.3221  1.2234  1.3131
 5793TIP3   OH241573   1.482   4.229   9.090 -0.1224 -0.1010  0.9359
 5793TIP3    H141574   1.402   4.210   9.041  0.3226 -0.6931  0.4366
 5793TIP3    H241575   1.477   4.323   9.107  0.3100  0.4077 -1.3666
 5794TIP3   OH241576   4.365   2.058  11.434 -0.8245 -0.1084 -0.2554
 5794TIP3    H141577   4.421   1.984  11.460  0.7363  1.4970  1.2439
 5794TIP3    H241578   4.298   2.062  11.502 -0.2278  0.5206  0.3090
 5795TIP3   OH241579   5.079   6.733  10.498 -0.0407 -0.3434  0.2265
 5795TIP3    H141580   5.031   6.784  10.563  0.9616  0.6785  0.1862
 5795TIP3    H241581   5.025   6.737  10.419 -0.1186  0.3999  0.3142
 5796TIP3   OH241582   3.509   2.896  10.486  0.5220 -0.3938 -0.1842
 5796TIP3    H141583   3.516   2.816  10.434  1.8656 -0.1033 -0.5027
 5796TIP3    H241584   3.433   2.941  10.451  2.1131  0.4291 -2.9286
 5797TIP3   OH241585   2.970   1.710   9.296 -0.1193  0.4642  0.5650
 5797TIP3    H141586   2.932   1.622   9.294 -0.6911  0.7133 -0.7957
 5797TIP3    H241587   3.027   1.710   9.372  0.5220 -1.3572  0.1414
 5798TIP3   OH241588   5.215   4.121   8.624  0.3999 -0.1676 -0.1392
 5798TIP3    H141589   5.165   4.100   8.703 -2.0434  0.9132 -1.2722
 5798TIP3    H241590   5.233   4.215   8.631 -0.0978  0.0020 -0.9657
 5799TIP3   OH241591   5.309   2.965   9.434  0.4035  0.4240 -0.1152
 5799TIP3    H141592   5.346   2.987   9.349  1.4311 -0.3218  0.1152
 5799TIP3    H241593   5.308   3.047   9.483  1.9312  0.4525 -0.0831
 5800TIP3   OH241594   6.321   0.215  10.861 -0.0800  0.1328 -0.0177
 5800TIP3    H141595   6.293   0.137  10.909 -0.9265  0.7417  0.5273
 5800TIP3    H241596   6.366   0.182  10.784 -1.1016 -0.9003 -0.1934
 5801TIP3   OH241597   1.374   5.557   8.773 -0.1944  0.3414 -0.2387
 5801TIP3    H141598   1.403   5.637   8.730  1.1068 -0.5856 -1.1759
 5801TIP3    H241599   1.432   5.549   8.849  0.5773 -0.3656 -0.8801
 5802TIP3   OH241600   1.579   3.014   8.838 -0.3885  0.3688  0.0834
 5802TIP3    H141601   1.662   2.968   8.833 -1.2660 -1.1848 -1.9547
 5802TIP3    H241602   1.592   3.093   8.784 -0.8672 -1.1238 -2.3765
 5803TIP3   OH241603   4.064   5.129  13.028  0.1558 -0.5449  0.1352
 5803TIP3    H141604   4.084   5.144  12.936  0.6037  0.8153  0.4246
 5803TIP3    H241605   4.028   5.040  13.031  0.6405 -0.8140 -1.2617
 5804TIP3   OH241606   5.177   4.290  11.155  0.1975  0.1673 -0.0303
 5804TIP3    H141607   5.264   4.253  11.140  0.3865 -0.2451  1.9043
 5804TIP3    H241608   5.193   4.369  11.206 -0.5647  0.1166  0.2995
 5805TIP3   OH241609   4.287   5.541  10.753 -0.0699  0.1075  0.2602
 5805TIP3    H141610   4.321   5.458  10.787 -0.5246 -0.0408  0.3516
 5805TIP3    H241611   4.348   5.565  10.683 -0.1875 -0.5323 -0.0691
 5806TIP3   OH241612   3.231   3.869   9.948 -0.2517 -0.1820 -0.0872
 5806TIP3    H141613   3.258   3.777   9.955 -1.2146 -0.3641  2.1104
 5806TIP3    H241614   3.159   3.877  10.010 -0.4792  1.9796 -0.5663
 5807TIP3   OH241615   3.453   1.548   9.084 -0.1297 -0.0760 -0.5248
 5807TIP3    H141616   3.543   1.524   9.108  0.2079  1.2876 -0.3130
 5807TIP3    H241617   3.437   1.631   9.131 -1.6444 -0.4963 -0.2435
 5808TIP3   OH241618   1.659   0.266  10.684  0.5703 -0.0875  0.2743
 5808TIP3    H141619   1.652   0.174  10.708 -1.8327  0.2446  1.0370
 5808TIP3    H241620   1.647   0.314  10.766  2.2387  0.9597 -0.0284
 5809TIP3   OH241621   1.712   5.067   9.953  0.7211  0.1965  0.2587
 5809TIP3    H141622   1.697   5.058   9.859  1.4530 -0.5517  0.2053
 5809TIP3    H241623   1.644   5.128   9.982 -0.4564 -0.7183 -0.4967
 5810TIP3   OH241624   6.753   1.050  10.247  0.3606 -0.1229 -0.1576
 5810TIP3    H141625   6.818   1.110  10.210  1.2436 -1.1591 -0.3456
 5810TIP3    H241626   6.708   1.013  10.172  0.8343 -0.7852 -0.1264
 5811TIP3   OH241627   2.670   2.727  10.070  0.2271 -0.0012  1.1189
 5811TIP3    H141628   2.743   2.761  10.019  1.1744 -0.3893  2.1738
 5811TIP3    H241629   2.645   2.799  10.128 -0.4261  0.2252  0.5702
 5812TIP3   OH241630   2.632   3.751  12.178  0.7502  0.3207  0.1922
 5812TIP3    H141631   2.558   3.713  12.226  0.4885 -1.0206 -1.1912
 5812TIP3    H241632   2.665   3.820  12.236 -0.1785 -0.5338  1.8216
 5813TIP3   OH241633   3.999   4.952  12.130 -0.3124  0.1391 -0.1386
 5813TIP3    H141634   3.956   4.977  12.211 -0.7672  1.1262 -0.6613
 5813TIP3    H241635   4.092   4.950  12.152 -0.4594  0.0674  0.4855
 5814TIP3   OH241636   0.530   2.235   9.129  0.1274 -0.6235 -0.7791
 5814TIP3    H141637   0.503   2.326   9.119  0.4440 -0.3839  0.3907
 5814TIP3    H241638   0.452   2.184   9.107 -0.3764 -0.0270 -0.4196
 5815TIP3   OH241639   2.246   3.798  12.032  0.5388  0.6260 -0.0873
 5815TIP3    H141640   2.231   3.721  12.086  0.5718 -0.2435 -1.2980
 5815TIP3    H241641   2.233   3.872  12.092  1.1835 -0.3170  1.2548
 5816TIP3   OH241642   1.570   0.626  10.296  0.1325 -0.7171  0.2114
 5816TIP3    H141643   1.555   0.682  10.372  0.6276  1.2662 -1.0650
 5816TIP3    H241644   1.512   0.662  10.228 -0.7572 -2.8162 -0.2264
 5817TIP3   OH241645   2.398   4.323   9.142 -0.1594  0.7398  0.3898
 5817TIP3    H141646   2.304   4.335   9.135 -0.3375 -0.1672  1.0009
 5817TIP3    H241647   2.436   4.385   9.080 -1.1596  1.0520  0.0878
 5818TIP3   OH241648   3.779   2.606  11.951 -0.2756 -0.0218 -0.2889
 5818TIP3    H141649   3.722   2.570  11.882 -0.8422  0.0596  0.1359
 5818TIP3    H241650   3.855   2.547  11.951 -0.5047 -0.3259 -0.6356
 5819TIP3   OH241651   5.693   5.804  10.171  0.0880 -0.7637  0.4814
 5819TIP3    H141652   5.722   5.824  10.081  0.2144 -0.9206  0.4872
 5819TIP3    H241653   5.629   5.734  10.160 -0.9593  0.1932  0.3916
 5820TIP3   OH241654   4.365   1.963  10.867 -1.0170 -0.1432 -0.2394
 5820TIP3    H141655   4.329   2.000  10.947  0.5332  0.2156  0.3195
 5820TIP3    H241656   4.360   2.035  10.803 -0.4953  0.1919  0.0878
 5821TIP3   OH241657   6.199   2.434  10.896 -0.2587  0.4316 -0.0039
 5821TIP3    H141658   6.231   2.344  10.890  1.0367  0.8850 -0.1553
 5821TIP3    H241659   6.265   2.480  10.949 -0.0618  1.6477 -1.2355
 5822TIP3   OH241660   5.534   4.395  11.504 -0.0593  0.4476  0.2503
 5822TIP3    H141661   5.548   4.308  11.543  0.5205  0.0379 -0.8432
 5822TIP3    H241662   5.608   4.446  11.535  0.4956  0.0727 -0.4444
 5823TIP3   OH241663   3.772   4.701  10.779  0.2079 -0.4237  0.0788
 5823TIP3    H141664   3.803   4.628  10.833 -0.7187 -0.7192  0.2340
 5823TIP3    H241665   3.842   4.716  10.716  1.1727 -0.2967  1.1408
 5824TIP3   OH241666   5.893   3.642   9.738 -0.1791 -0.1821 -0.1929
 5824TIP3    H141667   5.909   3.552   9.708 -0.1376 -0.1289 -0.3270
 5824TIP3    H241668   5.827   3.632   9.807  1.0047 -0.4867  0.9308
 5825TIP3   OH241669   3.123   2.904  10.996 -0.6373 -0.4319  0.1357
 5825TIP3    H141670   3.180   2.855  10.935  0.0546  0.8746 -0.3173
 5825TIP3    H241671   3.059   2.946  10.939 -1.0242 -0.5476  0.4861
 5826TIP3   OH241672   6.037   4.529  11.212  0.5222 -0.2659 -0.7615
 5826TIP3    H141673   5.998   4.614  11.191 -1.2158 -0.4599  1.3473
 5826TIP3    H241674   6.094   4.547  11.287 -2.0147 -1.2778  1.5882
 5827TIP3   OH241675   1.430   1.320  10.252  0.3223  0.0417 -0.4111
 5827TIP3    H141676   1.484   1.289  10.325  1.3441  0.8154 -0.8081
 5827TIP3    H241677   1.480   1.299  10.174 -0.3942 -0.0547 -0.8538
 5828TIP3   OH241678   1.773   5.384   9.377  0.1083  0.8590  0.0594
 5828TIP3    H141679   1.843   5.449   9.387  0.9543  0.0837 -0.5875
 5828TIP3    H241680   1.812   5.303   9.409  0.3954 -0.1247 -2.4990
 5829TIP3   OH241681   6.001   6.497   8.637 -0.1847  0.2979  0.4308
 5829TIP3    H141682   5.990   6.433   8.567 -0.4596 -0.4017  1.0967
 5829TIP3    H241683   6.032   6.576   8.593 -1.6328  0.3048 -0.6734
 5830TIP3   OH241684   4.439   3.070   9.964  0.3596 -0.3211 -0.0206
 5830TIP3    H141685   4.391   3.012  10.023  0.6644 -0.3144  0.2309
 5830TIP3    H241686   4.387   3.151   9.962  0.0213 -0.5410 -0.2464
 5831TIP3   OH241687   1.695   1.713   8.572  0.0997 -0.1346 -0.1384
 5831TIP3    H141688   1.655   1.740   8.489  0.0100  0.1081 -0.0178
 5831TIP3    H241689   1.785   1.693   8.550  0.5748  1.6530  0.0160
 5832TIP3   OH241690   3.402   5.729   9.870  0.3642 -0.5508 -0.6179
 5832TIP3    H141691   3.360   5.726   9.956  0.0013  0.0418 -0.7732
 5832TIP3    H241692   3.460   5.653   9.870  0.5065 -0.4582  0.2264
 5833TIP3   OH241693   0.908   4.928   9.742 -0.5914 -0.0451 -0.2632
 5833TIP3    H141694   0.952   5.013   9.747  0.4838 -0.5643 -0.5348
 5833TIP3    H241695   0.827   4.940   9.790 -0.0871  0.9075  0.3850
 5834TIP3   OH241696   2.045   5.429   9.156  0.3651  0.4612 -0.0974
 5834TIP3    H141697   1.992   5.363   9.110  0.7179 -0.5873  0.9545
 5834TIP3    H241698   2.134   5.393   9.152  0.6328  1.1004  0.1214
 5835TIP3   OH241699   1.603   6.065  12.244  0.3621  0.3814 -0.1285
 5835TIP3    H141700   1.564   6.134  12.296 -0.5694 -0.9709  1.0538
 5835TIP3    H241701   1.578   5.984  12.289  0.6190 -0.7769 -1.9732
 5836TIP3   OH241702   4.999   3.350   9.481  0.4973  0.2978  0.4914
 5836TIP3    H141703   4.916   3.303   9.467  1.1133 -0.9374  0.8706
 5836TIP3    H241704   5.063   3.303   9.428  1.0654  0.9548  0.5750
 5837TIP3   OH241705   5.018   0.196  12.112 -0.2361  0.5738 -0.0930
 5837TIP3    H141706   4.925   0.192  12.133 -0.4170 -0.8204 -1.0959
 5837TIP3    H241707   5.032   0.287  12.084 -1.5638  0.4874 -1.1306
 5838TIP3   OH241708   2.570   4.216  11.942 -0.0013 -0.4538  0.2117
 5838TIP3    H141709   2.568   4.150  12.010  0.0876 -0.3346  0.3294
 5838TIP3    H241710   2.537   4.171  11.864  1.3184 -1.0329 -0.0501
 5839TIP3   OH241711   3.637   4.978  11.563  0.3314 -0.4780 -0.1363
 5839TIP3    H141712   3.592   4.986  11.479  1.0883 -1.4052 -0.6587
 5839TIP3    H241713   3.614   4.890  11.594  1.2500 -0.7198 -0.1120
 5840TIP3   OH241714   5.621   3.426   9.777  0.3946 -0.2357 -0.9583
 5840TIP3    H141715   5.647   3.515   9.803  0.2653  0.0047 -1.6322
 5840TIP3    H241716   5.542   3.408   9.828 -0.4244  0.6139 -1.8970
 5841TIP3   OH241717   3.028   1.044  10.668  0.3123 -0.1033 -0.0147
 5841TIP3    H141718   3.113   1.022  10.706  1.3598 -0.5515 -2.4037
 5841TIP3    H241719   2.965   0.997  10.722  1.7465 -1.2866  0.7230
 5842TIP3   OH241720   6.144   5.287  10.181 -0.4564  0.2310 -0.0022
 5842TIP3    H141721   6.090   5.253  10.110  1.6808 -1.6771 -0.8506
 5842TIP3    H241722   6.109   5.246  10.260 -0.3622 -0.8715 -0.5131
 5843TIP3   OH241723   6.085   0.179  10.321  0.9175 -0.3351 -0.3797
 5843TIP3    H141724   6.047   0.266  10.332 -0.4160 -0.9205 -0.2776
 5843TIP3    H241725   6.028   0.134  10.259  2.9383 -0.3595 -2.3745
 5844TIP3   OH241726   0.409   6.658   8.943  0.5420 -0.9221  0.2446
 5844TIP3    H141727   0.346   6.649   9.014  0.3539 -2.8613 -0.1311
 5844TIP3    H241728   0.483   6.602   8.968  1.6717  0.4538  0.1500
 5845TIP3   OH241729   4.123   4.254   9.984 -0.1818 -0.3521 -0.1899
 5845TIP3    H141730   4.141   4.183   9.922  2.5056  0.8357 -0.9075
 5845TIP3    H241731   4.057   4.307   9.940  1.8961  0.6566 -2.3412
 5846TIP3   OH241732   5.687   3.459  10.162  0.2290  0.3646  0.3689
 5846TIP3    H141733   5.703   3.417  10.247  1.2803 -0.6361 -0.2993
 5846TIP3    H241734   5.764   3.513  10.146  0.8768 -0.8545 -0.7557
 5847TIP3   OH241735   2.505   3.401  10.467 -0.0013 -0.2135  0.1121
 5847TIP3    H141736   2.574   3.344  10.432  0.8741 -0.1916  1.7115
 5847TIP3    H241737   2.491   3.370  10.556 -2.1663 -0.2593 -0.1903
 5848TIP3   OH241738   6.333   0.151   9.528 -0.1608 -0.4600 -0.3813
 5848TIP3    H141739   6.297   0.095   9.597 -2.2636 -0.0871 -1.1167
 5848TIP3    H241740   6.342   0.093   9.452  1.1693 -0.6240 -0.1264
 5849TIP3   OH241741   4.502   4.825  10.752 -0.5645 -0.6758  0.3253
 5849TIP3    H141742   4.517   4.851  10.843 -0.1880 -1.6207  0.5395
 5849TIP3    H241743   4.571   4.869  10.703 -0.1842 -0.9321  0.6278
 5850TIP3   OH241744   4.840   2.101  10.755 -0.2261 -0.3629 -0.4022
 5850TIP3    H141745   4.934   2.080  10.752 -0.6104 -2.1759 -1.7487
 5850TIP3    H241746   4.800   2.022  10.792 -1.2361  0.3880  0.1302
 5851TIP3   OH241747   3.904   6.598   9.346 -0.2822  0.0398 -0.0590
 5851TIP3    H141748   3.841   6.627   9.411 -0.5894  2.1815 -1.2077
 5851TIP3    H241749   3.870   6.634   9.263  3.6485  3.6454 -0.4275
 5852TIP3   OH241750   0.768   1.451   9.732  0.0167  0.1588  0.5539
 5852TIP3    H141751   0.822   1.525   9.759  0.3968 -0.2277  0.8643
 5852TIP3    H241752   0.817   1.374   9.760  0.9192 -0.3268 -2.0591
 5853TIP3   OH241753   4.572   2.057   9.203  0.0699 -0.2272  0.5154
 5853TIP3    H141754   4.585   2.027   9.293  1.5854 -1.5621 -0.1070
 5853TIP3    H241755   4.570   2.153   9.210 -0.4455 -0.3189  2.0263
 5854TIP3   OH241756   0.220   1.689   9.972  0.0727 -0.0086 -0.8346
 5854TIP3    H141757   0.159   1.652   9.908 -0.1813 -2.2256  0.6004
 5854TIP3    H241758   0.164   1.724  10.041  0.3787 -0.7462 -0.2042
 5855TIP3   OH241759   2.888   4.107   8.982 -0.2289 -0.1093  0.0896
 5855TIP3    H141760   2.859   4.107   9.073  0.9423  0.1920  0.4794
 5855TIP3    H241761   2.856   4.024   8.947  1.0490 -1.2037  1.3820
 5856TIP3   OH241762   3.797   4.401   9.000 -0.1588  0.1454  0.3194
 5856TIP3    H141763   3.892   4.404   8.993 -0.0957 -0.0263  0.9997
 5856TIP3    H241764   3.772   4.489   9.027 -0.3335  0.6016 -1.2599
 5857TIP3   OH241765   2.670   3.877  10.418  0.2329 -0.1980 -0.1883
 5857TIP3    H141766   2.725   3.888  10.496 -1.4396 -0.3289  1.0569
 5857TIP3    H241767   2.603   3.814  10.445 -1.8121  1.5477 -0.9101
 5858TIP3   OH241768   4.563   1.819  10.342 -0.0290  0.7605 -0.2051
 5858TIP3    H141769   4.490   1.757  10.342  0.3273  0.3310  0.2820
 5858TIP3    H241770   4.602   1.810  10.429 -0.0776  1.8004 -0.0700
 5859TIP3   OH241771   0.193   0.115   8.753 -0.2667 -0.3929  0.2956
 5859TIP3    H141772   0.110   0.088   8.714  0.0840  0.0503 -0.7776
 5859TIP3    H241773   0.183   0.093   8.846 -1.3895 -0.7979  0.1010
 5860TIP3   OH241774   4.323   5.699   9.509  0.0032  0.3895  0.2651
 5860TIP3    H141775   4.365   5.613   9.515  0.0606  0.4307  0.4408
 5860TIP3    H241776   4.315   5.714   9.414 -0.6147 -0.1015  0.2323
 5861TIP3   OH241777   2.406   3.713  11.753  0.6630 -0.1565 -0.6734
 5861TIP3    H141778   2.339   3.768  11.792  0.8838  1.1107 -1.9769
 5861TIP3    H241779   2.484   3.729  11.807 -0.2297 -2.3976  1.4634
 5862TIP3   OH241780   2.066   4.772  11.040  0.2644  0.4380  0.3357
 5862TIP3    H141781   2.002   4.704  11.062  2.1332 -1.4102  0.3672
 5862TIP3    H241782   2.065   4.776  10.944  1.0848 -0.6277  0.2672
 5863TIP3   OH241783   1.562   6.480  10.317 -0.0975 -0.2209  0.5353
 5863TIP3    H141784   1.474   6.461  10.284  0.2308  1.9833 -1.9304
 5863TIP3    H241785   1.620   6.426  10.265  0.2478  1.5704 -1.0705
 5864TIP3   OH241786   4.298   6.281  10.848  0.2064 -0.6595 -0.0271
 5864TIP3    H141787   4.366   6.263  10.914  0.0440  0.0230  0.3319
 5864TIP3    H241788   4.224   6.314  10.899 -1.0292 -2.9118 -0.2103
 5865TIP3   OH241789   0.588   0.964   8.690  0.3568 -0.3710  0.2527
 5865TIP3    H141790   0.546   0.888   8.650 -1.0670  0.9114 -0.8691
 5865TIP3    H241791   0.673   0.970   8.648  0.8324 -1.7904  0.9615
 5866TIP3   OH241792   3.901   5.446  12.198 -0.3467 -0.3086 -0.3124
 5866TIP3    H141793   3.915   5.482  12.285  0.2937 -0.8208 -0.1994
 5866TIP3    H241794   3.866   5.519  12.147 -1.9559 -0.3398  0.6943
 5867TIP3   OH241795   3.422   3.067   8.845 -0.0530 -0.0485 -0.5572
 5867TIP3    H141796   3.404   3.161   8.834  0.6154 -0.0228 -1.5374
 5867TIP3    H241797   3.415   3.053   8.940  0.0315  1.0366 -0.3684
 5868TIP3   OH241798   5.503   3.480  10.532  0.0081 -0.1300  0.3385
 5868TIP3    H141799   5.599   3.482  10.539 -0.0062  0.7853  0.4836
 5868TIP3    H241800   5.474   3.449  10.618  0.1724 -0.3637  0.3113
 5869TIP3   OH241801   1.702   3.046  10.399 -0.6048  0.3623 -0.6358
 5869TIP3    H141802   1.608   3.045  10.378 -0.9152 -0.7986  0.6046
 5869TIP3    H241803   1.708   3.104  10.475 -0.2851  0.6240 -0.8641
 5870TIP3   OH241804   2.801   4.384   9.229 -0.3118 -0.2813  0.0821
 5870TIP3    H141805   2.740   4.311   9.239 -0.9370  0.1669 -0.3683
 5870TIP3    H241806   2.820   4.387   9.135 -0.0636 -0.0495  0.1379
 5871TIP3   OH241807   0.207   6.498  11.150 -0.3246 -0.3402 -0.7295
 5871TIP3    H141808   0.166   6.568  11.200  1.0354  0.5957 -0.8834
 5871TIP3    H241809   0.219   6.427  11.214 -1.6954 -0.4486 -0.5741
 5872TIP3   OH241810   3.489   2.243  11.730 -0.4841  0.0864 -0.3221
 5872TIP3    H141811   3.450   2.157  11.715  0.4385 -1.1150  3.2831
 5872TIP3    H241812   3.418   2.295  11.767  0.1289 -0.8176  2.3212
 5873TIP3   OH241813   0.632   5.502   8.509 -0.4759 -0.6734 -0.2220
 5873TIP3    H141814   0.713   5.552   8.497  0.0525 -1.7730 -1.4191
 5873TIP3    H241815   0.661   5.412   8.520 -1.5159 -0.9868  0.0108
 5874TIP3   OH241816   0.750   2.422  12.087 -0.0547 -0.4872  0.0484
 5874TIP3    H141817   0.775   2.485  12.154 -3.1168  1.2376 -0.2584
 5874TIP3    H241818   0.656   2.408  12.101 -0.5026 -1.1733 -2.9855
 5875TIP3   OH241819   1.118   3.335   8.730 -0.1809  0.3317 -0.1605
 5875TIP3    H141820   1.167   3.339   8.648 -0.4152 -1.8509 -0.4519
 5875TIP3    H241821   1.185   3.325   8.798 -0.0849 -2.3112 -0.5293
 5876TIP3   OH241822   0.758   0.947   9.332  0.1233 -0.3569  0.3629
 5876TIP3    H141823   0.665   0.953   9.310  0.1244 -0.5294  0.3082
 5876TIP3    H241824   0.794   1.033   9.310 -0.0847 -0.1852  0.6791
 5877TIP3   OH241825   3.698   4.980   9.025  0.1989 -0.3084 -0.7411
 5877TIP3    H141826   3.758   5.004   9.096  1.9785 -0.0034 -2.2934
 5877TIP3    H241827   3.642   4.913   9.064  1.7670 -0.8756  0.6753
 5878TIP3   OH241828   6.316   4.047   8.552  0.0524  0.2525  0.2021
 5878TIP3    H141829   6.313   4.049   8.456  2.2030 -0.8979  0.0561
 5878TIP3    H241830   6.344   3.959   8.574 -2.1539 -0.1061  2.0397
 5879TIP3   OH241831   0.804   0.409   9.388 -0.2580 -0.0623  0.1984
 5879TIP3    H141832   0.804   0.330   9.442 -0.2757 -1.2100 -1.4141
 5879TIP3    H241833   0.759   0.475   9.442 -0.3155 -1.1530  1.5438
 5880TIP3   OH241834   3.748   1.319   9.117 -0.1396  0.5367  0.2895
 5880TIP3    H141835   3.778   1.407   9.094  2.5732 -0.5013 -0.5351
 5880TIP3    H241836   3.800   1.261   9.062 -0.8432 -1.6774  1.8189
 5881TIP3   OH241837   2.390   0.225  11.574 -0.0876 -0.0030  0.2934
 5881TIP3    H141838   2.352   0.306  11.609 -1.8915 -0.4836 -0.4251
 5881TIP3    H241839   2.484   0.244  11.566 -0.4586  2.0311  0.1224
 5882TIP3   OH241840   0.490   4.369   9.998  0.2739  0.5951 -0.6521
 5882TIP3    H141841   0.404   4.332  10.018  1.0955 -0.5181  1.1143
 5882TIP3    H241842   0.544   4.293   9.976  0.8442  1.2598 -1.6065
 5883TIP3   OH241843   1.452   0.471   8.454 -0.2347  0.3208  0.6107
 5883TIP3    H141844   1.486   0.405   8.393  0.0602  0.2863  0.8099
 5883TIP3    H241845   1.393   0.524   8.401 -0.6192 -0.2194  0.4934
 5884TIP3   OH241846   4.791   4.223   8.869 -0.1156 -0.0585 -0.3221
 5884TIP3    H141847   4.705   4.194   8.841  0.1111  0.5723 -1.7314
 5884TIP3    H241848   4.839   4.238   8.788  0.7773  1.2198  0.4174
 5885TIP3   OH241849   5.460   3.759   8.392  0.7141 -0.0814  0.4172
 5885TIP3    H141850   5.471   3.782   8.300  0.1618 -1.4919 -0.0355
 5885TIP3    H241851   5.546   3.775   8.432  1.3568 -0.7354 -0.6500
 5886TIP3   OH241852   5.925   0.880   9.382 -0.0141  0.3663  0.0190
 5886TIP3    H141853   5.911   0.866   9.475  0.9233  0.5363  0.1949
 5886TIP3    H241854   5.988   0.952   9.378 -0.0005  0.3200 -0.7411
 5887TIP3   OH241855   5.821   6.788   9.344 -0.1424 -0.2817 -0.6393
 5887TIP3    H141856   5.837   6.880   9.321 -0.2778  0.0155  0.4109
 5887TIP3    H241857   5.906   6.756   9.373 -0.2839 -0.2233 -0.1499
 5888TIP3   OH241858   4.519   4.489  11.271 -0.5309  0.2845 -0.0883
 5888TIP3    H141859   4.508   4.486  11.176 -2.6286  1.0522  0.0870
 5888TIP3    H241860   4.570   4.410  11.291  0.2175  0.2632 -1.8528
 5889TIP3   OH241861   5.267   6.507   9.066  0.1122  0.0047 -0.1418
 5889TIP3    H141862   5.245   6.600   9.063 -0.6413 -0.1610 -0.1610
 5889TIP3    H241863   5.342   6.498   9.008 -1.4921  0.1911 -2.3871
 5890TIP3   OH241864   4.131   5.130  11.207  0.2055 -0.1054 -0.1579
 5890TIP3    H141865   4.128   5.118  11.112 -0.0454 -2.1539  0.0674
 5890TIP3    H241866   4.089   5.052  11.243  1.7882 -0.2143  1.6668
 5891TIP3   OH241867   2.790   6.614  11.119 -0.4351  0.0201 -0.1860
 5891TIP3    H141868   2.755   6.537  11.074 -2.2751 -0.6170  2.1413
 5891TIP3    H241869   2.714   6.652  11.163  0.8165  2.0295  0.3612
 5892TIP3   OH241870   2.801   5.883   8.838 -0.3620 -0.3121  0.1595
 5892TIP3    H141871   2.756   5.950   8.889 -0.2601  0.4364 -0.7181
 5892TIP3    H241872   2.732   5.821   8.813 -0.8591  0.6057 -0.8228
 5893TIP3   OH241873   5.962   1.595   9.937  0.1354 -0.6156 -0.2684
 5893TIP3    H141874   6.019   1.670   9.920 -0.5545  0.3622  1.3994
 5893TIP3    H241875   5.989   1.564  10.024 -2.0016  0.0742  0.7074
 5894TIP3   OH241876   2.518   5.226   9.989  0.1409  0.2001 -0.5988
 5894TIP3    H141877   2.446   5.251  10.048  2.7785  4.2029  1.3532
 5894TIP3    H241878   2.532   5.134  10.008 -1.7986  0.3078  2.0605
 5895TIP3   OH241879   0.678   3.023  12.103  0.7422  0.2334  0.1789
 5895TIP3    H141880   0.696   3.103  12.054  1.1433  0.5806  0.8622
 5895TIP3    H241881   0.583   3.021  12.113  0.5738 -0.2732 -1.2904
 5896TIP3   OH241882   5.435   0.005   9.068 -0.6065  0.1776 -0.2760
 5896TIP3    H141883   5.521   0.034   9.036 -0.0686 -0.2054  0.7771
 5896TIP3    H241884   5.432   0.036   9.159 -2.4412  1.9630 -0.8774
 5897TIP3   OH241885   2.671   2.839   9.375  0.4877 -0.2689  0.1814
 5897TIP3    H141886   2.750   2.815   9.425  1.1706  1.7576  0.1795
 5897TIP3    H241887   2.606   2.774   9.400  1.6466 -0.9533  1.5666
 5898TIP3   OH241888   0.436   4.242  10.602 -0.3391 -0.3307  0.3861
 5898TIP3    H141889   0.354   4.200  10.627  0.1543 -2.1063 -0.8214
 5898TIP3    H241890   0.502   4.198  10.656  0.1829 -1.1531 -0.8924
 5899TIP3   OH241891   2.531   1.099  12.131 -0.5014 -0.0403 -0.4048
 5899TIP3    H141892   2.618   1.061  12.120 -0.8754 -0.4894 -1.9447
 5899TIP3    H241893   2.493   1.049  12.203  0.2663 -0.2611 -0.1345
 5900TIP3   OH241894   3.580   3.020  11.577 -0.0552  0.2046 -0.5165
 5900TIP3    H141895   3.490   3.034  11.607  0.1372 -0.3146  0.3432
 5900TIP3    H241896   3.586   3.067  11.494 -1.6447 -1.1748 -1.4828
 5901TIP3   OH241897   3.946   4.834   8.832 -0.1439 -0.3488 -0.3760
 5901TIP3    H141898   3.983   4.777   8.765 -0.2385  0.0054 -0.7356
 5901TIP3    H241899   4.021   4.864   8.883 -0.1051 -0.8770 -0.1158
 5902TIP3   OH241900   2.056   4.537  12.061 -0.0139  0.2847 -0.0732
 5902TIP3    H141901   1.969   4.567  12.086  0.3688  0.1881  1.4966
 5902TIP3    H241902   2.107   4.617  12.048  0.2203  0.3561  1.1704
 5903TIP3   OH241903   5.731   1.187  10.551  0.2942 -0.3067 -0.2282
 5903TIP3    H141904   5.761   1.119  10.610  1.5514  0.9272  0.5986
 5903TIP3    H241905   5.652   1.222  10.592  0.7110  0.0003  0.3171
 5904TIP3   OH241906   5.512   5.351  11.415  0.2244  0.1113 -0.1216
 5904TIP3    H141907   5.601   5.351  11.380  0.1525 -1.9962 -0.4404
 5904TIP3    H241908   5.465   5.290  11.359 -1.0056 -0.0661  1.0600
 5905TIP3   OH241909   4.156   2.028   9.332  0.0076 -0.1700 -0.1720
 5905TIP3    H141910   4.127   1.940   9.356  0.4771 -0.0065  1.0473
 5905TIP3    H241911   4.238   2.014   9.284  0.7498 -0.3422  1.1234
 5906TIP3   OH241912   6.455   3.570  10.708  0.4608 -0.6783 -0.1601
 5906TIP3    H141913   6.401   3.507  10.660  0.4504 -1.5399  0.9319
 5906TIP3    H241914   6.401   3.650  10.712  0.3465 -0.6908 -1.2923
 5907TIP3   OH241915   0.256   1.079   9.849  0.4232  0.3154  0.2332
 5907TIP3    H141916   0.188   1.014   9.865  1.3906 -0.4180  1.6400
 5907TIP3    H241917   0.225   1.129   9.774 -0.5691 -1.4699 -0.5991
 5908TIP3   OH241918   2.587   0.627   9.995  0.4466  0.2623 -0.1192
 5908TIP3    H141919   2.600   0.680  10.073  1.2253  0.0832 -0.1188
 5908TIP3    H241920   2.599   0.537  10.026  2.2542  0.2523 -0.7006
 5909TIP3   OH241921   1.268   1.675   9.412  0.0559 -0.0754 -0.0639
 5909TIP3    H141922   1.339   1.665   9.349 -0.0782 -0.2408 -0.1905
 5909TIP3    H241923   1.190   1.644   9.366 -0.0393 -0.2188  0.1895
 5910TIP3   OH241924   4.001   0.179  11.223 -0.4459 -0.0148 -0.2163
 5910TIP3    H141925   3.909   0.170  11.249 -0.2850 -0.9044  0.0805
 5910TIP3    H241926   4.016   0.107  11.162 -0.4335  1.2361 -1.7442
 5911TIP3   OH241927   4.607   3.423  10.469 -0.2394  0.6004  0.2244
 5911TIP3    H141928   4.677   3.422  10.535 -1.7610 -0.4892  1.9035
 5911TIP3    H241929   4.627   3.350  10.411  0.6443  1.0427 -0.0507
 5912TIP3   OH241930   4.643   6.681  11.031  0.2487  0.3417  0.1893
 5912TIP3    H141931   4.634   6.733  10.950  0.0947 -2.1333 -1.4850
 5912TIP3    H241932   4.556   6.643  11.045 -0.0847  1.7082  2.3219
 5913TIP3   OH241933   5.174   0.334   9.181  0.0356 -0.1981  0.6758
 5913TIP3    H141934   5.107   0.294   9.126  2.0889 -0.3785 -1.8345
 5913TIP3    H241935   5.160   0.428   9.172 -0.1997 -0.2387  0.6169
 5914TIP3   OH241936   0.108   5.235   9.389 -0.0242  0.2605 -0.1466
 5914TIP3    H141937   0.092   5.177   9.463  1.8730 -0.8588 -0.5578
 5914TIP3    H241938   0.027   5.231   9.338 -1.9019  2.0856  2.4278
 5915TIP3   OH241939   4.696   3.147   9.126  0.1444  0.1455  0.3025
 5915TIP3    H141940   4.655   3.212   9.070 -1.0909  0.0609  1.0747
 5915TIP3    H241941   4.789   3.169   9.125 -0.1407  1.3697 -0.1551
 5916TIP3   OH241942   1.273   3.374   8.965 -0.4881 -0.8068 -0.3574
 5916TIP3    H141943   1.315   3.411   9.042  0.9323 -1.4910 -0.7724
 5916TIP3    H241944   1.230   3.294   8.997 -0.3898 -0.7795 -0.1581
 5917TIP3   OH241945   6.400   5.811  10.394  0.7262 -0.1197 -0.1983
 5917TIP3    H141946   6.410   5.906  10.395 -1.2066  0.1489 -1.1721
 5917TIP3    H241947   6.336   5.792  10.462  1.5986 -0.8265  0.4534
 5918TIP3   OH241948   0.407   1.849   9.155  0.3359  0.3765 -0.4175
 5918TIP3    H141949   0.406   1.863   9.250 -0.5200  0.2024 -0.3870
 5918TIP3    H241950   0.362   1.926   9.119  1.5307  0.9397 -0.7759
 5919TIP3   OH241951   2.720   1.784  11.381 -0.1125  0.0110  0.2111
 5919TIP3    H141952   2.633   1.762  11.346  0.9377 -0.2777 -2.4497
 5919TIP3    H241953   2.708   1.784  11.476 -2.4162 -2.7276  0.0667
 5920TIP3   OH241954   0.516   1.579  10.172  0.4327  0.2757 -0.2316
 5920TIP3    H141955   0.541   1.670  10.152 -0.5013  0.2710 -1.5872
 5920TIP3    H241956   0.466   1.551  10.095 -2.0406 -0.3247  1.4663
 5921TIP3   OH241957   3.165   5.214  11.213 -0.0524 -0.2175  0.5316
 5921TIP3    H141958   3.073   5.216  11.239 -0.0894  0.2860  0.3690
 5921TIP3    H241959   3.169   5.266  11.133  0.2931 -0.6302  0.2765
 5922TIP3   OH241960   1.917   4.559  11.114 -0.1167  0.0409  0.8978
 5922TIP3    H141961   1.946   4.471  11.089 -0.5794 -0.0464  0.6629
 5922TIP3    H241962   1.832   4.569  11.071  0.4044  1.0031  0.0744
 5923TIP3   OH241963   2.553   5.470  10.437 -0.1498  0.0176 -0.3684
 5923TIP3    H141964   2.623   5.527  10.405 -0.5774  0.7651  0.0272
 5923TIP3    H241965   2.486   5.529  10.470 -0.1830 -0.7038  0.9480
 5924TIP3   OH241966   3.052   2.305   9.034  0.0452 -0.0828 -0.3328
 5924TIP3    H141967   3.067   2.299   8.940  1.2814  1.5762 -0.2763
 5924TIP3    H241968   2.973   2.253   9.049 -1.1043  0.9170 -2.5240
 5925TIP3   OH241969   0.366   5.244   9.336 -0.1463 -0.0474 -0.1375
 5925TIP3    H141970   0.396   5.258   9.426  0.4339  0.5167 -0.4149
 5925TIP3    H241971   0.270   5.253   9.341  0.0421  3.7310 -0.1689
 5926TIP3   OH241972   6.424   6.459   8.608 -0.0964  0.0097 -0.2899
 5926TIP3    H141973   6.442   6.401   8.534 -0.3846  1.3416 -1.4605
 5926TIP3    H241974   6.375   6.405   8.670  0.1451 -1.1444 -1.0670
 5927TIP3   OH241975   3.033   4.628   9.811 -0.7257 -0.3919 -0.2741
 5927TIP3    H141976   3.113   4.578   9.827 -0.8757 -0.2347  1.0863
 5927TIP3    H241977   3.013   4.612   9.719  0.0530 -1.6339 -0.2534
 5928TIP3   OH241978   4.903   3.291  10.299 -0.3589  0.2038 -0.0808
 5928TIP3    H141979   4.981   3.344  10.283 -0.2776  0.5428  1.3132
 5928TIP3    H241980   4.830   3.347  10.272 -0.2319  0.7668  0.7128
 5929TIP3   OH241981   4.436   3.499   9.878  0.0421 -0.8205 -0.6387
 5929TIP3    H141982   4.528   3.474   9.873  0.0538 -1.3122  1.4628
 5929TIP3    H241983   4.388   3.417   9.876 -0.3372 -0.5966 -1.0427
 5930TIP3   OH241984   0.469   3.439   8.631 -0.4311 -0.3503  0.1300
 5930TIP3    H141985   0.527   3.504   8.669  0.1347  0.3212 -1.7506
 5930TIP3    H241986   0.444   3.475   8.546 -1.6029 -1.7563 -0.1734
 5931TIP3   OH241987   0.762   0.238  11.448 -0.2470  0.1733 -0.9822
 5931TIP3    H141988   0.712   0.303  11.398 -0.2828  0.9346 -0.0087
 5931TIP3    H241989   0.848   0.279  11.460 -0.4076  0.2610  0.0110
 5932TIP3   OH241990   5.176   4.713  11.456  0.3021  0.3725 -0.1139
 5932TIP3    H141991   5.140   4.698  11.543 -1.0314 -0.6457 -0.8114
 5932TIP3    H241992   5.264   4.747  11.472  1.0012 -2.0261  1.6111
 5933TIP3   OH241993   5.648   5.220  10.951  1.0451  0.4900  0.2197
 5933TIP3    H141994   5.612   5.248  10.867  1.6693  1.1378  0.1528
 5933TIP3    H241995   5.725   5.276  10.963  0.7383  0.6854  1.4086
 5934TIP3   OH241996   5.589   1.117  12.000 -0.1703 -0.7506 -0.4428
 5934TIP3    H141997   5.527   1.068  12.053 -0.1805  2.9591  3.5921
 5934TIP3    H241998   5.535   1.178  11.949  0.0288 -1.9952 -2.2570
 5935TIP3   OH241999   5.348   3.705  10.241 -0.2652 -0.0481 -0.4685
 5935TIP3    H142000   5.425   3.729  10.293 -1.2422  0.3884  0.8220
 5935TIP3    H242001   5.278   3.760  10.275 -1.2385 -0.6763 -1.3923
 5936TIP3   OH242002   3.224   1.824  10.830  0.0026  0.4416  0.1806
 5936TIP3    H142003   3.179   1.859  10.753 -1.7015 -0.7320  0.6056
 5936TIP3    H242004   3.214   1.892  10.897 -0.1443  0.6683 -0.0701
 5937TIP3   OH242005   2.085   2.855  10.999 -0.3139 -0.6785  0.3046
 5937TIP3    H142006   2.148   2.928  11.000  1.5763 -2.2233  0.1956
 5937TIP3    H242007   2.062   2.845  10.907 -0.8130 -0.0557  0.3533
 5938TIP3   OH242008   3.184   3.350   9.282 -0.1145  0.3143  0.0881
 5938TIP3    H142009   3.108   3.392   9.323 -1.0544 -0.0809 -1.1830
 5938TIP3    H242010   3.186   3.386   9.193 -0.2767 -1.4526 -0.6698
 5939TIP3   OH242011   1.940   4.524  10.057 -0.2789 -0.0405 -0.0097
 5939TIP3    H142012   1.893   4.519   9.974 -0.5443  2.3834 -0.0796
 5939TIP3    H242013   1.999   4.599  10.047  0.6669 -0.5324  1.5308
 5940TIP3   OH242014   5.055   1.882  11.908 -0.4004 -0.6410  0.6035
 5940TIP3    H142015   5.122   1.920  11.966 -1.2152  0.5908  0.7921
 5940TIP3    H242016   5.099   1.874  11.823 -0.1534  0.7176  0.5683
 5941TIP3   OH242017   6.591   4.035   9.710 -0.4529 -0.0394  0.1378
 5941TIP3    H142018   6.657   4.039   9.779  0.5291 -0.2453 -0.7592
 5941TIP3    H242019   6.591   3.943   9.683  0.6793  0.3897 -1.5076
 5942TIP3   OH242020   2.976   0.005  10.214  0.1417 -0.1791  0.0324
 5942TIP3    H142021   3.066   0.013  10.184  0.2269 -2.8478 -0.6104
 5942TIP3    H242022   2.923   0.027  10.137  0.2413  0.3516  0.1112
 5943TIP3   OH242023   4.564   5.338  10.813 -1.1749 -0.1848  0.0315
 5943TIP3    H142024   4.583   5.410  10.874 -1.4809 -0.1382  0.0735
 5943TIP3    H242025   4.650   5.310  10.782 -1.0900  1.1690 -1.0897
 5944TIP3   OH242026   5.030   1.912  10.823 -0.7162 -0.4220  0.0358
 5944TIP3    H142027   5.091   1.920  10.750  0.3362 -1.2881  0.7951
 5944TIP3    H242028   5.080   1.941  10.899 -0.9941 -1.8059  0.7786
 5945TIP3   OH242029   4.441   2.244  10.479  0.4506 -0.5031 -0.4790
 5945TIP3    H142030   4.355   2.210  10.504  0.3089  0.4220  0.3353
 5945TIP3    H242031   4.494   2.235  10.558  1.1500 -1.1617 -1.0054
 5946TIP3   OH242032   0.919   2.881  11.355 -0.2751  0.0825 -0.5044
 5946TIP3    H142033   0.938   2.973  11.342 -1.7612  0.4781 -0.0444
 5946TIP3    H242034   0.864   2.878  11.433  1.9894 -1.4723  1.1939
 5947TIP3   OH242035   0.681   5.988  10.893  0.0596 -0.3773  0.1562
 5947TIP3    H142036   0.639   6.062  10.938  1.3741  0.8784 -0.6038
 5947TIP3    H242037   0.756   6.027  10.847  1.3806 -2.3437  0.5223
 5948TIP3   OH242038   0.608   1.863   8.985  0.0693  0.2266  0.3030
 5948TIP3    H142039   0.670   1.896   9.051 -0.7025  0.1537  1.0852
 5948TIP3    H242040   0.530   1.838   9.036 -1.0592  1.4027 -0.7635
 5949TIP3   OH242041   5.303   6.497  11.606 -0.1839  0.2371  0.1188
 5949TIP3    H142042   5.253   6.576  11.626 -1.5708 -0.5474 -0.0684
 5949TIP3    H242043   5.367   6.490  11.676 -1.5248  0.3376  1.4069
 5950TIP3   OH242044   5.660   6.587  10.506 -0.1303  0.2856 -0.0205
 5950TIP3    H142045   5.747   6.572  10.471 -0.0452  0.0001  0.3042
 5950TIP3    H242046   5.654   6.682  10.516  0.0195  0.3310 -0.3490
 5951TIP3   OH242047   1.588   5.603   8.964 -0.0069  0.0254 -0.4453
 5951TIP3    H142048   1.564   5.687   9.002 -1.8558 -0.7199  0.1579
 5951TIP3    H242049   1.668   5.621   8.915  0.3083  1.8627  0.6261
 5952TIP3   OH242050   1.697   2.027  11.101  0.2100 -0.2151 -0.4555
 5952TIP3    H142051   1.752   2.015  11.024 -0.9127  0.0481 -1.3267
 5952TIP3    H242052   1.614   2.060  11.067  0.0903  1.1060  0.9825
 5953TIP3   OH242053   0.765   1.784   8.546 -0.2618  0.2845 -0.2798
 5953TIP3    H142054   0.846   1.736   8.566 -2.1354 -3.3031 -0.5694
 5953TIP3    H242055   0.771   1.801   8.452  0.5443  0.9166 -0.1253
 5954TIP3   OH242056   6.354   0.591   9.721  0.0366 -0.4068 -0.3336
 5954TIP3    H142057   6.298   0.551   9.787  0.3761 -1.0380 -0.4130
 5954TIP3    H242058   6.387   0.516   9.670 -0.4435  0.0858 -1.3967
 5955TIP3   OH242059   2.740   4.820  11.272 -0.9261 -0.7778 -0.4592
 5955TIP3    H142060   2.795   4.745  11.298  0.8866  0.6643  0.0888
 5955TIP3    H242061   2.705   4.853  11.355  0.0329  0.2494 -0.4459
 5956TIP3   OH242062   6.307   5.289  17.114 -0.0137  0.0386  0.2997
 5956TIP3    H142063   6.212   5.290  17.123  0.1192  0.3067  1.9444
 5956TIP3    H242064   6.334   5.379  17.128  0.4199  0.2477 -1.5288
 5957TIP3   OH242065   4.597   3.644   8.883 -0.0978 -0.0103  0.2092
 5957TIP3    H142066   4.645   3.661   8.964 -0.2274  0.8141  0.1240
 5957TIP3    H242067   4.506   3.665   8.904 -0.3233 -0.8960  0.1701
 5958TIP3   OH242068   2.010   6.567  12.110 -0.0612  0.2926 -0.4267
 5958TIP3    H142069   1.988   6.521  12.029  0.8620 -2.1036  0.5780
 5958TIP3    H242070   2.057   6.645  12.082 -0.9380  0.2204 -2.2202
 5959TIP3   OH242071   3.866   2.716   9.377 -0.0123 -0.0989 -0.0816
 5959TIP3    H142072   3.851   2.732   9.284  0.3833 -0.4737 -0.2131
 5959TIP3    H242073   3.908   2.630   9.380  0.5757  0.1985  0.3919
 5960TIP3   OH242074   2.621   1.304  10.309 -0.4058  0.2631  0.1530
 5960TIP3    H142075   2.707   1.278  10.341  0.4331  1.5304 -0.9164
 5960TIP3    H242076   2.571   1.223  10.304  0.1975 -0.2926  2.2454
 5961TIP3   OH242077   0.803   0.270   8.634  0.5270  0.5400  0.1897
 5961TIP3    H142078   0.895   0.295   8.621  1.1886 -1.5271  0.5083
 5961TIP3    H242079   0.795   0.185   8.590 -0.4789 -0.6395  2.5026
 5962TIP3   OH242080   1.890   3.442  10.266  0.4798  0.0559 -0.0028
 5962TIP3    H142081   1.975   3.466  10.304 -0.6190  1.2963  1.8595
 5962TIP3    H242082   1.855   3.524  10.232 -0.4975 -0.1711  0.4185
 5963TIP3   OH242083   5.218   0.826  10.433 -0.1671  0.1380  0.9953
 5963TIP3    H142084   5.195   0.884  10.361 -2.7922 -0.0794  1.5458
 5963TIP3    H242085   5.310   0.805  10.419 -0.6574 -0.1987 -2.4813
 5964TIP3   OH242086   0.849   3.252  10.315  0.2556  0.7458 -0.0189
 5964TIP3    H142087   0.764   3.293  10.332  0.7012  0.8221  2.4578
 5964TIP3    H242088   0.912   3.308  10.360  1.3126 -0.5867  0.2363
 5965TIP3   OH242089   2.303   5.835   8.853 -0.2761 -0.0871  0.1215
 5965TIP3    H142090   2.336   5.905   8.909  0.8057 -0.9327  0.5964
 5965TIP3    H242091   2.370   5.766   8.860 -2.0455 -1.8134  0.9218
 5966TIP3   OH242092   6.159   1.812   9.867  0.5400  0.2968 -0.6656
 5966TIP3    H142093   6.185   1.892   9.913 -1.1822  0.3925  0.2218
 5966TIP3    H242094   6.118   1.843   9.786 -0.1118  0.3366 -0.3295
 5967TIP3   OH242095   4.790   1.259  11.140  0.1828 -0.1982 -0.0607
 5967TIP3    H142096   4.773   1.353  11.142 -0.5562 -0.3331  0.3104
 5967TIP3    H242097   4.883   1.252  11.119  0.8601  0.6833  2.2894
 5968TIP3   OH242098   4.939   3.434   8.831 -0.3316  0.0644 -0.0783
 5968TIP3    H142099   4.968   3.525   8.839  1.0160 -0.4794  2.0130
 5968TIP3    H242100   4.846   3.436   8.852 -0.0813  0.8420  1.0397
 5969TIP3   OH242101   5.607   3.261   9.003  0.4635  0.2918  0.2027
 5969TIP3    H142102   5.616   3.181   8.952 -0.1754  0.2570  0.1384
 5969TIP3    H242103   5.543   3.314   8.955  0.8809  0.8441  0.2401
 5970TIP3   OH242104   1.987   4.552   9.265  0.4331  0.1280  0.1083
 5970TIP3    H142105   1.901   4.567   9.303  0.3704 -0.4085  0.1854
 5970TIP3    H242106   2.038   4.512   9.336 -0.1845 -2.4686 -0.8170
 5971TIP3   OH242107   1.941   5.448  10.801 -0.3826  0.0539  0.0612
 5971TIP3    H142108   2.015   5.408  10.756  0.6074  1.0049  0.7926
 5971TIP3    H242109   1.865   5.395  10.774  0.6688 -1.4952 -0.0057
 5972TIP3   OH242110   1.768   3.399  11.558  0.2903 -0.6407  0.1686
 5972TIP3    H142111   1.701   3.457  11.596  0.4161  0.9788 -1.8870
 5972TIP3    H242112   1.718   3.337  11.504  0.3505  0.1061 -0.7802
 5973TIP3   OH242113   4.102   1.994   8.734 -0.2383  0.0159 -0.2252
 5973TIP3    H142114   4.154   2.023   8.660 -1.5390 -1.1635 -1.6764
 5973TIP3    H242115   4.031   2.058   8.740 -1.1263 -0.8281 -1.1850
 5974TIP3   OH242116   4.503   4.623   9.998  0.0910 -0.0106 -0.2666
 5974TIP3    H142117   4.574   4.625  10.062  0.7327 -1.3812 -0.8802
 5974TIP3    H242118   4.423   4.618  10.050  0.2862  2.6526  0.4756
 5975TIP3   OH242119   5.693   2.093   9.514 -0.8875  0.6947 -0.2947
 5975TIP3    H142120   5.611   2.141   9.502 -1.4152 -0.1708 -0.1789
 5975TIP3    H242121   5.759   2.149   9.472 -1.6387  1.0655 -1.0163
 5976TIP3   OH242122   0.264   2.121  10.059  0.8829  0.4727 -0.6226
 5976TIP3    H142123   0.323   2.061  10.105  0.8592 -0.2303 -1.4791
 5976TIP3    H242124   0.265   2.200  10.112  0.3774 -0.5081  0.9161
 5977TIP3   OH242125   4.837   5.578  11.261 -0.2025 -0.1071 -0.6488
 5977TIP3    H142126   4.909   5.589  11.199  1.7165  0.4571  1.5189
 5977TIP3    H242127   4.817   5.667  11.292 -0.1596 -0.4780  0.5156
 5978TIP3   OH242128   4.395   0.665  10.804 -0.0642  0.1953 -0.3403
 5978TIP3    H142129   4.466   0.696  10.860  0.0540  2.5051 -1.6753
 5978TIP3    H242130   4.332   0.627  10.866  0.4142  1.9332  1.3210
 5979TIP3   OH242131   5.405   0.752  11.264  0.4688 -0.0172  0.6967
 5979TIP3    H142132   5.324   0.804  11.265 -0.7625 -1.8378  1.6825
 5979TIP3    H242133   5.454   0.782  11.340  0.2453  0.4068  0.6745
 5980TIP3   OH242134   2.560   3.859  11.043  0.2995  0.2273  0.1706
 5980TIP3    H142135   2.539   3.811  10.963 -2.5831 -1.6097  1.8761
 5980TIP3    H242136   2.488   3.920  11.054  1.0869  1.0304  0.9870
 5981TIP3   OH242137   0.279   3.167  11.880 -0.1212  1.0822  0.0042
 5981TIP3    H142138   0.321   3.174  11.965 -0.3520 -0.1564  0.2337
 5981TIP3    H242139   0.337   3.111  11.829 -1.1863 -0.1930  0.1469
 5982TIP3   OH242140   1.972   1.803  10.678  0.3564 -0.1122  0.2189
 5982TIP3    H142141   1.918   1.855  10.618 -0.4742  0.3784  1.3570
 5982TIP3    H242142   1.923   1.723  10.692  1.0856 -0.7207 -0.6170
 5983TIP3   OH242143   0.170   6.112  11.083 -0.0816 -0.1731 -0.1058
 5983TIP3    H142144   0.105   6.085  11.018 -2.0196  6.1583 -1.5108
 5983TIP3    H242145   0.121   6.119  11.165  0.3153 -0.5960  0.1728
 5984TIP3   OH242146   1.954   3.905   9.985  0.6317 -0.3034  0.0985
 5984TIP3    H142147   1.950   3.920   9.890  1.8424  1.1340  0.2271
 5984TIP3    H242148   1.886   3.962  10.020  0.9334  0.0339  0.1496
 5985TIP3   OH242149   0.467   4.939   9.263 -0.2087 -0.0446 -0.1413
 5985TIP3    H142150   0.554   4.929   9.300 -0.4726 -0.1662  0.4731
 5985TIP3    H242151   0.457   5.033   9.248 -0.2364  0.0584  0.4788
 5986TIP3   OH242152   6.181   1.808  11.319 -0.2828 -0.2996  0.1985
 5986TIP3    H142153   6.183   1.884  11.260  1.9133 -1.2047 -1.0044
 5986TIP3    H242154   6.101   1.821  11.371 -1.9124  0.9694 -2.3875
 5987TIP3   OH242155   5.287   2.363   8.856  0.4512 -0.0387 -1.0751
 5987TIP3    H142156   5.318   2.449   8.828  3.3667 -0.8958 -0.8402
 5987TIP3    H242157   5.362   2.305   8.843 -0.5148 -2.0062  1.3149
 5988TIP3   OH242158   0.687   3.973  11.506 -0.3165  0.2077 -0.5839
 5988TIP3    H142159   0.619   4.021  11.554 -0.7191  0.1258 -1.0620
 5988TIP3    H242160   0.641   3.900  11.465  0.0196  0.2648 -1.0779
 5989TIP3   OH242161   1.004   0.781   9.249 -0.5497 -0.0691 -0.2830
 5989TIP3    H142162   0.983   0.718   9.180  1.3692  0.0600 -1.0460
 5989TIP3    H242163   0.936   0.848   9.242 -1.7691 -1.2783 -0.4299
 5990TIP3   OH242164   1.583   1.297  10.480 -0.1991  0.2287 -0.3504
 5990TIP3    H142165   1.611   1.382  10.447  0.4800  0.1331 -0.0318
 5990TIP3    H242166   1.646   1.275  10.549  0.0772 -0.8623 -0.9210
 5991TIP3   OH242167   5.630   2.589  10.743  0.1562  0.1623  0.0630
 5991TIP3    H142168   5.576   2.637  10.806  3.0713  2.5901  0.9245
 5991TIP3    H242169   5.646   2.651  10.673 -1.7345 -2.0048 -2.4976
 5992TIP3   OH242170   5.590   4.535   9.967  0.7977  0.0831 -0.0522
 5992TIP3    H142171   5.497   4.545   9.945  0.9705 -0.6751 -1.2044
 5992TIP3    H242172   5.608   4.607  10.026 -0.3229  0.7571 -0.4957
 5993TIP3   OH242173   6.170   6.575  10.826  0.2990  0.0149 -0.2092
 5993TIP3    H142174   6.265   6.577  10.814  0.0897 -0.4233 -2.3758
 5993TIP3    H242175   6.148   6.663  10.858  1.4577  0.0164  0.6315
 5994TIP3   OH242176   4.827   6.383   9.142 -0.1698  0.1073  0.6055
 5994TIP3    H142177   4.916   6.387   9.107 -0.4080  2.4804  0.0879
 5994TIP3    H242178   4.774   6.350   9.070 -0.2476  2.4273 -0.4804
 5995TIP3   OH242179   2.845   4.130  11.044  0.3138  0.3212  0.3428
 5995TIP3    H142180   2.842   4.107  11.137  1.4492 -1.7329 -0.0644
 5995TIP3    H242181   2.857   4.046  10.999  1.8476  1.4601 -1.5234
 5996TIP3   OH242182   4.211   3.118   8.912 -0.5292 -0.1784  0.1047
 5996TIP3    H142183   4.181   3.133   9.002  0.8829  1.8275  0.3049
 5996TIP3    H242184   4.137   3.145   8.857 -0.1303  2.2724  0.6376
 5997TIP3   OH242185   0.095   1.830  10.194 -0.1180  0.1459  0.0803
 5997TIP3    H142186   0.036   1.905  10.200  1.1904  1.4417 -1.9154
 5997TIP3    H242187   0.182   1.867  10.209  0.6525 -0.7290 -1.8558
 5998TIP3   OH242188   2.425   1.242  11.433 -0.3821  0.3471  0.4227
 5998TIP3    H142189   2.419   1.247  11.338  1.0815 -0.2991  0.2646
 5998TIP3    H242190   2.398   1.329  11.463  2.2536  1.7327 -0.8156
 5999TIP3   OH242191   2.389   5.751  10.760 -0.2475 -0.1368  0.3657
 5999TIP3    H142192   2.369   5.750  10.854  0.0526  0.5601  0.4473
 5999TIP3    H242193   2.482   5.774  10.756 -0.3965  0.3934 -0.1164
 6000TIP3   OH242194   0.983   3.819  10.074  0.6911 -0.0665 -0.1038
 6000TIP3    H142195   0.916   3.815  10.142  0.7961 -1.1431 -0.0472
 6000TIP3    H242196   0.942   3.780   9.997  0.8962  0.2633 -0.3838
 6001TIP3   OH242197   3.655   3.238   8.973 -0.0154  0.2939 -0.4743
 6001TIP3    H142198   3.600   3.179   9.025  0.8485 -0.7634 -0.7272
 6001TIP3    H242199   3.688   3.301   9.036 -2.1671  1.5006 -0.4483
 6002TIP3   OH242200   3.944   3.333   9.585 -0.0189  0.5164 -0.0110
 6002TIP3    H142201   3.931   3.354   9.677 -0.8505  1.3704 -0.3129
 6002TIP3    H242202   3.862   3.358   9.542 -0.5964 -2.0950 -0.6274
 6003TIP3   OH242203   6.586   2.796  10.582  0.1366  0.1013  0.0923
 6003TIP3    H142204   6.603   2.776  10.490  1.0602  1.7663 -0.1469
 6003TIP3    H242205   6.546   2.717  10.617 -0.1882 -0.5873 -1.7249
 6004TIP3   OH242206   2.667   1.791   9.245  0.6399  0.7410 -0.3701
 6004TIP3    H142207   2.635   1.727   9.308  0.3830  1.4424  0.2164
 6004TIP3    H242208   2.732   1.743   9.193  1.0157  0.2132  0.5622
 6005TIP3   OH242209   4.100   0.822  10.512 -0.3276 -0.0573 -0.0150
 6005TIP3    H142210   4.095   0.783  10.600  0.6228  1.8978  0.9514
 6005TIP3    H242211   4.179   0.784  10.473  1.0734  1.4299  1.2416
 6006TIP3   OH242212   1.940   5.252  11.753  0.0631 -0.2243 -0.6662
 6006TIP3    H142213   2.000   5.283  11.821  1.0701  0.3278 -1.7491
 6006TIP3    H242214   1.856   5.241  11.797  1.1673 -2.0810  1.1802
 6007TIP3   OH242215   3.918   5.992  11.882 -0.0327 -0.3788  0.2755
 6007TIP3    H142216   3.878   5.916  11.841  0.2559 -1.2021  1.4945
 6007TIP3    H242217   3.948   5.962  11.967 -0.6996  1.3218  1.1633
 6008TIP3   OH242218   3.244   6.547   9.582 -0.1801  0.1829  0.7557
 6008TIP3    H142219   3.152   6.568   9.572 -0.0375  0.4856  0.0148
 6008TIP3    H242220   3.287   6.588   9.507  0.4890 -0.3891  0.8094
 6009TIP3   OH242221   4.844   5.519   9.592 -0.0438 -0.2677 -0.3756
 6009TIP3    H142222   4.884   5.570   9.662  0.7313 -1.1670 -0.1405
 6009TIP3    H242223   4.784   5.460   9.637  0.5125 -0.8994 -0.4513
 6010TIP3   OH242224   0.811   2.785  11.973 -0.1939 -0.9223 -0.3267
 6010TIP3    H142225   0.814   2.852  12.040  0.3848 -1.1733 -0.0890
 6010TIP3    H242226   0.799   2.703  12.021  0.5236 -1.1357 -0.4959
 6011TIP3   OH242227   3.777   0.868   8.846  0.0972 -0.0327 -0.5475
 6011TIP3    H142228   3.867   0.901   8.847  0.4032 -0.7888  1.7503
 6011TIP3    H242229   3.787   0.773   8.853 -0.8610  0.0081  2.4808
 6012TIP3   OH242230   3.505   0.785  11.129 -0.0434  0.3435  0.1319
 6012TIP3    H142231   3.594   0.820  11.135  0.0562  0.2717 -0.8650
 6012TIP3    H242232   3.452   0.861  11.105  0.0437  0.0047 -1.1822
 6013TIP3   OH242233   2.253   6.306  11.676 -0.1328  0.4859  0.4212
 6013TIP3    H142234   2.165   6.283  11.706 -1.4030  0.7939 -2.7238
 6013TIP3    H242235   2.250   6.401  11.663  0.0236  0.2758 -1.4068
 6014TIP3   OH242236   3.097   3.778  10.342  0.1278 -0.2545 -0.0269
 6014TIP3    H142237   3.057   3.736  10.418  1.3599  0.2038  0.9102
 6014TIP3    H242238   3.072   3.870  10.348 -0.6037 -0.3888 -0.7617
 6015TIP3   OH242239   2.810   5.829  11.673  0.4132 -0.0164 -0.1183
 6015TIP3    H142240   2.802   5.769  11.599  0.0249  0.3150 -0.3438
 6015TIP3    H242241   2.890   5.878  11.655  0.0113  0.4582 -0.6028
 6016TIP3   OH242242   5.063   1.421  11.657  0.1388  0.1768  0.0441
 6016TIP3    H142243   4.978   1.390  11.624 -0.1840  1.5990 -0.5517
 6016TIP3    H242244   5.042   1.462  11.741  0.2589  0.3473 -0.0074
 6017TIP3   OH242245   1.894   6.501   8.571 -0.3883  0.0543 -0.5035
 6017TIP3    H142246   1.975   6.450   8.575 -0.2720  0.2501 -0.3181
 6017TIP3    H242247   1.835   6.449   8.516 -0.7288 -0.9068  0.7251
 6018TIP3   OH242248   4.180   5.833  10.494  0.0490 -0.3956 -0.3146
 6018TIP3    H142249   4.140   5.810  10.578 -0.7451  0.2424 -0.5087
 6018TIP3    H242250   4.229   5.913  10.512  0.0090 -0.3465 -0.4194
 6019TIP3   OH242251   4.823   4.498  10.892  0.2231 -0.0104 -0.8076
 6019TIP3    H142252   4.740   4.479  10.849 -0.5198  1.6610 -0.1977
 6019TIP3    H242253   4.879   4.424  10.869 -1.7342 -1.7317 -0.3859
 6020TIP3   OH242254   3.610   3.705  10.693 -0.3620  0.4844  0.1980
 6020TIP3    H142255   3.595   3.798  10.711  0.0088  0.7178 -0.6779
 6020TIP3    H242256   3.524   3.665  10.702 -0.2953  0.6345  2.0622
 6021TIP3   OH242257   1.490   4.732   9.309  0.8707 -0.1736  0.3124
 6021TIP3    H142258   1.437   4.758   9.234  1.8957  0.7641 -0.1210
 6021TIP3    H242259   1.483   4.807   9.369  1.8303  0.0371  0.1705
 6022TIP3   OH242260   3.251   3.106   9.363 -0.0035  0.0414 -0.1045
 6022TIP3    H142261   3.173   3.088   9.416  0.3358 -2.2644 -0.2988
 6022TIP3    H242262   3.233   3.191   9.322 -2.4351 -0.4563 -0.1858
 6023TIP3   OH242263   3.229   6.270   9.558 -0.1119  0.4072  0.6468
 6023TIP3    H142264   3.228   6.259   9.463 -1.3148  1.7722  0.4816
 6023TIP3    H242265   3.223   6.364   9.572  0.2430  0.2480  2.0969
 6024TIP3   OH242266   3.345   3.425   8.838  0.3795 -0.0502  0.2457
 6024TIP3    H142267   3.331   3.514   8.806 -0.9425 -0.2022  0.3588
 6024TIP3    H242268   3.426   3.396   8.795  0.3279  0.8805 -0.4929
 6025TIP3   OH242269   5.772   0.079   9.786  0.2493  0.6646  0.0942
 6025TIP3    H142270   5.728   0.063   9.870 -0.1697  1.7518  0.0960
 6025TIP3    H242271   5.704   0.115   9.730 -0.0536 -2.0788 -1.4773
 6026TIP3   OH242272   3.353   5.998  10.535 -0.0939 -0.2929 -0.0075
 6026TIP3    H142273   3.428   5.980  10.591  0.5408 -1.7529 -1.2634
 6026TIP3    H242274   3.331   6.090  10.553 -0.3451 -0.8526  3.0555
 6027TIP3   OH242275   4.957   5.950  10.513  0.0197  0.2351  0.0027
 6027TIP3    H142276   5.010   5.901  10.576  0.6412  1.3633  0.3789
 6027TIP3    H242277   4.952   5.893  10.436 -0.2799 -0.9193  0.8609
 6028TIP3   OH242278   4.767   5.663   9.893 -0.4237  0.6616  0.3236
 6028TIP3    H142279   4.683   5.627   9.865 -0.0751 -0.2734  0.4553
 6028TIP3    H242280   4.745   5.748   9.930 -1.3622  0.2845  0.6653
 6029TIP3   OH242281   5.862   1.178   9.399 -0.1341 -0.1678 -0.4769
 6029TIP3    H142282   5.944   1.136   9.423  0.2837  0.3664 -0.9647
 6029TIP3    H242283   5.837   1.228   9.477  0.0335 -0.2673 -0.3589
 6030TIP3   OH242284   1.976   6.332  10.063 -0.5460  0.2063  0.0765
 6030TIP3    H142285   1.905   6.271  10.042 -0.3404 -0.7282  1.8970
 6030TIP3    H242286   2.055   6.291  10.027 -0.2377 -1.2402  2.2076
 6031TIP3   OH242287   5.871   0.873   9.092 -0.4431 -0.5439 -0.1837
 6031TIP3    H142288   5.886   0.965   9.070  0.6517 -0.8920 -0.9597
 6031TIP3    H242289   5.886   0.868   9.186 -2.4837  0.4373  0.2440
 6032TIP3   OH242290   1.826   4.225  11.327 -0.9874 -0.4885 -0.1255
 6032TIP3    H142291   1.832   4.286  11.401  0.9816  0.4233 -0.9638
 6032TIP3    H242292   1.906   4.174  11.332 -0.9380 -0.5724 -1.4931
 6033TIP3   OH242293   3.846   0.523   9.502 -0.2769  0.8119  0.0773
 6033TIP3    H142294   3.835   0.504   9.408  0.3635  0.2563  0.1115
 6033TIP3    H242295   3.767   0.572   9.525 -0.4850  0.8843 -0.7333
 6034TIP3   OH242296   6.385   0.760  10.352 -0.4351 -0.1801 -0.1827
 6034TIP3    H142297   6.475   0.770  10.321 -0.9262  0.5856 -1.4732
 6034TIP3    H242298   6.387   0.787  10.443  0.6959 -0.4258 -0.1242
 6035TIP3   OH242299   4.949   5.682  11.586  0.1200  0.3561 -0.3829
 6035TIP3    H142300   4.946   5.673  11.682  1.3031  2.4006 -0.0718
 6035TIP3    H242301   4.874   5.632  11.555 -0.2934 -0.3862  1.6126
 6036TIP3   OH242302   5.389   5.659   9.214  0.2365  0.1484 -0.3790
 6036TIP3    H142303   5.481   5.657   9.238  0.3270 -0.0970 -0.7382
 6036TIP3    H242304   5.359   5.568   9.224  0.6190 -0.2586 -2.4691
 6037TIP3   OH242305   3.819   2.490  10.379  0.0151 -0.3110  0.1551
 6037TIP3    H142306   3.830   2.400  10.410  0.7117 -0.6489 -1.0191
 6037TIP3    H242307   3.749   2.484  10.314  1.3226 -0.3736 -1.3005
 6038TIP3   OH242308   0.806   2.576  10.072  0.0761 -0.3081 -0.0499
 6038TIP3    H142309   0.756   2.638  10.021 -0.6183 -0.3425  0.5751
 6038TIP3    H242310   0.855   2.525  10.007 -0.4415 -0.0571 -0.6394
 6039TIP3   OH242311   2.435   1.085  10.747  0.8673  0.0378 -0.7320
 6039TIP3    H142312   2.420   1.131  10.664  2.1082 -1.1400 -1.6600
 6039TIP3    H242313   2.355   1.036  10.763 -0.6170  2.6312  0.4393
 6040TIP3   OH242314   3.127   5.486  11.446  0.2949 -0.4518  0.2255
 6040TIP3    H142315   3.130   5.416  11.512  0.7934 -1.0970 -0.4676
 6040TIP3    H242316   3.161   5.445  11.366  2.2499  1.0426  0.2157
 6041TIP3   OH242317   3.707   6.015  11.371  0.1433  0.0215  0.4956
 6041TIP3    H142318   3.673   5.965  11.297 -1.3161  0.7354  0.6409
 6041TIP3    H242319   3.714   6.105  11.338  0.4615  0.1642  0.9289
 6042TIP3   OH242320   3.882   0.119  11.692  0.5495 -0.7290  0.4450
 6042TIP3    H142321   3.953   0.061  11.720  1.9385  0.3216 -0.7490
 6042TIP3    H242322   3.821   0.061  11.646  0.3250 -1.7331  1.9248
 6043TIP3   OH242323   1.728   2.207  11.608 -0.1964 -0.0960 -0.1351
 6043TIP3    H142324   1.649   2.192  11.556 -1.5993 -0.5317  1.9896
 6043TIP3    H242325   1.740   2.126  11.658  1.5429  0.0132 -0.3013
 6044TIP3   OH242326   3.524   0.297   9.805 -0.1282 -0.4697 -1.0326
 6044TIP3    H142327   3.508   0.354   9.729  0.7270 -0.5573 -1.2869
 6044TIP3    H242328   3.537   0.210   9.767 -0.5803 -0.6840 -0.7077
 6045TIP3   OH242329   1.594   1.948   8.397 -0.1769 -0.0632 -0.0518
 6045TIP3    H142330   1.661   1.997   8.445  0.2929 -0.2584 -0.4984
 6045TIP3    H242331   1.612   1.967   8.305 -1.7645  1.1963 -0.1285
 6046TIP3   OH242332   1.919   1.003  11.027 -0.2152 -0.5901  0.0420
 6046TIP3    H142333   1.835   0.996  11.072  0.8301  0.8670  2.3979
 6046TIP3    H242334   1.911   1.080  10.972  0.0836  0.6636  1.6562
 6047TIP3   OH242335   0.449   4.918  10.770 -0.6830  0.3802  0.3381
 6047TIP3    H142336   0.523   4.932  10.829 -0.3346 -3.0794  0.8766
 6047TIP3    H242337   0.488   4.912  10.683 -0.7624  1.6078  0.1913
 6048TIP3   OH242338   5.273   1.621   9.323 -0.1711  0.0542  0.4697
 6048TIP3    H142339   5.226   1.690   9.276  0.7121  0.3011 -0.0753
 6048TIP3    H242340   5.289   1.659   9.410  0.4506  0.6173  0.1224
 6049TIP3   OH242341   5.122   1.262  10.858 -0.2023 -0.3951  0.6579
 6049TIP3    H142342   5.044   1.318  10.853  0.2552  0.4368  2.0437
 6049TIP3    H242343   5.130   1.223  10.771 -1.5691  0.3071  0.1879
 6050TIP3   OH242344   4.852   3.683   9.351  0.4300 -0.2450 -0.0831
 6050TIP3    H142345   4.944   3.662   9.362  0.3715 -0.4111  0.0890
 6050TIP3    H242346   4.805   3.607   9.385  0.2373 -0.7003 -1.3249
 6051TIP3   OH242347   2.693   6.087  12.174 -0.1294 -0.1617 -0.3596
 6051TIP3    H142348   2.767   6.138  12.139 -0.6359  0.0543 -1.1387
 6051TIP3    H242349   2.734   6.018  12.225  0.6047  0.2528 -0.3684
 6052TIP3   OH242350   6.510   4.875  10.267  0.3318  0.1553 -0.3311
 6052TIP3    H142351   6.504   4.779  10.262  0.0385  0.1334  0.3539
 6052TIP3    H242352   6.486   4.904  10.179 -0.2958 -0.3739 -0.3485
 6053TIP3   OH242353   5.807   2.661  11.752 -0.5030  0.1240 -0.7134
 6053TIP3    H142354   5.856   2.732  11.711  1.4239 -1.2560 -0.9198
 6053TIP3    H242355   5.749   2.629  11.683 -0.3810  0.6034 -1.0433
 6054TIP3   OH242356   6.200   6.038  10.849  0.3045  0.2336  0.1710
 6054TIP3    H142357   6.135   6.046  10.779  1.4946 -0.6265 -1.0782
 6054TIP3    H242358   6.149   6.012  10.926 -0.8964  0.0724 -0.6565
 6055TIP3   OH242359   2.538   1.487  11.291 -1.0397  0.2867  0.3901
 6055TIP3    H142360   2.531   1.534  11.374 -2.1193 -1.2184  1.1852
 6055TIP3    H242361   2.499   1.547  11.227  0.6069  1.8407  0.7616
 6056TIP3   OH242362   0.417   3.824  10.571  0.5600  0.2692  0.3488
 6056TIP3    H142363   0.357   3.898  10.581  3.0627  2.5987 -0.5089
 6056TIP3    H242364   0.466   3.822  10.653  1.3192  0.3890 -0.0924
 6057TIP3   OH242365   6.676   1.769   9.847  0.0626 -0.4193 -0.0036
 6057TIP3    H142366   6.653   1.860   9.863  1.1198 -0.2489  0.5981
 6057TIP3    H242367   6.627   1.746   9.768 -0.5950  0.5149  0.1179
 6058TIP3   OH242368   3.905   0.927  10.668 -0.4974 -0.7523  0.0156
 6058TIP3    H142369   3.833   0.959  10.723  2.1629  0.0653  3.3102
 6058TIP3    H242370   3.923   0.840  10.701  0.7212 -0.5272 -0.0338
 6059TIP3   OH242371   1.793   6.057   9.484  0.3668 -0.1208 -0.2883
 6059TIP3    H142372   1.758   5.978   9.442  2.1014 -1.7658  1.2156
 6059TIP3    H242373   1.736   6.128   9.452 -2.4177 -2.1841 -0.2781
 6060TIP3   OH242374   5.433   2.876  11.241  0.7322 -0.3419 -0.2859
 6060TIP3    H142375   5.385   2.798  11.212  1.1520 -0.7173  0.0275
 6060TIP3    H242376   5.518   2.843  11.270  2.0480  0.5411 -2.8263
 6061TIP3   OH242377   0.660   4.188  10.274  0.3934  0.0818  0.1295
 6061TIP3    H142378   0.750   4.222  10.278  1.2631 -2.1430  1.1789
 6061TIP3    H242379   0.638   4.191  10.181  1.3457  1.1216 -0.0950
 6062TIP3   OH242380   6.442   0.753   9.048  0.7264  0.1244  0.2658
 6062TIP3    H142381   6.375   0.743   8.980  1.2970 -1.8098 -0.0794
 6062TIP3    H242382   6.519   0.785   9.002  0.8062 -0.1913  0.1758
 6063TIP3   OH242383   3.659   4.155   9.093 -0.5477  0.4308  0.2051
 6063TIP3    H142384   3.706   4.233   9.065  0.3162  0.8563  2.6104
 6063TIP3    H242385   3.689   4.086   9.034  0.6376  1.3705 -0.3280
 6064TIP3   OH242386   2.161   4.996  11.169  0.3069  0.3180  0.0727
 6064TIP3    H142387   2.126   4.919  11.124 -0.6725  1.3089 -0.9537
 6064TIP3    H242388   2.197   4.963  11.251  0.1556 -1.2554 -0.4692
 6065TIP3   OH242389   4.445   2.846  11.547  0.1527 -0.0432  0.3959
 6065TIP3    H142390   4.445   2.841  11.643  1.4302 -0.1164  0.4143
 6065TIP3    H242391   4.532   2.878  11.525 -0.7373  1.7500 -0.6826
 6066TIP3   OH242392   2.585   3.820  12.658 -0.0568 -0.9734  0.1952
 6066TIP3    H142393   2.652   3.883  12.632 -0.6350 -1.2664 -2.2843
 6066TIP3    H242394   2.624   3.734  12.641 -0.0909 -1.2403  1.3839
 6067TIP3   OH242395   4.087   2.508   9.376 -1.0378  0.4109 -0.7311
 6067TIP3    H142396   4.096   2.501   9.280  0.4860  1.1061 -0.6798
 6067TIP3    H242397   4.152   2.446   9.410 -1.8975 -0.1724 -0.1298
 6068TIP3   OH242398   3.811   4.006  12.006  0.4447  0.5326  0.1221
 6068TIP3    H142399   3.773   4.058  12.076 -1.5394 -1.1341  0.3674
 6068TIP3    H242400   3.842   4.070  11.942 -0.6813  2.0130  1.0074
 6069TIP3   OH242401   4.795   0.523  10.256  0.2769  0.3784  0.0238
 6069TIP3    H142402   4.734   0.556  10.323  1.3812 -0.3805  1.4441
 6069TIP3    H242403   4.854   0.597  10.239 -0.4200  0.7978 -0.6478
 6070TIP3   OH242404   0.501   6.380   8.641  0.3604 -0.5285 -0.4485
 6070TIP3    H142405   0.475   6.458   8.593  1.3199  0.5418  0.7339
 6070TIP3    H242406   0.422   6.351   8.686 -0.6707 -1.7700 -2.8514
 6071TIP3   OH242407   0.068   3.182   9.455 -0.1745 -0.1199 -0.0185
 6071TIP3    H142408   0.135   3.235   9.414 -0.2834 -0.2766 -0.4061
 6071TIP3    H242409   0.113   3.137   9.527 -0.0183  0.2712  0.1270
 6072TIP3   OH242410   2.277   1.513   8.459 -0.2297 -0.8703  0.1621
 6072TIP3    H142411   2.361   1.467   8.465  0.3078 -0.1574 -1.4800
 6072TIP3    H242412   2.267   1.532   8.366 -1.0200  1.2576  0.6416
 6073TIP3   OH242413   5.575   2.304  10.736 -0.2318 -0.0843  0.0441
 6073TIP3    H142414   5.613   2.388  10.713  0.9866 -0.5909  0.1248
 6073TIP3    H242415   5.496   2.298  10.682 -1.7308  2.1533  1.8122
 6074TIP3   OH242416   4.613   2.910   9.253 -0.0556  0.6071  0.6566
 6074TIP3    H142417   4.638   2.988   9.202  3.0179 -0.1692  0.7682
 6074TIP3    H242418   4.655   2.837   9.207 -0.2539 -0.5902  2.2980
 6075TIP3   OH242419   1.007   2.223  10.613 -0.3441 -0.3345  0.0876
 6075TIP3    H142420   1.040   2.312  10.620  2.1704 -1.1353 -0.7687
 6075TIP3    H242421   1.043   2.178  10.690  0.3268 -1.1710 -0.7083
 6076TIP3   OH242422   0.696   5.387  11.594  0.2489  0.3811  0.8630
 6076TIP3    H142423   0.628   5.426  11.648  0.4779  2.0889 -0.0015
 6076TIP3    H242424   0.712   5.301  11.633 -1.7063  0.3263  1.6512
 6077TIP3   OH242425   6.335   2.536   9.353 -0.2159  0.4433 -0.5665
 6077TIP3    H142426   6.409   2.571   9.301  0.8267  0.9614  1.1800
 6077TIP3    H242427   6.259   2.586   9.322  0.4048  0.8620 -1.4734
 6078TIP3   OH242428   0.069   0.678  10.615  0.2260  0.2440  0.6074
 6078TIP3    H142429   0.148   0.624  10.623 -0.3954 -0.3649  3.6838
 6078TIP3    H242430   0.101   0.760  10.576  2.1859 -0.3238  0.8828
 6079TIP3   OH242431   3.191   2.689   8.722  0.0209  0.4037 -0.4129
 6079TIP3    H142432   3.145   2.633   8.659 -1.0751 -0.2350  0.9006
 6079TIP3    H242433   3.244   2.627   8.774  0.1062  0.7897 -0.0357
 6080TIP3   OH242434   0.969   5.388   8.759 -0.4280 -0.2536 -0.6714
 6080TIP3    H142435   0.941   5.297   8.768  0.8156 -0.5817  0.0329
 6080TIP3    H242436   1.022   5.405   8.837  0.9646  0.4663 -1.7307
 6081TIP3   OH242437   5.662   6.301   9.265  0.7126 -0.0184 -0.1864
 6081TIP3    H142438   5.598   6.273   9.201 -0.0346 -1.6171  1.1639
 6081TIP3    H242439   5.638   6.254   9.345  0.9963  2.5991  1.5688
 6082TIP3   OH242440   3.393   2.427  10.783 -0.5663  0.0161 -0.3247
 6082TIP3    H142441   3.435   2.501  10.828 -2.2021  1.3219 -0.8702
 6082TIP3    H242442   3.319   2.403  10.839 -0.6146 -0.5993 -0.6382
 6083TIP3   OH242443   1.603   1.467   9.105  0.4853 -0.2811 -0.7196
 6083TIP3    H142444   1.559   1.546   9.137  0.2254 -0.4498 -0.6549
 6083TIP3    H242445   1.632   1.490   9.017  2.6886  0.7666  0.1978
 6084TIP3   OH242446   3.525   2.111   8.665  0.0688  0.2020 -0.0069
 6084TIP3    H142447   3.612   2.091   8.699  0.4034  2.1679  0.4492
 6084TIP3    H242448   3.479   2.149   8.740  0.0246  2.4120 -1.0843
 6085TIP3   OH242449   3.967   6.269   9.886 -0.1275 -0.6962  0.2217
 6085TIP3    H142450   3.889   6.318   9.860  0.3075 -1.2664 -2.5318
 6085TIP3    H242451   3.938   6.178   9.890  0.7290 -1.3056 -3.3728
 6086TIP3   OH242452   5.037   4.984  11.083 -0.4573  0.2614  0.5735
 6086TIP3    H142453   4.958   4.975  11.029 -1.1610  1.9506  1.2405
 6086TIP3    H242454   5.056   4.895  11.113 -1.4982 -0.3314 -0.4511
 6087TIP3   OH242455   4.161   5.251  10.673  0.6966 -0.3677  0.3950
 6087TIP3    H142456   4.213   5.205  10.739  0.6500 -0.5933  0.2763
 6087TIP3    H242457   4.095   5.187  10.646 -0.6804  0.4160  1.7141
 6088TIP3   OH242458   5.898   2.842   8.773  0.2264 -0.6732  0.2011
 6088TIP3    H142459   5.988   2.867   8.752 -0.7793  1.8723 -1.5601
 6088TIP3    H242460   5.861   2.812   8.690 -1.9526  3.4034 -0.5814
 6089TIP3   OH242461   4.089   1.018  11.216 -0.5550  0.4320  0.3973
 6089TIP3    H142462   4.092   1.022  11.121 -0.4832  1.8632  0.4375
 6089TIP3    H242463   4.071   1.108  11.243 -0.1105  0.1345  1.7547
 6090TIP3   OH242464   4.060   5.120  10.949  0.1545  0.9862  0.7422
 6090TIP3    H142465   4.150   5.113  10.917 -0.4392  2.4317 -1.4019
 6090TIP3    H242466   4.012   5.055  10.898 -0.4720  2.0194 -0.0040
 6091TIP3   OH242467   4.015   0.363  11.647 -0.5892  0.1133 -0.3300
 6091TIP3    H142468   4.103   0.332  11.670 -1.5487 -1.8404  0.9941
 6091TIP3    H242469   3.969   0.284  11.619 -2.1711  0.9506 -0.1827
 6092TIP3   OH242470   4.316   4.999   9.423  0.8500  0.2389  0.4205
 6092TIP3    H142471   4.258   4.923   9.422  0.2734  0.6271 -1.6031
 6092TIP3    H242472   4.355   4.999   9.336  1.6715  1.6475  0.7676
 6093TIP3   OH242473   5.667   6.582  11.445  0.6050  0.0734  0.3823
 6093TIP3    H142474   5.695   6.492  11.463  0.5196 -0.1160 -0.3820
 6093TIP3    H242475   5.717   6.607  11.367 -0.6454  0.0530 -0.4553
 6094TIP3   OH242476   6.554   4.028  10.215  0.0422  0.3707 -0.1155
 6094TIP3    H142477   6.504   4.084  10.156  0.6808  0.1716 -0.8601
 6094TIP3    H242478   6.495   3.955  10.235 -0.3419  0.6763 -0.1394
 6095TIP3   OH242479   0.945   6.312   8.891 -0.7930  0.2114  0.4391
 6095TIP3    H142480   0.930   6.219   8.875 -1.3776 -0.1555  2.7467
 6095TIP3    H242481   0.859   6.353   8.884 -0.3230  0.9508 -2.2204
 6096TIP3   OH242482   5.823   5.746  10.682  0.1794 -0.5923 -0.2607
 6096TIP3    H142483   5.779   5.785  10.757 -1.2649 -0.6193 -1.0536
 6096TIP3    H242484   5.809   5.809  10.611 -0.7962 -1.7538 -1.1535
 6097TIP3   OH242485   2.774   4.133  11.345 -0.2904 -0.1135 -0.4427
 6097TIP3    H142486   2.702   4.075  11.325 -2.2147  1.9886 -0.0066
 6097TIP3    H242487   2.754   4.167  11.433  0.5989  1.3940 -0.7881
 6098TIP3   OH242488   1.923   4.358  11.827  0.2604  0.2641  1.5392
 6098TIP3    H142489   1.977   4.436  11.841 -0.8657  1.3501  0.1381
 6098TIP3    H242490   1.857   4.362  11.897 -0.5332  1.2896  0.7764
 6099TIP3   OH242491   2.896   3.962   8.571 -0.5938  0.2869  0.0135
 6099TIP3    H142492   2.871   4.046   8.531  0.1973 -0.4719 -2.2264
 6099TIP3    H242493   2.813   3.923   8.599 -1.3892  0.2876 -2.1624
 6100TIP3   OH242494   4.707   4.828  11.149  0.7826  0.2130 -0.1258
 6100TIP3    H142495   4.741   4.739  11.162  1.0622  0.3164 -0.1413
 6100TIP3    H242496   4.765   4.884  11.199  0.0890  0.3047  0.5978
 6101TIP3   OH242497   4.403   4.209  12.101  0.2839 -1.0071 -0.2668
 6101TIP3    H142498   4.354   4.265  12.161 -0.4512 -2.1874  0.2741
 6101TIP3    H242499   4.373   4.121  12.121  0.4478 -1.4925 -1.9826
 6102TIP3   OH242500   3.425   1.784  10.504  0.6575  0.0157  0.2486
 6102TIP3    H142501   3.370   1.713  10.470  0.0941 -0.4971  2.0775
 6102TIP3    H242502   3.385   1.807  10.588  1.3781  1.8883  0.1358
 6103TIP3   OH242503   5.920   0.104  10.128 -0.3312  0.2020  0.4342
 6103TIP3    H142504   5.852   0.138  10.069 -2.2761 -0.4970  2.1470
 6103TIP3    H242505   5.911   0.009  10.124  0.2887  0.1114  0.9805
 6104TIP3   OH242506   5.630   1.214   9.002 -0.2565  0.1253 -0.2167
 6104TIP3    H142507   5.708   1.197   9.056 -0.9181  1.4697  1.2585
 6104TIP3    H242508   5.662   1.266   8.929  0.5200 -0.9585 -0.6745
 6105TIP3   OH242509   2.884   4.287   9.927  0.3933 -0.1964  0.2069
 6105TIP3    H142510   2.911   4.206   9.883 -1.6681 -0.9375  0.1910
 6105TIP3    H242511   2.823   4.329   9.866 -0.1750  0.2922  1.0756
 6106TIP3   OH242512   5.471   4.837   8.461  0.2685  0.1823 -0.1968
 6106TIP3    H142513   5.465   4.749   8.500  3.3783 -0.3567 -0.6978
 6106TIP3    H242514   5.388   4.879   8.485 -0.9421 -2.5487  0.8530
 6107TIP3   OH242515   0.015   2.805  10.854 -0.7426  0.2747 -0.2197
 6107TIP3    H142516  -0.048   2.784  10.785 -0.5733  0.6677 -0.5022
 6107TIP3    H242517  -0.006   2.896  10.878  0.6382  0.9332 -1.3476
 6108TIP3   OH242518   2.024   0.796   9.674 -0.4748 -0.3012 -0.3809
 6108TIP3    H142519   1.939   0.753   9.686 -0.0902 -0.5192  2.1565
 6108TIP3    H242520   2.078   0.762   9.746  0.7192  2.2865  0.0446
 6109TIP3   OH242521   3.928   1.567  10.621 -0.8033  0.1337 -0.2869
 6109TIP3    H142522   3.845   1.607  10.594 -1.7796 -0.8920  1.0521
 6109TIP3    H242523   3.971   1.633  10.674 -1.2723  0.2995 -0.1070
 6110TIP3   OH242524   2.869   6.082  11.798 -0.1351 -0.0017  0.0614
 6110TIP3    H142525   2.950   6.081  11.746 -1.9908  1.7409 -3.1816
 6110TIP3    H242526   2.881   6.156  11.858  1.2361 -0.7623  0.7831
 6111TIP3   OH242527   1.582   2.929   9.653  0.8563 -0.4254 -0.1651
 6111TIP3    H142528   1.621   2.977   9.726 -0.5768 -0.7060  0.8010
 6111TIP3    H242529   1.523   2.866   9.693 -0.6053 -0.0234 -1.5893
 6112TIP3   OH242530   3.994   2.113  10.344 -0.0361 -0.3251 -0.1373
 6112TIP3    H142531   3.967   2.158  10.424 -0.2817 -0.0218 -0.3912
 6112TIP3    H242532   3.941   2.033  10.342 -0.2535 -0.1795 -0.1606
 6113TIP3   OH242533   6.036   4.405   8.534 -0.0543  0.3204 -0.0535
 6113TIP3    H142534   6.091   4.367   8.465  0.1007 -0.8509  0.6821
 6113TIP3    H242535   6.047   4.346   8.608 -0.1577  1.5966  1.0123
 6114TIP3   OH242536   6.119   1.099   9.457 -0.3499 -0.7980  0.2774
 6114TIP3    H142537   6.151   1.091   9.547 -0.4754 -0.8991  0.3138
 6114TIP3    H242538   6.184   1.152   9.413 -0.1380 -0.9941  0.3540
 6115TIP3   OH242539   2.548   1.234   9.601  0.7250  0.7623 -0.0521
 6115TIP3    H142540   2.568   1.191   9.517 -1.3064  1.7407 -1.1083
 6115TIP3    H242541   2.477   1.181   9.638  0.2033  1.5121  0.0414
 6116TIP3   OH242542   2.363   3.205   9.796  0.0203  0.2363 -0.0456
 6116TIP3    H142543   2.418   3.175   9.723  0.0822 -1.0248  0.4884
 6116TIP3    H242544   2.280   3.228   9.755 -0.6623 -2.4015 -0.3428
 6117TIP3   OH242545   5.306   6.101   8.996  0.4397  0.0207  0.0367
 6117TIP3    H142546   5.375   6.167   8.997 -0.6541  1.2104  1.5247
 6117TIP3    H242547   5.276   6.096   9.087 -0.7202 -1.2348 -0.3804
 6118TIP3   OH242548   3.407   1.731   9.565  0.2905 -0.0206  0.4434
 6118TIP3    H142549   3.316   1.702   9.578  0.2438  0.1566  0.5238
 6118TIP3    H242550   3.409   1.818   9.605  1.3838 -1.3537  3.5929
 6119TIP3   OH242551   1.808   4.272   9.817  0.2163  0.8902  0.6403
 6119TIP3    H142552   1.748   4.346   9.809 -1.3553 -0.5322 -1.8476
 6119TIP3    H242553   1.881   4.294   9.759 -0.7354  0.0980 -0.8962
 6120TIP3   OH242554   0.138   0.889  10.429 -0.1506 -0.6194 -0.1747
 6120TIP3    H142555   0.085   0.969  10.438 -0.5306 -1.0260  1.4583
 6120TIP3    H242556   0.224   0.921  10.401 -0.2392  0.3964  0.6558
 6121TIP3   OH242557   2.015   2.005   9.022  0.0748 -0.0675  0.3862
 6121TIP3    H142558   1.981   1.969   9.104 -0.2390  0.0265  0.3010
 6121TIP3    H242559   2.027   1.930   8.965 -0.1368 -0.0867  0.3663
 6122TIP3   OH242560   1.402   5.189  11.867 -0.6805  0.2552  0.0499
 6122TIP3    H142561   1.386   5.282  11.882  0.7925  0.0454  3.7851
 6122TIP3    H242562   1.492   5.185  11.835 -0.4273  0.0643  0.7830
 6123TIP3   OH242563   0.749   1.352  10.065  0.1792  0.1800  0.5160
 6123TIP3    H142564   0.663   1.387  10.039 -0.7571 -0.4984  2.4717
 6123TIP3    H242565   0.757   1.270  10.017 -1.2611 -0.7958  1.8686
 6124TIP3   OH242566   2.846   1.551   9.870  0.1873 -0.3570 -0.0076
 6124TIP3    H142567   2.909   1.566   9.940 -0.4401 -0.4229  0.5735
 6124TIP3    H242568   2.764   1.588   9.902 -0.2232 -0.8201 -0.5029
 6125TIP3   OH242569   6.245   2.734   8.375 -0.2172  0.6255 -0.1130
 6125TIP3    H142570   6.308   2.663   8.372 -3.0444 -2.1543  0.9555
 6125TIP3    H242571   6.187   2.718   8.300  0.6011  3.5625 -1.5572
 6126TIP3   OH242572   5.715   0.959  11.233  0.5406 -0.0083  0.4476
 6126TIP3    H142573   5.712   0.911  11.150  1.3520  2.4832 -1.1319
 6126TIP3    H242574   5.628   0.999  11.240  0.3640 -0.4702  1.0076
 6127TIP3   OH242575   4.355   2.641   8.749  0.1021 -0.1035  0.3977
 6127TIP3    H142576   4.416   2.675   8.814  0.1491  1.3397 -0.3631
 6127TIP3    H242577   4.293   2.713   8.735 -1.8927 -1.5492  1.2466
 6128TIP3   OH242578   6.568   2.310  10.283 -0.1396  0.2058 -0.6002
 6128TIP3    H142579   6.499   2.343  10.340 -0.4815 -1.9402  0.3272
 6128TIP3    H242580   6.644   2.301  10.340 -0.6411 -2.5074 -0.2409
 6129TIP3   OH242581   1.772   1.793  11.231 -0.7764  0.8710 -0.3276
 6129TIP3    H142582   1.748   1.732  11.162 -1.3153  1.6640 -0.8529
 6129TIP3    H242583   1.755   1.879  11.195  1.9698  1.4802 -0.3857
 6130TIP3   OH242584   3.421   1.025  11.783  0.2980 -0.5943 -0.5567
 6130TIP3    H142585   3.475   0.970  11.840 -0.0996 -0.0923  0.3105
 6130TIP3    H242586   3.331   1.004  11.807  0.1284 -0.3002 -0.9296
 6131TIP3   OH242587   3.192   5.691   9.111  0.0944  0.3724 -0.5558
 6131TIP3    H142588   3.248   5.619   9.139  0.5668  0.6723 -0.7382
 6131TIP3    H242589   3.168   5.670   9.021 -3.1099 -1.6851  0.5626
 6132TIP3   OH242590   6.612   5.483  12.078 -0.5554 -0.1215 -0.2347
 6132TIP3    H142591   6.530   5.526  12.102 -1.3444 -1.4945 -0.3940
 6132TIP3    H242592   6.592   5.389  12.082  0.5339 -0.4617 -1.8513
 6133TIP3   OH242593   2.173   3.826  12.723 -0.2123  0.1606  0.0930
 6133TIP3    H142594   2.217   3.828  12.808 -0.0248 -2.0274  0.0953
 6133TIP3    H242595   2.086   3.790  12.742  0.0473 -0.9189 -0.7126
 6134TIP3   OH242596   1.177   2.688   8.917 -0.6828 -0.2351 -0.1147
 6134TIP3    H142597   1.235   2.625   8.875 -0.2174 -0.7490  1.2553
 6134TIP3    H242598   1.228   2.770   8.919 -0.3483 -0.4495  0.2710
 6135TIP3   OH242599   6.319   5.186  11.280 -0.3903 -0.2485  0.2097
 6135TIP3    H142600   6.396   5.157  11.231 -0.8661 -1.0932 -0.0720
 6135TIP3    H242601   6.295   5.110  11.334  0.4199  0.8126  2.1773
 6136TIP3   OH242602   0.891   3.038  10.142 -0.4401 -0.0225 -0.7543
 6136TIP3    H142603   0.800   3.019  10.120 -0.6975 -1.8690  1.5269
 6136TIP3    H242604   0.887   3.120  10.193 -0.9951 -0.6635  0.2637
 6137TIP3   OH242605   3.734   0.989   9.093 -0.7572  0.1427  0.5051
 6137TIP3    H142606   3.660   1.046   9.071  0.0715  0.5279 -1.5020
 6137TIP3    H242607   3.751   0.939   9.013 -0.5305 -1.9239  1.7692
 6138TIP3   OH242608   2.845   1.812  10.496  0.1726  0.2532 -0.3351
 6138TIP3    H142609   2.776   1.868  10.460  0.6954  0.9734 -0.2311
 6138TIP3    H242610   2.859   1.745  10.430 -2.4070 -1.4531  0.6794
 6139TIP3   OH242611   5.754   6.129   8.691 -0.6313 -0.2183 -0.1669
 6139TIP3    H142612   5.682   6.077   8.654 -1.6723  2.1388 -1.7093
 6139TIP3    H242613   5.829   6.112   8.634 -0.9973  0.0287 -0.7281
 6140TIP3   OH242614   2.041   6.668  10.323 -0.1150 -0.5234  0.1300
 6140TIP3    H142615   1.965   6.661  10.382  0.0270  1.9736  0.7482
 6140TIP3    H242616   2.116   6.681  10.381  0.2893  0.2208 -0.5316
 6141TIP3   OH242617   4.820   3.238  11.031 -0.7687 -0.4232  0.6295
 6141TIP3    H142618   4.822   3.183  11.109 -1.8254 -1.2191  0.1204
 6141TIP3    H242619   4.741   3.291  11.040 -0.5434 -0.0433  0.4153
 6142TIP3   OH242620   1.162   4.711  10.986 -0.0846 -0.0058  0.2549
 6142TIP3    H142621   1.107   4.712  11.064  0.0822 -1.5072  0.4381
 6142TIP3    H242622   1.234   4.770  11.007 -0.2622 -0.0642  1.0812
 6143TIP3   OH242623   5.646   3.317   9.518 -0.3256 -0.4319  0.2790
 6143TIP3    H142624   5.712   3.354   9.460 -0.2861 -0.0923  0.5354
 6143TIP3    H242625   5.676   3.339   9.606 -0.9196 -0.0340  0.3898
 6144TIP3   OH242626   1.726   5.674  11.655 -0.1495 -0.3403 -0.0685
 6144TIP3    H142627   1.737   5.580  11.642 -0.0310 -0.5542  1.3813
 6144TIP3    H242628   1.670   5.681  11.733  1.7516  0.7827  1.2726
 6145TIP3   OH242629   2.596   4.616   9.282  0.2825 -0.0178 -0.3164
 6145TIP3    H142630   2.506   4.609   9.314  0.6750 -0.0582  0.8243
 6145TIP3    H242631   2.599   4.557   9.207  0.0594 -2.1812  1.2725
 6146TIP3   OH242632   6.119   6.558   9.068 -0.0837  0.3454 -0.2363
 6146TIP3    H142633   6.154   6.636   9.112  0.7232 -0.1819  0.0763
 6146TIP3    H242634   6.133   6.487   9.131 -0.9942 -0.0249 -0.4351
 6147TIP3   OH242635   0.729   3.805   9.136 -0.2823  0.5711  0.1931
 6147TIP3    H142636   0.810   3.766   9.170  1.8447  4.0346 -0.4207
 6147TIP3    H242637   0.687   3.734   9.087  2.3802 -1.3861  0.5224
 6148TIP3   OH242638   3.256   6.051   8.939  0.2558  0.3512 -0.7352
 6148TIP3    H142639   3.328   5.995   8.912 -1.3950 -2.7079  0.6779
 6148TIP3    H242640   3.188   6.036   8.873 -0.9591 -1.0829  0.7513
 6149TIP3   OH242641   2.440   0.121   9.174  0.1750  0.1210 -0.3052
 6149TIP3    H142642   2.459   0.178   9.099 -0.7747  1.6896  0.5982
 6149TIP3    H242643   2.521   0.119   9.224  0.5493 -0.2378 -0.9040
 6150TIP3   OH242644   1.686   0.263   9.347 -0.2168 -0.0388 -0.0337
 6150TIP3    H142645   1.637   0.309   9.414  0.1849 -1.1878  1.0836
 6150TIP3    H242646   1.743   0.330   9.308 -0.5660  0.6726  0.6608
 6151TIP3   OH242647   4.467   5.645   9.793 -0.3432  0.1094  0.1524
 6151TIP3    H142648   4.373   5.663   9.787 -0.3907 -0.5284 -1.4794
 6151TIP3    H242649   4.472   5.550   9.804  0.1201  0.1504  0.3212
 6152TIP3   OH242650   3.614   5.440  11.076  0.4599 -0.2533 -0.6155
 6152TIP3    H142651   3.675   5.506  11.110  0.2610 -0.2300 -0.3001
 6152TIP3    H242652   3.660   5.356  11.089  0.2457 -0.2740  0.0251
 6153TIP3   OH242653   5.054   6.741   9.245 -0.4209  0.3379 -0.3749
 6153TIP3    H142654   5.086   6.653   9.263 -1.2519 -0.0360 -0.6590
 6153TIP3    H242655   5.096   6.765   9.162  1.1332  0.9034  0.5443
 6154TIP3   OH242656   5.925   0.470   9.563  0.9123  0.4241 -0.5463
 6154TIP3    H142657   5.956   0.559   9.581  1.9385 -0.2276  1.1981
 6154TIP3    H242658   5.993   0.431   9.509  2.8275 -0.6407  2.3548
 6155TIP3   OH242659   2.790   5.076  11.180  0.6386  0.3597  0.0084
 6155TIP3    H142660   2.741   4.999  11.210  0.3652  0.5385  0.0196
 6155TIP3    H242661   2.723   5.136  11.149  0.9271  0.0475 -1.2712
 6156TIP3   OH242662   5.792   2.924  10.060 -0.0513 -0.0546 -0.2754
 6156TIP3    H142663   5.804   3.019  10.052 -0.4428 -0.0244 -0.5334
 6156TIP3    H242664   5.719   2.904  10.001 -1.6485 -0.1433  1.6095
 6157TIP3   OH242665   3.806   5.801  11.697 -0.0702 -0.0891  0.5787
 6157TIP3    H142666   3.812   5.709  11.723  0.7927 -0.1513  0.1906
 6157TIP3    H242667   3.848   5.805  11.611 -1.3717  0.4221 -0.0542
 6158TIP3   OH242668   1.083   4.825  11.347  0.4171 -0.5206 -0.7077
 6158TIP3    H142669   1.150   4.881  11.387 -1.8235 -0.1786  3.0482
 6158TIP3    H242670   1.122   4.737  11.349  1.1662 -0.1939  0.5943
 6159TIP3   OH242671   3.986   3.897  11.110 -0.0977 -0.5590  0.0186
 6159TIP3    H142672   3.915   3.894  11.045 -1.6311  0.9350  1.5169
 6159TIP3    H242673   4.023   3.809  11.109 -2.0858 -1.4467 -0.7164
 6160TIP3   OH242674   2.998   4.288  11.579 -0.7339  0.7158  0.2592
 6160TIP3    H142675   3.054   4.360  11.549  0.4849 -0.8172 -1.3485
 6160TIP3    H242676   2.909   4.318  11.560 -0.3702  2.3499  0.9353
 6161TIP3   OH242677   6.542   2.753  10.280  0.5687  0.1575 -0.5434
 6161TIP3    H142678   6.475   2.699  10.239  1.1270 -1.7509  0.9142
 6161TIP3    H242679   6.500   2.839  10.291 -1.5105 -0.8453 -0.0641
 6162TIP3   OH242680   1.674   4.489  10.946 -0.4811  0.3620 -0.3580
 6162TIP3    H142681   1.697   4.408  10.992  0.4487  0.0895 -1.2754
 6162TIP3    H242682   1.622   4.539  11.010  0.8071  0.0106  1.0160
 6163TIP3   OH242683   1.534   2.582  10.102  0.0555 -0.2041 -0.7414
 6163TIP3    H142684   1.441   2.603  10.088  0.4746  1.7678 -0.7943
 6163TIP3    H242685   1.579   2.619  10.026  1.0314  0.1191 -0.0246
 6164TIP3   OH242686   1.088   4.335  10.002 -0.2384  0.7042  0.0433
 6164TIP3    H142687   0.998   4.346  10.032 -0.6655 -0.4493 -0.7800
 6164TIP3    H242688   1.104   4.241  10.007  0.7633  0.8424 -0.2883
 6165TIP3   OH242689   5.885   5.518  10.305  0.2304  0.2639  0.8647
 6165TIP3    H142690   5.905   5.611  10.289  0.4345  0.3111  1.3732
 6165TIP3    H242691   5.891   5.509  10.400 -0.5069 -0.1096  0.8737
 6166TIP3   OH242692   0.340   2.435  10.392 -0.2014  0.2902  0.8512
 6166TIP3    H142693   0.275   2.371  10.366 -1.1900  1.2381  0.9185
 6166TIP3    H242694   0.289   2.507  10.429  0.8451  1.2924  0.4060
 6167TIP3   OH242695   2.887   0.601   8.780  0.0294  0.0004 -0.8744
 6167TIP3    H142696   2.825   0.528   8.777  0.2242 -0.3877  1.9452
 6167TIP3    H242697   2.835   0.678   8.758 -0.5191 -0.7614 -2.3877
 6168TIP3   OH242698   4.960   0.904   9.246 -0.2156 -0.1979 -0.0679
 6168TIP3    H142699   5.007   0.880   9.165  0.7701 -0.4057  0.5517
 6168TIP3    H242700   5.005   0.855   9.315 -0.3417  0.8420  0.7654
 6169TIP3   OH242701   5.371   6.442  19.829  0.1780 -0.4251 -0.5023
 6169TIP3    H142702   5.423   6.506  19.877  0.1872  0.0332 -1.1078
 6169TIP3    H242703   5.288   6.438  19.877  0.8874 -1.4704  0.7159
 6170TIP3   OH242704   4.853   4.310  10.057  0.8762 -0.4885 -0.3280
 6170TIP3    H142705   4.824   4.253   9.985 -0.7096  1.0499 -0.9556
 6170TIP3    H242706   4.779   4.313  10.117  0.9369  0.8965 -0.2975
 6171TIP3   OH242707   0.712   4.213  11.345  0.1832 -0.2571  0.2058
 6171TIP3    H142708   0.647   4.205  11.414  2.1173  2.1879  2.5350
 6171TIP3    H242709   0.795   4.189  11.387  1.0006 -2.7062 -2.4851
 6172TIP3   OH242710   3.016   1.266  10.263  0.0969 -0.1812 -0.0014
 6172TIP3    H142711   3.011   1.308  10.177  0.7865  0.1488  0.1153
 6172TIP3    H242712   3.088   1.203  10.255  0.4834  0.1934  0.4754
 6173TIP3   OH242713   4.170   4.360   9.535 -0.0732  0.4216 -0.2739
 6173TIP3    H142714   4.201   4.329   9.621  3.0832  0.8617 -1.1147
 6173TIP3    H242715   4.147   4.280   9.488 -0.8261  0.0984  0.6156
 6174TIP3   OH242716   5.067   0.574   9.685 -0.3564  0.4686 -0.0015
 6174TIP3    H142717   5.135   0.610   9.742  0.7170 -0.1116 -0.8574
 6174TIP3    H242718   5.080   0.479   9.689 -2.2422  0.2044  1.1330
 6175TIP3   OH242719   0.881   1.311  10.456  0.0403  1.0758  0.5894
 6175TIP3    H142720   0.814   1.243  10.442  0.0548  0.4423  3.1050
 6175TIP3    H242721   0.906   1.338  10.368 -1.3142 -0.8654 -0.4772
 6176TIP3   OH242722   0.243   4.902   8.545  0.1208  0.1602 -0.1856
 6176TIP3    H142723   0.314   4.937   8.598 -0.5060  1.5366 -0.2238
 6176TIP3    H242724   0.251   4.947   8.461 -1.7038  1.5199  0.3196
 6177TIP3   OH242725   2.429   2.919   8.498  0.1435  0.1835  0.3132
 6177TIP3    H142726   2.517   2.880   8.497 -0.1978 -0.5963  0.1672
 6177TIP3    H242727   2.440   3.004   8.455  0.7668 -0.0366  0.0232
 6178TIP3   OH242728   3.475   3.352   9.219  0.4405  0.0471 -0.2887
 6178TIP3    H142729   3.389   3.338   9.260  0.1702 -1.0257 -1.1680
 6178TIP3    H242730   3.537   3.319   9.283  0.0598 -0.9955 -0.4252
 6179TIP3   OH242731   1.531   3.913   9.973  0.2314 -0.4546 -0.5140
 6179TIP3    H142732   1.545   3.833   9.923 -1.0010 -0.1628 -1.3557
 6179TIP3    H242733   1.458   3.956   9.930 -0.3300  0.2197  1.0498
 6180TIP3   OH242734   2.117   4.153  10.504  0.1334 -0.2584 -0.6008
 6180TIP3    H142735   2.025   4.144  10.530  0.3025  0.2171  0.1778
 6180TIP3    H242736   2.141   4.066  10.471 -0.3110 -0.6523  0.1018
 6181TIP3   OH242737   4.606   3.175  10.661 -0.1531  0.5563 -0.0660
 6181TIP3    H142738   4.548   3.220  10.722 -2.7812 -0.3500 -1.7111
 6181TIP3    H242739   4.570   3.086  10.655  0.7310  0.2737 -1.9935
 6182TIP3   OH242740   5.325   2.030   9.377  0.3957  0.2287 -0.1007
 6182TIP3    H142741   5.279   1.947   9.391  0.8132  0.1204  0.7075
 6182TIP3    H242742   5.274   2.095   9.425  0.9216  0.1538  0.5814
 6183TIP3   OH242743   3.621   5.926  10.243 -0.4262  0.1052  0.7466
 6183TIP3    H142744   3.581   5.924  10.156 -1.4021  1.1266  1.1527
 6183TIP3    H242745   3.619   6.018  10.269  1.4977  0.0933  1.1313
 6184TIP3   OH242746   3.385   2.428  12.009  0.5857 -0.5732 -0.2989
 6184TIP3    H142747   3.434   2.363  12.059  1.2347  1.1715  1.4687
 6184TIP3    H242748   3.305   2.442  12.060  2.1730  2.7411  1.6530
 6185TIP3   OH242749   2.346   3.109   8.921  0.2710  0.5290  0.2465
 6185TIP3    H142750   2.293   3.029   8.925 -0.9267  1.3447  1.2745
 6185TIP3    H242751   2.435   3.078   8.901 -0.3241 -0.9765 -0.1829
 6186TIP3   OH242752   3.578   1.811   9.816 -0.1494 -0.1099 -0.3391
 6186TIP3    H142753   3.485   1.833   9.825 -0.7659 -1.8761 -1.7633
 6186TIP3    H242754   3.622   1.868   9.879 -1.8213  2.9935 -1.7591
 6187TIP3   OH242755   5.976   4.950   8.662 -0.3582  0.5218 -0.1464
 6187TIP3    H142756   5.944   4.870   8.705  0.1286 -0.6113 -1.8149
 6187TIP3    H242757   5.954   4.938   8.570  1.1170  1.6191 -0.6750
 6188TIP3   OH242758   5.994   6.229   8.512  0.9817 -0.3843 -0.0173
 6188TIP3    H142759   5.959   6.140   8.507 -0.8900  0.2803  0.5082
 6188TIP3    H242760   6.072   6.221   8.567  0.1375 -1.5188  1.0595
 6189TIP3   OH242761   6.256   4.352  10.347 -0.0787  0.1668 -0.1140
 6189TIP3    H142762   6.162   4.368  10.359 -0.3135 -0.2947 -1.1947
 6189TIP3    H242763   6.260   4.281  10.282  1.0353  1.5043 -1.6001
 6190TIP3   OH242764   1.201   6.538   8.839 -0.3456 -0.7809 -0.0879
 6190TIP3    H142765   1.140   6.472   8.872 -1.2988  0.1029 -0.0265
 6190TIP3    H242766   1.171   6.555   8.749 -0.7843  0.3425  0.2597
 6191TIP3   OH242767   0.646   4.644   8.717 -0.4035 -0.2021 -0.5558
 6191TIP3    H142768   0.671   4.608   8.631  0.8637 -0.2987 -0.1709
 6191TIP3    H242769   0.728   4.645   8.767 -0.9031  0.8953  0.2844
 6192TIP3   OH242770   3.939   2.992   9.242 -0.7364  0.2226 -0.4830
 6192TIP3    H142771   4.006   3.060   9.250  0.6425 -1.2290  1.4219
 6192TIP3    H242772   3.872   3.016   9.307 -1.7958  1.2985 -1.9045
 6193TIP3   OH242773   4.062   3.416  10.381  0.0776 -0.1741 -0.3475
 6193TIP3    H142774   4.057   3.506  10.413  0.4759 -0.3821  0.3334
 6193TIP3    H242775   3.971   3.386  10.378 -0.3534  1.0944 -3.1558
 6194TIP3   OH242776   3.437   4.296   9.154  0.7219  0.4050 -0.7179
 6194TIP3    H142777   3.388   4.267   9.077  0.6617 -0.6752 -0.2977
 6194TIP3    H242778   3.517   4.243   9.154  0.5121  0.0527  0.1901
 6195TIP3   OH242779   1.549   5.792  10.805 -0.1936 -0.1732 -0.9219
 6195TIP3    H142780   1.614   5.783  10.735 -0.3785 -1.3199 -0.9658
 6195TIP3    H242781   1.517   5.703  10.820 -1.6157  0.3448 -0.7598
 6196TIP3   OH242782   6.784   4.133  10.142 -0.0299 -0.2701 -0.1339
 6196TIP3    H142783   6.831   4.172  10.216  1.6795 -2.0130 -0.2438
 6196TIP3    H242784   6.699   4.108  10.178  0.2943  0.0585  0.8840
 6197TIP3   OH242785   4.296   4.708  10.516 -0.8208 -0.3614  0.1458
 6197TIP3    H142786   4.288   4.780  10.579 -2.0341 -1.0443  0.7977
 6197TIP3    H242787   4.383   4.672  10.533 -0.5204  0.4424  0.3610
 6198TIP3   OH242788   5.950   6.160   9.503 -0.1425 -0.1878  0.1244
 6198TIP3    H142789   5.859   6.175   9.529 -0.0372 -1.8699  1.7067
 6198TIP3    H242790   5.949   6.169   9.408 -1.9394 -0.0299  0.1107
 6199TIP3   OH242791   6.613   3.307   9.368  0.7326  0.2499  0.1962
 6199TIP3    H142792   6.691   3.251   9.373  0.9355  0.4845 -0.2630
 6199TIP3    H242793   6.552   3.258   9.313  1.1249  0.7187 -0.6782
 6200TIP3   OH242794   1.490   6.126  11.688  0.0275 -0.1867  0.1923
 6200TIP3    H142795   1.545   6.098  11.615 -0.3056 -1.1285  0.2839
 6200TIP3    H242796   1.419   6.176  11.647  1.3534  1.7885  0.1447
 6201TIP3   OH242797   0.832   3.257   9.033  0.4596  0.0466  0.9743
 6201TIP3    H142798   0.784   3.321   9.086 -1.3456 -0.4120 -0.0163
 6201TIP3    H242799   0.799   3.172   9.064 -1.4150 -0.2292 -1.4277
 6202TIP3   OH242800   6.660   0.038  10.319 -0.1032  0.0461  0.4804
 6202TIP3    H142801   6.581   0.018  10.269 -1.3841  1.4970  1.8194
 6202TIP3    H242802   6.729   0.041  10.253 -0.8633 -2.5362 -0.5771
 6203TIP3   OH242803   6.740   1.722   9.418  0.6518 -0.4868  0.4699
 6203TIP3    H142804   6.704   1.808   9.441  1.5091  0.2219 -0.7301
 6203TIP3    H242805   6.761   1.681   9.502  0.2290  0.4715  1.0557
 6204TIP3   OH242806   5.658   0.601  11.468 -0.2971  0.7061  0.2309
 6204TIP3    H142807   5.704   0.664  11.524 -1.1369  0.7367  0.9236
 6204TIP3    H242808   5.709   0.521  11.475  1.4376  1.5733 -1.5633
 6205TIP3   OH242809   4.008   6.581  10.111 -0.3607 -0.2446 -0.4620
 6205TIP3    H142810   4.075   6.537  10.057  0.5704 -1.2738  1.4281
 6205TIP3    H242811   3.959   6.509  10.151 -0.7730  0.4709  0.3474
 6206TIP3   OH242812   0.920   4.946  10.409  0.0351 -0.0956 -0.0272
 6206TIP3    H142813   0.993   4.914  10.461 -0.5111 -1.1661  0.1198
 6206TIP3    H242814   0.876   4.866  10.379 -1.8373  0.5111  0.9728
 6207TIP3   OH242815   4.982   0.903  10.001 -0.3820 -0.8620 -0.1447
 6207TIP3    H142816   4.991   0.974   9.937  0.2815 -1.5959 -0.8962
 6207TIP3    H242817   4.939   0.832   9.953 -1.9214 -0.6528  0.8721
 6208TIP3   OH242818   3.645   0.217  10.551 -0.3816 -0.2995 -0.1075
 6208TIP3    H142819   3.595   0.178  10.478 -0.5053  1.1710 -0.8412
 6208TIP3    H242820   3.629   0.158  10.625 -2.2048 -0.5347 -0.6430
 6209TIP3   OH242821   4.418   1.702  10.768  0.0635  0.1906  0.5110
 6209TIP3    H142822   4.328   1.721  10.740  0.9884  2.1580 -1.5020
 6209TIP3    H242823   4.442   1.776  10.823  0.8511  0.3440 -0.0229
 6210TIP3   OH242824   1.700   5.265  10.331 -0.2148 -0.0775 -0.0533
 6210TIP3    H142825   1.692   5.170  10.340  0.3564 -0.0022  1.3942
 6210TIP3    H242826   1.613   5.293  10.303 -0.5718 -0.9484  0.1405
 6211TIP3   OH242827   0.348   6.591   9.456 -0.1736 -0.7410  0.6915
 6211TIP3    H142828   0.337   6.574   9.549 -0.1723 -0.8859  0.6652
 6211TIP3    H242829   0.311   6.678   9.443 -3.5727 -2.1094  0.1780
 6212TIP3   OH242830   2.860   4.348  10.881 -0.0962 -0.2198 -0.1890
 6212TIP3    H142831   2.781   4.398  10.902  0.1130  0.0277  0.0030
 6212TIP3    H242832   2.854   4.270  10.937  0.5502  0.5222  0.9372
 6213TIP3   OH242833   5.978   3.339   8.730 -0.1945 -0.1691  0.1164
 6213TIP3    H142834   6.027   3.364   8.652 -0.8073  0.6031 -0.0277
 6213TIP3    H242835   6.037   3.362   8.803 -0.0303  0.0528 -0.0836
 6214TIP3   OH242836   0.641   6.355  10.648 -0.3144 -0.5235  0.8291
 6214TIP3    H142837   0.601   6.299  10.580  2.2212 -0.8649 -0.4815
 6214TIP3    H242838   0.585   6.342  10.724 -0.5639 -3.9468  0.2428
 6215TIP3   OH242839   5.177   4.980  11.316  0.1831 -0.0927 -0.1120
 6215TIP3    H142840   5.115   5.016  11.253 -3.0534  1.8511  3.7139
 6215TIP3    H242841   5.137   4.899  11.346  1.1467 -0.4805  0.1644
 6216TIP3   OH242842   4.422   0.690   8.894 -0.2016 -0.3858 -0.0216
 6216TIP3    H142843   4.420   0.636   8.974  1.0175  1.8150  1.6033
 6216TIP3    H242844   4.515   0.700   8.874 -0.4825 -0.5531 -1.5074
 6217TIP3   OH242845   2.619   4.061   9.436  0.0692 -0.2199  0.3765
 6217TIP3    H142846   2.658   3.982   9.400  2.2254  0.0203  2.0208
 6217TIP3    H242847   2.611   4.120   9.361 -2.3755 -2.1629 -1.0588
 6218TIP3   OH242848   6.377   3.817   9.834  0.3046 -0.8312 -0.0339
 6218TIP3    H142849   6.435   3.774   9.771  1.5428  0.6823  0.0151
 6218TIP3    H242850   6.436   3.853   9.900 -0.5421  1.7442 -0.5770
 6219TIP3   OH242851   1.560   1.803  10.885  0.6338  0.3248 -0.2354
 6219TIP3    H142852   1.548   1.746  10.809 -0.6335 -0.1408  0.2930
 6219TIP3    H242853   1.585   1.887  10.847 -1.9112  0.6727 -1.3603
 6220TIP3   OH242854   1.394   5.169   9.618  0.0636 -0.1040 -0.1498
 6220TIP3    H142855   1.458   5.110   9.658  0.1631 -0.2640 -0.5380
 6220TIP3    H242856   1.434   5.256   9.626  0.7005 -0.2942 -1.0851
 6221TIP3   OH242857   6.491   2.085  10.138 -1.0799 -0.3207  0.8082
 6221TIP3    H142858   6.507   2.142  10.213 -1.1954 -0.4103  0.9026
 6221TIP3    H242859   6.578   2.053  10.113 -0.9843  0.1321  0.5658
 6222TIP3   OH242860   6.256   4.052   9.926  0.2871  0.2196  0.1370
 6222TIP3    H142861   6.242   4.092   9.840 -0.6993 -0.1072  0.1330
 6222TIP3    H242862   6.292   3.965   9.907  0.2354  0.2144  0.0635
 6223TIP3   OH242863   4.278   1.098  10.354  0.0522 -0.5743  0.3179
 6223TIP3    H142864   4.294   1.016  10.399  1.3655  0.3304  1.5795
 6223TIP3    H242865   4.335   1.095  10.277  1.2446 -0.2335  1.1681
 6224TIP3   OH242866   3.710   2.575  10.635  0.3704  0.1269  0.5811
 6224TIP3    H142867   3.617   2.593  10.649  0.8004  1.8875  1.3493
 6224TIP3    H242868   3.719   2.573  10.539 -0.2320  1.3176  0.4763
 6225TIP3   OH242869   3.488   2.386  11.254  0.3841 -0.7175  0.4117
 6225TIP3    H142870   3.449   2.302  11.279  1.8537 -1.0477  1.6729
 6225TIP3    H242871   3.412   2.443  11.236 -0.6870 -1.5062  2.1887
 6226TIP3   OH242872   3.026   6.095  10.766  0.5688 -0.6809  0.6725
 6226TIP3    H142873   2.987   6.108  10.680  2.5321 -0.9305 -0.3214
 6226TIP3    H242874   3.050   6.003  10.768  1.2840 -0.4938  1.1312
 6227TIP3   OH242875   6.188   4.969  10.192 -0.0683  0.1713 -0.2643
 6227TIP3    H142876   6.181   4.930  10.105  0.6926 -1.6078  0.4238
 6227TIP3    H242877   6.273   5.013  10.193  0.4161 -0.7475 -0.0869
 6228TIP3   OH242878   5.122   4.590   9.156  0.5485  0.7828  0.2385
 6228TIP3    H142879   5.173   4.649   9.211 -1.3728  1.4905  1.3447
 6228TIP3    H242880   5.041   4.576   9.204  1.1345 -3.3744  0.3809
 6229TIP3   OH242881   3.529   4.779  11.837  0.0260  0.0697  0.5775
 6229TIP3    H142882   3.579   4.827  11.903  0.6239  0.2148  0.0176
 6229TIP3    H242883   3.593   4.723  11.793 -0.0955  0.9683 -0.8024
 6230TIP3   OH242884   1.527   4.827  12.391  0.1017  0.1074 -0.2141
 6230TIP3    H142885   1.602   4.831  12.450 -0.3963  2.5883  0.3819
 6230TIP3    H242886   1.559   4.781  12.313  2.3569  1.3177 -0.0827
 6231TIP3   OH242887   3.486   5.650   9.553  0.4366  0.3737 -0.3846
 6231TIP3    H142888   3.437   5.701   9.489  1.0607  0.1482 -1.0507
 6231TIP3    H242889   3.517   5.715   9.616 -1.2623  0.4513  0.4499
 6232TIP3   OH242890   2.346   2.834   9.031 -0.0276  0.3096 -0.3538
 6232TIP3    H142891   2.345   2.758   9.090  0.6537 -2.5590 -3.7060
 6232TIP3    H242892   2.438   2.861   9.029 -0.1054  0.6200  0.1042
 6233TIP3   OH242893   2.036   2.349   9.209  0.5318 -0.2291 -0.5626
 6233TIP3    H142894   1.963   2.394   9.252  1.3538  1.7868 -1.1793
 6233TIP3    H242895   2.114   2.384   9.252  1.2997  0.7066 -2.6229
 6234TIP3   OH242896   3.040   2.799   9.582 -0.0538  0.4173  0.2967
 6234TIP3    H142897   3.050   2.789   9.488 -0.0802  0.5943  0.2741
 6234TIP3    H242898   2.951   2.833   9.593  1.0673  3.8251  0.1225
 6235TIP3   OH242899   4.818   6.721   9.575  0.1010  0.3345  0.2727
 6235TIP3    H142900   4.893   6.714   9.635  1.8858  0.9483 -1.7546
 6235TIP3    H242901   4.837   6.656   9.507 -1.1483  0.6100 -0.3501
 6236TIP3   OH242902   1.385   4.477   9.188 -0.6060  0.2674 -0.4332
 6236TIP3    H142903   1.420   4.533   9.258 -0.2330 -0.5365  0.0380
 6236TIP3    H242904   1.404   4.524   9.107 -0.1967  0.7690 -0.0527
 6237TIP3   OH242905   2.875   5.755   9.647 -0.4013  0.1229  0.0828
 6237TIP3    H142906   2.912   5.827   9.597  1.1228 -1.3475 -0.9996
 6237TIP3    H242907   2.869   5.789   9.737  0.6315  1.4483 -0.3175
 6238TIP3   OH242908   2.317   0.145  11.292 -0.5933 -0.3276  0.0572
 6238TIP3    H142909   2.337   0.179  11.379 -4.5823 -1.1374  1.4952
 6238TIP3    H242910   2.240   0.194  11.264  0.1374 -0.6248 -2.7247
 6239TIP3   OH242911   1.419   5.184   9.000  0.2546  0.4577 -0.0210
 6239TIP3    H142912   1.455   5.269   9.026  0.3723 -0.2428  2.2921
 6239TIP3    H242913   1.332   5.182   9.040  0.5098 -0.7577  0.5034
 6240TIP3   OH242914   2.595   6.070   9.854 -0.1918 -0.1391 -0.7910
 6240TIP3    H142915   2.548   6.100   9.931 -2.0598  1.6610 -2.5165
 6240TIP3    H242916   2.551   5.989   9.829 -1.1134  0.4807 -1.2357
 6241TIP3   OH242917   5.452   1.545   9.015 -0.3178  0.2398  0.9222
 6241TIP3    H142918   5.388   1.507   8.955  0.5972 -0.3203  0.2752
 6241TIP3    H242919   5.429   1.638   9.019 -0.6762  0.1955  0.0753
 6242TIP3   OH242920   2.167   6.400   9.373 -1.0181  0.0944  0.7239
 6242TIP3    H142921   2.128   6.480   9.407 -0.0394  0.9468 -0.1193
 6242TIP3    H242922   2.109   6.373   9.301 -1.0010  0.3927  0.5989
 6243TIP3   OH242923   1.713   5.095  10.686 -0.3634 -0.4088  0.0869
 6243TIP3    H142924   1.807   5.079  10.673  0.2652  2.1882  0.8038
 6243TIP3    H242925   1.687   5.034  10.754  0.3563 -2.3506 -1.3031
 6244TIP3   OH242926   4.141   5.732  11.162  0.4022 -0.3398 -0.0208
 6244TIP3    H142927   4.125   5.700  11.073 -2.2541  0.8776 -0.0603
 6244TIP3    H242928   4.090   5.674  11.218  1.2989 -0.5037  0.6530
 6245TIP3   OH242929   0.861   3.495  11.459 -0.4887 -0.2966  0.3118
 6245TIP3    H142930   0.799   3.423  11.450 -0.8457  0.0308  0.0950
 6245TIP3    H242931   0.936   3.470  11.405 -1.0227 -0.0672 -0.5489
 6246TIP3   OH242932   2.219   0.247   9.692  0.1261 -0.1184 -0.1074
 6246TIP3    H142933   2.247   0.337   9.711 -0.3909  0.8469 -3.2568
 6246TIP3    H242934   2.123   0.252   9.692  0.0998 -0.6140 -0.4917
 6247TIP3   OH242935   4.614   4.932   9.842 -0.3090  0.0168  0.2488
 6247TIP3    H142936   4.556   4.856   9.833  0.8242 -0.8550  0.1046
 6247TIP3    H242937   4.626   4.940   9.937 -1.2770  0.6977  0.3306
 6248TIP3   OH242938   4.057   2.521  11.342  0.0924 -0.2476  0.1169
 6248TIP3    H142939   4.078   2.560  11.427  0.1524 -1.0989  0.5115
 6248TIP3    H242940   3.964   2.538  11.329  0.3142  0.7978 -0.1470
 6249TIP3   OH242941   1.701   0.560   8.726 -0.1866  0.3117  0.5952
 6249TIP3    H142942   1.630   0.566   8.663  1.1334  0.5701 -0.9137
 6249TIP3    H242943   1.707   0.467   8.747 -0.8940  0.2772  0.6871
 6250TIP3   OH242944   3.187   2.919   9.962  0.2736 -0.4027 -0.5913
 6250TIP3    H142945   3.219   2.995   9.914 -0.8992  0.9685  0.6783
 6250TIP3    H242946   3.266   2.877   9.996  1.0027 -0.4139 -2.2019
 6251TIP3   OH242947   2.785   1.014  11.252 -0.1879  0.1917 -0.3147
 6251TIP3    H142948   2.853   1.000  11.186  0.7086 -0.2824  0.6891
 6251TIP3    H242949   2.735   1.089  11.219 -0.5261 -0.7691 -2.1420
 6252TIP3   OH242950   1.642   1.320   9.382 -0.2733 -0.4107 -0.1892
 6252TIP3    H142951   1.737   1.304   9.389  0.3152  1.9675 -1.7836
 6252TIP3    H242952   1.611   1.253   9.321  0.3170 -1.2930  0.4424
 6253TIP3   OH242953   6.497   3.397   9.010 -0.8938 -0.5378 -0.9103
 6253TIP3    H142954   6.489   3.319   9.064 -0.9404  0.8747  1.2496
 6253TIP3    H242955   6.412   3.440   9.016 -0.1790  0.8478 -0.0943
 6254TIP3   OH242956   2.300   5.268   9.613  0.3109 -0.1527 -0.1836
 6254TIP3    H142957   2.332   5.179   9.628 -2.3540 -1.1223  0.2902
 6254TIP3    H242958   2.347   5.322   9.677  1.3243 -1.3598  0.1221
 6255TIP3   OH242959   1.447   5.295  10.213 -0.4564  0.4290 -0.3550
 6255TIP3    H142960   1.443   5.285  10.118 -1.1800  0.7514 -0.3681
 6255TIP3    H242961   1.357   5.277  10.242  0.1811 -1.7268  0.4787
 6256TIP3   OH242962   3.516   1.792  10.841  0.2743 -0.2060  0.5157
 6256TIP3    H142963   3.532   1.715  10.896  0.6637  0.2614  1.0634
 6256TIP3    H242964   3.420   1.799  10.838  0.2281 -0.8094  0.3168
 6257TIP3   OH242965   1.434   3.029  11.111  0.6667 -0.2987  0.0097
 6257TIP3    H142966   1.358   3.020  11.054 -0.8063  0.2983  1.7898
 6257TIP3    H242967   1.509   3.023  11.052 -0.7491 -0.5784 -1.8491
 6258TIP3   OH242968   4.729   5.674   9.399  0.1789  0.8242 -0.0124
 6258TIP3    H142969   4.779   5.756   9.391  3.5223 -0.8034  1.8523
 6258TIP3    H242970   4.763   5.633   9.478 -0.1715 -3.1093 -1.6555
 6259TIP3   OH242971   1.421   3.328   8.612 -0.0807  0.0839 -0.4333
 6259TIP3    H142972   1.504   3.327   8.565 -0.0276 -0.3495 -0.3299
 6259TIP3    H242973   1.396   3.236   8.619 -1.0756  0.2573 -1.3765
 6260TIP3   OH242974   6.010   4.061  11.029 -0.0675 -0.0873 -0.4402
 6260TIP3    H142975   6.092   4.081  11.075 -0.9781  0.5840  0.9981
 6260TIP3    H242976   6.010   3.966  11.018  0.0291 -0.3330  1.3564
 6261TIP3   OH242977   1.831   0.579  10.235 -0.0838  0.3214  0.4727
 6261TIP3    H142978   1.862   0.590  10.145  0.3687 -0.6978  0.4945
 6261TIP3    H242979   1.736   0.592  10.229 -0.2419 -1.0367 -0.3921
 6262TIP3   OH242980   4.939   1.132  10.249 -0.0983  0.9297  0.2470
 6262TIP3    H142981   4.942   1.200  10.316 -0.2654 -0.5353  1.8183
 6262TIP3    H242982   4.946   1.179  10.166 -0.2064  2.8347  1.2705
 6263TIP3   OH242983   5.625   0.074  10.014  0.2728 -0.0985 -0.2424
 6263TIP3    H142984   5.634  -0.021  10.020  0.9554 -0.0732 -0.7059
 6263TIP3    H242985   5.579   0.099  10.094  1.0577 -0.6979  0.4166
 6264TIP3   OH242986   2.911   5.529  11.174 -0.7003 -0.1179  0.6983
 6264TIP3    H142987   2.920   5.454  11.234 -0.5320  0.4097  1.3495
 6264TIP3    H242988   2.914   5.490  11.087  0.6057 -0.7601  1.0011
 6265TIP3   OH242989   0.488   3.129  11.117  0.6234  0.1337  0.0379
 6265TIP3    H142990   0.544   3.204  11.138 -0.3169  1.2083 -1.1310
 6265TIP3    H242991   0.484   3.127  11.022  0.5607 -1.3826  0.0427
 6266TIP3   OH242992   3.264   5.794   9.426  0.1922  0.6654 -0.2692
 6266TIP3    H142993   3.286   5.871   9.373 -0.1943  0.0879 -1.2991
 6266TIP3    H242994   3.205   5.743   9.371 -1.4056  0.7406  1.2985
 6267TIP3   OH242995   1.142   5.559   9.187 -0.1785 -0.6941 -0.1688
 6267TIP3    H142996   1.207   5.514   9.240 -1.2504 -0.8907  1.0232
 6267TIP3    H242997   1.060   5.512   9.203 -0.7264 -0.1698 -1.2678
 6268TIP3   OH242998   3.283   1.318  12.192  0.8301  0.0852 -0.4905
 6268TIP3    H142999   3.304   1.229  12.162  0.7368 -0.4717  0.9870
 6268TIP3    H243000   3.303   1.317  12.286 -1.1717  0.9616  0.0093
 6269TIP3   OH243001   3.305   4.599  10.744  0.2368  0.3821 -0.3529
 6269TIP3    H143002   3.372   4.592  10.675  0.0618 -0.7021 -0.4351
 6269TIP3    H243003   3.259   4.680  10.724  2.1147  1.6455  0.2476
 6270TIP3   OH243004   1.405   1.564   8.536 -0.5093  0.0995 -0.3991
 6270TIP3    H143005   1.466   1.496   8.566 -0.1995  0.4528 -0.2241
 6270TIP3    H243006   1.341   1.516   8.483 -0.3467 -0.3439 -0.2035
 6271TIP3   OH243007   0.003   5.461  11.549  0.4162 -0.1437 -0.0695
 6271TIP3    H143008  -0.039   5.395  11.494 -0.5675  1.0260 -0.7626
 6271TIP3    H243009  -0.046   5.459  11.631  1.1779 -1.1114  0.3845
 6272TIP3   OH243010   5.068   0.072  11.871  0.0358  0.4123 -0.0383
 6272TIP3    H143011   5.022  -0.010  11.889  1.3721 -0.2759  0.4532
 6272TIP3    H243012   5.068   0.119  11.954  0.4375  0.2824  0.0390
 6273TIP3   OH243013   4.228   5.143  10.300 -0.3111 -0.0905 -0.2728
 6273TIP3    H143014   4.255   5.187  10.219  2.0734  0.6433  0.8596
 6273TIP3    H243015   4.149   5.191  10.327  0.0074  0.9495 -1.1069
 6274TIP3   OH243016   1.342   6.030   9.089  0.3712  0.2183 -0.6546
 6274TIP3    H143017   1.264   6.030   9.144 -0.9031 -0.3467 -2.3969
 6274TIP3    H243018   1.342   6.115   9.046  0.7099  0.2003 -0.6961
 6275TIP3   OH243019   0.331   5.922  10.981  0.2716  0.0326 -0.6366
 6275TIP3    H143020   0.275   5.995  11.007  1.5638  1.2999 -1.2644
 6275TIP3    H243021   0.274   5.865  10.930 -1.2492 -0.4001  1.4152
 6276TIP3   OH243022   2.182   4.085   8.662  0.0927  0.2931 -0.1679
 6276TIP3    H143023   2.224   4.166   8.631 -0.0263  0.2424 -0.4649
 6276TIP3    H243024   2.089   4.107   8.667  0.1249  0.3341  0.2676
 6277TIP3   OH243025   4.816   4.989  10.922 -0.9528 -0.9631 -0.1868
 6277TIP3    H143026   4.726   4.972  10.950 -1.1510 -0.3800 -0.4661
 6277TIP3    H243027   4.853   4.902  10.909 -0.3784 -1.3916  3.2346
 6278TIP3   OH243028   3.481   0.206   9.371  0.2236  0.4006  0.0910
 6278TIP3    H143029   3.469   0.112   9.354  0.1053  0.0579  1.8659
 6278TIP3    H243030   3.496   0.211   9.465  1.1257  2.1007 -0.1088
 6279TIP3   OH243031   5.633   3.575   9.121 -0.2326 -0.7312  0.0639
 6279TIP3    H143032   5.577   3.551   9.047 -0.1201  0.0174 -0.2702
 6279TIP3    H243033   5.586   3.647   9.163  0.8641  0.4794 -0.7129
 6280TIP3   OH243034   2.211   0.433   9.411 -0.2781  0.2441  0.3681
 6280TIP3    H143035   2.273   0.374   9.369  0.7595  1.2890  0.3835
 6280TIP3    H243036   2.265   0.490   9.465 -1.0855  1.9608 -0.5364
 6281TIP3   OH243037   1.292   6.251   8.763 -0.1759 -0.3367 -0.1070
 6281TIP3    H143038   1.324   6.281   8.848 -0.2662  0.1515 -0.2431
 6281TIP3    H243039   1.271   6.159   8.777  0.8093 -0.5449  0.1199
 6282TIP3   OH243040   4.995   1.453  10.644 -0.4838  0.7304  0.3481
 6282TIP3    H143041   5.022   1.362  10.639 -2.3988  0.1305 -0.0149
 6282TIP3    H243042   4.957   1.462  10.732 -0.8532  0.9955  0.1665
 6283TIP3   OH243043   6.502   0.220  10.138 -0.2290  0.3707  0.6532
 6283TIP3    H143044   6.487   0.205  10.231  1.9093 -2.8924  0.6440
 6283TIP3    H243045   6.447   0.156  10.094 -2.0295  2.5747 -0.5154
 6284TIP3   OH243046   2.734   4.388   9.713  0.2109 -0.2832 -0.2501
 6284TIP3    H143047   2.757   4.416   9.625 -0.4633 -0.7384 -0.5816
 6284TIP3    H243048   2.657   4.333   9.701  0.0661 -0.2843  0.6344
 6285TIP3   OH243049   5.686   0.693  12.042 -0.1528  0.7209  0.2736
 6285TIP3    H143050   5.691   0.757  12.114 -1.4439  0.7340  0.3750
 6285TIP3    H243051   5.761   0.636  12.056  3.1877  4.1220 -1.7638
 6286TIP3   OH243052   2.410   4.352   9.872  0.4187 -0.4356  0.4957
 6286TIP3    H143053   2.433   4.415   9.940 -3.9987  0.7555  1.2020
 6286TIP3    H243054   2.399   4.269   9.919  1.1277 -0.5359  0.4959
 6287TIP3   OH243055   4.465   6.383   9.970  0.0553  0.3214 -0.0495
 6287TIP3    H143056   4.433   6.301  10.009  0.9555  0.6591  1.4711
 6287TIP3    H243057   4.393   6.412   9.914  0.1566 -2.1009 -1.5987
 6288TIP3   OH243058   2.363   5.017  11.432  0.2593 -0.3166 -0.3562
 6288TIP3    H143059   2.440   5.007  11.490  0.7863 -2.2029 -1.2835
 6288TIP3    H243060   2.377   5.101  11.388  0.6355  0.4229  1.1089
 6289TIP3   OH243061   2.149   6.220   9.137  0.0155 -0.0480  0.3535
 6289TIP3    H143062   2.233   6.191   9.173  0.0738  0.0695  0.3153
 6289TIP3    H243063   2.084   6.162   9.177  0.1097 -0.1074  0.4219
 6290TIP3   OH243064   6.606   4.644   9.240  0.4704  0.0356  0.3074
 6290TIP3    H143065   6.635   4.645   9.149  1.6249 -1.3998  0.6238
 6290TIP3    H243066   6.676   4.687   9.288  0.5793 -0.5537  0.6894
 6291TIP3   OH243067   0.013   4.719   9.389 -0.3320  0.1918  0.1534
 6291TIP3    H143068  -0.020   4.730   9.478  0.6358  1.7357  0.3704
 6291TIP3    H243069   0.108   4.716   9.399 -0.2418 -2.4932 -0.5980
 6292TIP3   OH243070   3.290   2.903   9.185  0.6928  0.0520 -0.0732
 6292TIP3    H143071   3.224   2.837   9.205  0.6375 -0.1457 -0.8813
 6292TIP3    H243072   3.287   2.964   9.259  0.0292 -0.2875  0.1809
 6293TIP3   OH243073   2.285   2.076   8.954  0.1682 -0.8783 -0.2277
 6293TIP3    H143074   2.233   1.996   8.957 -1.5365  0.2086  0.3728
 6293TIP3    H243075   2.282   2.111   9.043  1.4629 -0.4690 -0.3170
 6294TIP3   OH243076   4.035   3.074   8.638  0.3966 -0.4749 -0.0632
 6294TIP3    H143077   3.991   3.130   8.702 -3.0477 -0.2168 -2.4187
 6294TIP3    H243078   4.082   3.134   8.581 -1.6437  0.0025 -1.3675
 6295TIP3   OH243079   6.736   5.762  11.718 -0.1692  0.0576 -0.0008
 6295TIP3    H143080   6.687   5.768  11.636 -0.0651  0.8090 -0.0070
 6295TIP3    H243081   6.703   5.681  11.759 -0.4867 -0.1258 -0.6039
 6296TIP3   OH243082   0.100   3.726   9.193 -0.2076  0.6285  0.0175
 6296TIP3    H143083   0.047   3.694   9.265  1.9684 -1.7062  0.7167
 6296TIP3    H243084   0.047   3.794   9.152 -3.2336 -0.8258  1.2664
 6297TIP3   OH243085   3.435   0.905   8.936 -0.5121  0.5544 -0.0772
 6297TIP3    H143086   3.458   0.860   8.856  3.3420 -0.1949  1.2561
 6297TIP3    H243087   3.387   0.840   8.988  0.0009 -0.1127 -0.4290
 6298TIP3   OH243088   0.416   0.312   9.379  0.5771  0.8436 -0.0884
 6298TIP3    H143089   0.351   0.371   9.417  0.8892  1.6665 -0.8106
 6298TIP3    H243090   0.435   0.349   9.293  1.1032 -0.0719 -0.3813
 6299TIP3   OH243091   2.047   3.640  10.102 -0.1788 -0.0127  0.4188
 6299TIP3    H143092   2.123   3.697  10.108  0.0318 -0.3133  0.6373
 6299TIP3    H243093   1.979   3.694  10.061  0.4307 -0.0413 -0.6447
 6300TIP3   OH243094   4.208   4.770  11.013  0.3453  0.6445  0.2775
 6300TIP3    H143095   4.271   4.704  10.986  1.6945  1.4761  1.2422
 6300TIP3    H243096   4.191   4.821  10.934 -0.9260 -0.9621 -0.5439
 6301TIP3   OH243097   4.559   5.342   9.040  0.0453  0.1360 -0.4554
 6301TIP3    H143098   4.600   5.411   9.092 -2.1871  0.2424  1.3599
 6301TIP3    H243099   4.631   5.284   9.016  1.9693  2.8435 -1.7726
 6302TIP3   OH243100   3.742   5.852   9.376 -0.5630 -0.3437  0.3658
 6302TIP3    H143101   3.741   5.776   9.435  1.0447 -0.2125  0.5916
 6302TIP3    H243102   3.784   5.921   9.427  2.1134 -0.5951 -1.3158
 6303TIP3   OH243103   3.052   1.328  11.451  0.3791 -0.2869  0.5529
 6303TIP3    H143104   2.970   1.288  11.480 -0.1026  0.9125  0.9061
 6303TIP3    H243105   3.116   1.303  11.518  0.1897 -0.8010  0.5471
 6304TIP3   OH243106   4.718   6.381  11.170 -0.7347  0.1712 -0.3468
 6304TIP3    H143107   4.751   6.469  11.187  0.7981 -0.0233 -2.1105
 6304TIP3    H243108   4.653   6.366  11.240 -1.1633  2.7314 -0.1105
 6305TIP3   OH243109   1.596   4.367  11.682 -0.1123 -0.2594  0.4439
 6305TIP3    H143110   1.659   4.295  11.687  0.8800  0.6588  1.9868
 6305TIP3    H243111   1.647   4.442  11.653 -0.6251  0.3461  1.0578
 6306TIP3   OH243112   3.423   3.215  10.695 -0.0691  0.3526  0.0807
 6306TIP3    H143113   3.346   3.158  10.685 -0.1946  0.2446  1.4480
 6306TIP3    H243114   3.460   3.189  10.779  1.3462  0.5713 -0.4576
 6307TIP3   OH243115   5.809   5.889  10.439  0.3533 -0.0904 -0.4554
 6307TIP3    H143116   5.762   5.958  10.486 -1.4249 -1.2228 -0.4752
 6307TIP3    H243117   5.756   5.874  10.360  0.8218 -1.3193 -0.5570
 6308TIP3   OH243118   5.428   3.037  12.134 -0.5607 -1.0323  0.2677
 6308TIP3    H143119   5.337   3.040  12.102 -0.2920 -0.4819 -0.4720
 6308TIP3    H243120   5.419   3.014  12.227 -1.4456 -1.1963  0.1579
 6309TIP3   OH243121   0.847   1.884  10.352  0.0184 -0.0388  0.3227
 6309TIP3    H143122   0.885   1.926  10.429  1.0803 -0.3909  0.0141
 6309TIP3    H243123   0.856   1.790  10.369 -1.3929 -0.1467  0.5578
 6310TIP3   OH243124   2.232   6.028  10.473  0.2794  0.0832 -0.2685
 6310TIP3    H143125   2.202   6.104  10.425 -0.5064 -0.1106 -0.1065
 6310TIP3    H243126   2.224   6.052  10.566 -0.3936 -0.3395 -0.2079
 6311TIP3   OH243127   2.381   3.971   9.291  0.6398  0.0180  0.0171
 6311TIP3    H143128   2.394   4.048   9.346  1.0303  0.5231 -0.7507
 6311TIP3    H243129   2.297   3.988   9.246  0.2633 -0.4445  0.5330
 6312TIP3   OH243130   1.142   5.446  10.749  0.0566 -0.0554 -0.7788
 6312TIP3    H143131   1.091   5.514  10.792 -0.2523  0.7084 -2.2940
 6312TIP3    H243132   1.117   5.365  10.794 -0.1088  0.7204  0.5670
 6313TIP3   OH243133   6.535   6.693   9.867  1.0311  0.0749 -0.0503
 6313TIP3    H143134   6.543   6.616   9.923 -1.4329  0.7705  1.3919
 6313TIP3    H243135   6.613   6.745   9.886  1.0521 -0.4883  1.5184
 6314TIP3   OH243136   4.207   0.600  11.519 -0.2910  0.4122 -0.0119
 6314TIP3    H143137   4.155   0.524  11.545 -1.0386  0.6591 -0.7404
 6314TIP3    H243138   4.248   0.574  11.437 -0.3559  0.7077 -0.1386
 6315TIP3   OH243139   3.178   2.375  11.509  0.1083 -0.1339 -0.8115
 6315TIP3    H143140   3.105   2.329  11.468 -0.7394  0.7993 -0.3867
 6315TIP3    H243141   3.176   2.347  11.601  0.7903 -0.7087 -0.9579
 6316TIP3   OH243142   5.950   3.106   8.889  0.1661  0.1852  0.0397
 6316TIP3    H143143   5.939   3.176   8.824 -1.3164 -0.5428 -0.5440
 6316TIP3    H243144   5.895   3.035   8.856  1.8482 -1.3878  0.4567
 6317TIP3   OH243145   0.648   5.503  12.181  0.0953 -0.5461  0.5222
 6317TIP3    H143146   0.558   5.529  12.200 -0.2861 -0.3585 -1.3160
 6317TIP3    H243147   0.699   5.583  12.189  0.1407 -0.6694  1.6484
 6318TIP3   OH243148   5.780   6.292   8.942 -0.2854  0.1008 -0.1421
 6318TIP3    H143149   5.825   6.211   8.967  0.0769  0.3621  0.0729
 6318TIP3    H243150   5.748   6.276   8.853  0.9783  0.2121 -0.6361
 6319TIP3   OH243151   4.769   5.511  12.512  0.0305 -0.0456 -0.7504
 6319TIP3    H143152   4.852   5.466  12.493 -0.5563 -0.1326 -3.6209
 6319TIP3    H243153   4.785   5.602  12.487 -0.4132  0.1765 -0.2361
 6320TIP3   OH243154   0.620   1.815  10.647  0.1231 -0.1210 -0.1275
 6320TIP3    H143155   0.618   1.750  10.576 -0.1536  2.9868 -3.2460
 6320TIP3    H243156   0.712   1.817  10.674  0.2339 -1.3962 -0.3332
 6321TIP3   OH243157   4.080   0.919  11.962 -0.1077 -0.2205 -0.2451
 6321TIP3    H143158   4.061   0.827  11.981  0.5255 -0.1159  1.0227
 6321TIP3    H243159   4.120   0.952  12.042 -0.2346  1.1443 -0.7163
 6322TIP3   OH243160   2.578   1.129  11.008 -0.5505 -0.1558  0.6086
 6322TIP3    H143161   2.543   1.141  10.919  0.0994 -0.2812  0.3313
 6322TIP3    H243162   2.630   1.049  11.002 -1.0525 -0.5442  1.2793
 6323TIP3   OH243163   1.186   6.205  10.141  0.2700 -0.0960 -0.1664
 6323TIP3    H143164   1.175   6.185  10.048 -1.2800 -0.0295 -0.0160
 6323TIP3    H243165   1.101   6.238  10.169  1.4119  2.4771  0.6474
 6324TIP3   OH243166   2.202   4.175  10.818  0.2615  0.2679  0.3822
 6324TIP3    H143167   2.137   4.118  10.859  0.0117  0.7916  0.7219
 6324TIP3    H243168   2.176   4.179  10.726  0.0153  0.1936  0.4484
 6325TIP3   OH243169   2.606   3.070  11.093  0.6588 -0.0900 -0.3898
 6325TIP3    H143170   2.587   3.016  11.016  1.2027 -0.0639 -0.5421
 6325TIP3    H243171   2.613   3.159  11.059 -2.8291  0.5778  0.1793
 6326TIP3   OH243172   2.936   3.967  12.184  0.3101  0.0117  0.7411
 6326TIP3    H143173   2.988   4.043  12.159  1.2444 -0.8753 -0.0867
 6326TIP3    H243174   2.901   3.934  12.102  0.2585 -0.6949  1.0417
 6327TIP3   OH243175   3.016   5.542   9.532  0.1673 -0.6946  0.6846
 6327TIP3    H143176   2.959   5.537   9.455 -0.4501 -1.4370  1.1793
 6327TIP3    H243177   2.977   5.612   9.585  2.1909  1.8258 -0.9138
 6328TIP3   OH243178   0.249   5.761  10.770  0.2179 -0.1542 -0.8863
 6328TIP3    H143179   0.297   5.678  10.762 -0.5087 -0.7643  0.6227
 6328TIP3    H243180   0.165   5.744  10.727  0.5922  0.2700 -1.8011
 6329TIP3   OH243181   5.959   6.013   8.890 -0.3586 -0.3367  0.0436
 6329TIP3    H143182   5.954   5.933   8.837 -0.6129 -0.7609  0.6911
 6329TIP3    H243183   5.891   6.001   8.957  0.2128  0.0146  0.6963
 6330TIP3   OH243184   4.515   2.311   9.063 -0.3804  0.0436 -0.0420
 6330TIP3    H143185   4.473   2.245   9.008 -0.2989  1.1807 -1.5326
 6330TIP3    H243186   4.608   2.305   9.042 -0.2860  0.1605  0.3285
 6331TIP3   OH243187   0.996   3.188  12.257  0.5390  0.0217 -0.0149
 6331TIP3    H143188   0.953   3.272  12.271 -0.0908 -0.3414  0.2680
 6331TIP3    H243189   1.086   3.203  12.285  0.4118  0.5774  0.1182
 6332TIP3   OH243190   3.210   2.569   9.655  0.1968 -0.3184  0.5119
 6332TIP3    H143191   3.291   2.590   9.702  0.0858  0.2352  0.4630
 6332TIP3    H243192   3.155   2.647   9.667  1.2670  1.1792 -3.0034
 6333TIP3   OH243193   6.556   3.018  11.684  0.0178  0.4731  0.6717
 6333TIP3    H143194   6.626   3.059  11.736 -1.0953  0.1208  2.5293
 6333TIP3    H243195   6.556   2.926  11.711 -1.2693  0.5043  0.8608
 6334TIP3   OH243196   2.574   5.697   9.545  0.3568  0.3035  0.1809
 6334TIP3    H143197   2.488   5.707   9.505  0.7488 -1.1032 -1.1042
 6334TIP3    H243198   2.609   5.787   9.549 -0.6071  0.7247 -0.5364
 6335TIP3   OH243199   3.984   1.089  10.328 -0.0821 -0.1746  0.3213
 6335TIP3    H143200   3.969   1.183  10.338 -0.2300  0.0743 -1.6734
 6335TIP3    H243201   4.079   1.081  10.318 -0.2508  0.2338 -2.6306
 6336TIP3   OH243202   3.506   1.779   8.768 -0.2533  0.6064  0.1896
 6336TIP3    H143203   3.522   1.856   8.713 -0.5052  0.7270  0.2787
 6336TIP3    H243204   3.579   1.720   8.750 -0.1583  0.7869 -0.0231
 6337TIP3   OH243205   4.111   6.419   9.366 -0.4234 -0.0560 -0.0169
 6337TIP3    H143206   4.151   6.445   9.449  1.4690 -1.0219 -0.5727
 6337TIP3    H243207   4.035   6.477   9.357  0.0087  0.8717  1.8067
 6338TIP3   OH243208   6.483   2.782  10.917  0.0156  0.0189 -0.1293
 6338TIP3    H143209   6.426   2.768  10.993 -1.9877 -0.9843 -1.7383
 6338TIP3    H243210   6.541   2.853  10.945 -0.8276 -0.1146  2.2340
 6339TIP3   OH243211   3.880   5.509  10.850  0.0379  0.3121  0.0214
 6339TIP3    H143212   3.860   5.529  10.941 -0.1998 -2.6043  0.6936
 6339TIP3    H243213   3.816   5.443  10.825  0.4027  0.7019 -2.1316
 6340TIP3   OH243214   3.342   0.094   9.099  0.5758 -0.0841 -0.2834
 6340TIP3    H143215   3.425   0.119   9.059  1.3483 -2.8058 -0.5883
 6340TIP3    H243216   3.366   0.029   9.166 -1.1810  0.3046  0.8068
 6341TIP3   OH243217   5.694   3.693  11.527 -0.0381 -0.0042 -0.2636
 6341TIP3    H143218   5.679   3.787  11.534  0.0926  0.5481 -4.7054
 6341TIP3    H243219   5.609   3.658  11.498  0.5414 -0.8654 -0.9511
 6342TIP3   OH243220   4.671   6.735  11.904  0.4112 -0.1011 -0.4048
 6342TIP3    H143221   4.632   6.795  11.967 -0.2205 -1.0801  0.1758
 6342TIP3    H243222   4.596   6.691  11.864  0.8561 -1.4589  0.1703
 6343TIP3   OH243223   1.194   2.480   9.413  0.7999 -0.1295 -0.8506
 6343TIP3    H143224   1.123   2.495   9.350 -1.3391  0.3362  1.5046
 6343TIP3    H243225   1.179   2.392   9.446 -0.3781  0.8512  1.5052
 6344TIP3   OH243226   5.476   4.756  10.852  0.3410 -0.3704 -0.2682
 6344TIP3    H143227   5.439   4.843  10.866 -0.2642 -0.5247 -0.9013
 6344TIP3    H243228   5.555   4.772  10.800 -1.0444 -0.3861 -2.4568
 6345TIP3   OH243229   2.349   3.571  11.501  0.5616  0.2662 -0.1961
 6345TIP3    H143230   2.258   3.543  11.500  1.1314 -1.7747 -0.7048
 6345TIP3    H243231   2.348   3.657  11.544 -1.4618 -0.1441  0.6943
 6346TIP3   OH243232   0.203   0.505   8.902 -0.5062 -0.3866 -0.3277
 6346TIP3    H143233   0.191   0.600   8.909  1.1265 -0.2710  2.4002
 6346TIP3    H243234   0.142   0.469   8.966 -0.4338 -1.1149 -0.6640
 6347TIP3   OH243235   0.423   0.693  10.291 -0.3845 -0.5096 -0.2331
 6347TIP3    H143236   0.462   0.701  10.203  0.4313 -0.5452  0.1180
 6347TIP3    H243237   0.400   0.601  10.299 -0.5102 -0.4962 -0.4292
 6348TIP3   OH243238   6.672   3.959  10.797  0.4897 -0.4819 -0.0205
 6348TIP3    H143239   6.697   3.867  10.787  0.2674 -0.5773  0.2860
 6348TIP3    H243240   6.735   4.007  10.743 -0.0601 -0.8904 -1.0648
 6349TIP3   OH243241   0.988   3.431   9.590 -0.1534 -0.1215 -0.2034
 6349TIP3    H143242   0.904   3.386   9.600  0.3326 -0.8451  0.7310
 6349TIP3    H243243   1.044   3.393   9.657 -0.0938  2.8356  1.6085
 6350TIP3   OH243244   1.640   5.052  11.237  0.1762 -0.0120 -0.4473
 6350TIP3    H143245   1.675   5.131  11.278  0.6322  0.0291 -0.9064
 6350TIP3    H243246   1.698   4.982  11.267 -0.3899 -0.2262  0.1806
 6351TIP3   OH243247   5.750   0.272   9.074  0.3529  0.3092  0.2319
 6351TIP3    H143248   5.834   0.276   9.029 -0.8554  0.1221 -2.1861
 6351TIP3    H243249   5.715   0.185   9.054 -0.4537  0.3932  1.1688
 6352TIP3   OH243250   3.461   4.726   9.521 -0.6466 -0.5206 -0.4024
 6352TIP3    H143251   3.499   4.706   9.607 -0.8598  1.3382  0.1557
 6352TIP3    H243252   3.447   4.640   9.481  0.4253 -1.3860  0.9907
 6353TIP3   OH243253   0.684   6.443   8.851  0.1590 -0.1845  0.2537
 6353TIP3    H143254   0.716   6.526   8.817  1.7931 -1.4790 -1.6148
 6353TIP3    H243255   0.631   6.407   8.780  3.0217 -2.6145 -0.8555
 6354TIP3   OH243256   2.190   3.465  11.823 -0.1196  0.3635 -0.6329
 6354TIP3    H143257   2.200   3.549  11.778  0.9356 -0.8319 -2.7818
 6354TIP3    H243258   2.274   3.450  11.866  0.5871 -0.6406 -2.2695
 6355TIP3   OH243259   0.471   3.253  10.580  0.1394 -0.1710 -0.1913
 6355TIP3    H143260   0.388   3.207  10.591  0.7307 -1.6925 -1.6083
 6355TIP3    H243261   0.446   3.344  10.564 -1.1704 -0.3325  0.8014
 6356TIP3   OH243262   1.663   2.932  10.942 -0.8885  0.1750 -0.2079
 6356TIP3    H143263   1.703   3.004  10.893 -0.9141  0.2655 -0.0960
 6356TIP3    H243264   1.669   2.857  10.883  2.1965 -0.6085  0.8978
 6357TIP3   OH243265   0.601   5.374  11.226  0.6741 -0.1126  0.1747
 6357TIP3    H143266   0.511   5.368  11.195  0.6143  0.4594  0.2252
 6357TIP3    H243267   0.615   5.468  11.242  0.4290 -0.4558  2.7196
 6358TIP3   OH243268   0.920   5.639   9.671  0.0319 -0.1117 -0.2192
 6358TIP3    H143269   0.902   5.697   9.597  0.1707  1.1779  0.7417
 6358TIP3    H243270   1.009   5.606   9.654  0.5011  1.0479 -0.0745
 6359TIP3   OH243271   2.867   5.464   8.989 -0.0286 -0.2641 -0.3373
 6359TIP3    H143272   2.907   5.522   8.924 -0.7179 -0.9336 -1.3952
 6359TIP3    H243273   2.937   5.447   9.052  0.5916  0.5914 -0.7725
 6360TIP3   OH243274   1.957   2.602  11.646  0.4321 -0.4726 -0.1638
 6360TIP3    H143275   1.975   2.542  11.573 -1.1515 -0.2999 -0.7333
 6360TIP3    H243276   1.980   2.551  11.724 -1.9972 -2.3979 -0.5435
 6361TIP3   OH243277   0.358   1.912  10.257  0.6245 -0.0876  0.6148
 6361TIP3    H143278   0.338   1.833  10.307  0.0735 -2.0958 -2.4565
 6361TIP3    H243279   0.448   1.899  10.226  0.1505 -0.1423 -0.8488
 6362TIP3   OH243280   3.701   2.921   8.891  0.2864 -0.1668 -0.2203
 6362TIP3    H143281   3.621   2.972   8.908  0.0239 -1.1622  1.9581
 6362TIP3    H243282   3.711   2.924   8.796 -2.9813 -0.9058 -0.7260
 6363TIP3   OH243283   4.075   5.807  12.764 -0.1723 -0.8869  0.3176
 6363TIP3    H143284   4.044   5.801  12.854 -0.1911 -1.0762  0.3001
 6363TIP3    H243285   4.018   5.747  12.716  0.6093 -1.7069  0.3890
 6364TIP3   OH243286   1.786   4.137   9.434  0.5420  0.1081 -0.2649
 6364TIP3    H143287   1.763   4.199   9.365 -0.3492 -1.4317 -1.4381
 6364TIP3    H243288   1.725   4.155   9.505  2.2707  2.5433  0.7204
 6365TIP3   OH243289   3.741   0.172   9.251 -0.0488  0.0285  0.4673
 6365TIP3    H143290   3.796   0.121   9.310  0.1529 -1.0969 -0.6415
 6365TIP3    H243291   3.653   0.164   9.286  0.2312  0.3497  1.2582
 6366TIP3   OH243292   1.790   2.282  12.080  0.1584 -0.3446  0.6079
 6366TIP3    H143293   1.817   2.373  12.091 -0.4678 -0.3938  3.1335
 6366TIP3    H243294   1.852   2.232  12.134 -0.7785 -1.1787  0.9439
 6367TIP3   OH243295   1.737   4.455  10.216 -0.7972 -0.3369 -0.3694
 6367TIP3    H143296   1.763   4.459  10.307 -0.6955  1.0312 -0.4314
 6367TIP3    H243297   1.815   4.478  10.167 -0.7792 -1.3256 -0.8287
 6368TIP3   OH243298   4.827   5.138  11.355 -0.3243  0.0474 -0.0788
 6368TIP3    H143299   4.862   5.051  11.338  0.1237  0.1042  0.5158
 6368TIP3    H243300   4.732   5.128  11.348 -0.2605 -0.4325 -0.2500
 6369TIP3   OH243301   1.454   4.028   9.272  0.4288  0.0131  0.4588
 6369TIP3    H143302   1.479   3.938   9.249 -0.2731  0.1310 -0.9094
 6369TIP3    H243303   1.484   4.081   9.198 -1.1400  0.5672  0.1635
 6370TIP3   OH243304   6.286   0.537  10.238  0.0621 -0.2333 -0.3580
 6370TIP3    H143305   6.371   0.495  10.221  0.2226 -0.9880  1.9395
 6370TIP3    H243306   6.308   0.617  10.285 -0.4912 -0.3709  0.1406
 6371TIP3   OH243307   6.532   1.700  10.085  0.0392  0.3298 -0.2703
 6371TIP3    H143308   6.473   1.653  10.026 -0.3229 -2.1019  1.8794
 6371TIP3    H243309   6.611   1.713  10.033 -0.1451 -2.0105 -1.2488
 6372TIP3   OH243310   2.908   6.223  10.111 -0.0206  0.2519 -0.7495
 6372TIP3    H143311   2.903   6.174  10.029  1.6304 -1.9312  0.3492
 6372TIP3    H243312   2.884   6.313  10.087 -0.9832 -0.6048 -3.3081
 6373TIP3   OH243313   6.081   3.668   8.753  0.3446 -0.2422  0.0567
 6373TIP3    H143314   6.167   3.675   8.711 -0.3967 -3.1457 -2.3471
 6373TIP3    H243315   6.096   3.612   8.829  0.8568  0.8477  0.7774
 6374TIP3   OH243316   2.187   3.565  12.172  0.5160  0.1672 -0.4641
 6374TIP3    H143317   2.097   3.550  12.200  0.9510  1.1883  1.6664
 6374TIP3    H243318   2.223   3.478  12.158 -1.0049 -0.2397 -2.2084
 6375TIP3   OH243319   2.976   3.776  11.249  0.3025  0.1560 -0.5537
 6375TIP3    H143320   3.030   3.721  11.306  1.1860  1.1064 -0.4469
 6375TIP3    H243321   3.008   3.865  11.265 -0.4802  0.6009 -1.4023
 6376TIP3   OH243322   6.036   2.040   9.671  0.2963  0.6192 -0.2055
 6376TIP3    H143323   5.958   2.090   9.693 -0.5555 -1.0400  0.7935
 6376TIP3    H243324   6.004   1.967   9.618  0.7496 -1.3261  2.0375
 6377TIP3   OH243325   4.627   2.568   9.381 -0.2883  0.2236  0.2597
 6377TIP3    H143326   4.549   2.544   9.331  0.0764  0.7609 -0.5910
 6377TIP3    H243327   4.601   2.646   9.430 -0.5254 -0.0686  0.6032
 6378TIP3   OH243328   4.302   1.990   9.757 -0.3213  0.4229 -0.5323
 6378TIP3    H143329   4.280   2.050   9.828 -1.5735  0.1527 -0.6766
 6378TIP3    H243330   4.250   1.912   9.774 -3.2312  1.4909 -3.4221
 6379TIP3   OH243331   2.472   3.755  10.808  0.2393  0.2446  0.1585
 6379TIP3    H143332   2.457   3.818  10.737 -1.2426 -0.1601  0.0769
 6379TIP3    H243333   2.388   3.712  10.819  0.9853 -1.0762  0.8491
 6380TIP3   OH243334   2.289   2.713  11.167  0.2163 -0.0015 -0.1303
 6380TIP3    H143335   2.252   2.701  11.255  0.2236  0.2152 -0.0979
 6380TIP3    H243336   2.216   2.748  11.115 -0.4911 -2.2693 -0.8049
 6381TIP3   OH243337   2.088   3.686   9.692 -0.0094  0.0700 -0.3770
 6381TIP3    H143338   2.150   3.690   9.765 -1.2382  3.1956  0.7147
 6381TIP3    H243339   2.143   3.678   9.614  1.5606 -0.1256  0.6932
 6382TIP3   OH243340   3.366   1.463  10.252 -0.0598  0.3752  0.5994
 6382TIP3    H143341   3.317   1.455  10.334 -1.6752 -0.0729 -0.3420
 6382TIP3    H243342   3.340   1.386  10.201  0.7297  0.7517 -0.4176
 6383TIP3   OH243343   4.954   3.162  10.802  0.3421  0.3037  0.6720
 6383TIP3    H143344   4.880   3.191  10.748 -0.4237 -0.6747  1.1578
 6383TIP3    H243345   4.919   3.159  10.891  0.2502 -2.3005  0.6393
 6384TIP3   OH243346   4.720   3.509  10.202 -0.4685 -1.2146 -0.2625
 6384TIP3    H143347   4.786   3.560  10.249 -0.8137 -0.2768 -0.7653
 6384TIP3    H243348   4.742   3.522  10.110 -0.1625 -2.5428 -0.4015
 6385TIP3   OH243349   5.935   1.804   9.559 -0.1588  0.0684  0.2265
 6385TIP3    H143350   5.840   1.800   9.557 -0.2670  0.9794  1.6746
 6385TIP3    H243351   5.963   1.757   9.481 -1.7937 -0.0047 -0.3532
 6386TIP3   OH243352   1.716   5.697  12.682  0.8496 -0.3840  0.2670
 6386TIP3    H143353   1.739   5.780  12.641 -1.2384 -0.5925 -1.5208
 6386TIP3    H243354   1.628   5.677  12.650  0.1185 -1.9193  2.8706
 6387TIP3   OH243355   0.964   0.268  11.139 -0.3320  0.4957 -0.5688
 6387TIP3    H143356   1.058   0.253  11.127 -0.4173  0.2782 -0.9765
 6387TIP3    H243357   0.930   0.183  11.169 -0.1540  0.9770  1.0790
 6388TIP3   OH243358   5.676   2.790  11.375  0.1635  0.2367  0.6854
 6388TIP3    H143359   5.668   2.742  11.457 -0.8550 -0.1172  0.3985
 6388TIP3    H243360   5.762   2.765  11.340  0.7832  0.7182  1.8291
 6389TIP3   OH243361   5.082   2.298  11.193 -0.2536  0.2526  0.2859
 6389TIP3    H143362   5.047   2.213  11.220 -0.5555  0.2353 -0.1467
 6389TIP3    H243363   5.081   2.295  11.097  1.2647  0.1126  0.2478
 6390TIP3   OH243364   0.730   5.749  10.741  0.5278 -0.4234 -0.1629
 6390TIP3    H143365   0.753   5.810  10.670  0.8210 -1.1457 -0.7003
 6390TIP3    H243366   0.682   5.803  10.804  2.2731  0.7698  0.2316
 6391TIP3   OH243367   2.057   0.719  10.799 -0.0761 -0.2592  0.4454
 6391TIP3    H143368   2.113   0.671  10.859 -1.5231 -0.8186  1.4139
 6391TIP3    H243369   1.979   0.663  10.789 -1.5842  1.5979  1.1850
 6392TIP3   OH243370   0.057   5.386  11.964 -0.4328 -0.3560  0.5127
 6392TIP3    H143371   0.032   5.355  12.051 -1.4821 -1.0910 -0.0370
 6392TIP3    H243372  -0.012   5.448  11.940 -1.8025 -2.3337 -0.9804
 6393TIP3   OH243373   2.163   4.634  10.299  0.4030 -0.2164 -0.2063
 6393TIP3    H143374   2.171   4.620  10.204 -0.4644  0.2509 -0.3578
 6393TIP3    H243375   2.214   4.563  10.337 -1.3978 -2.0624 -0.9980
 6394TIP3   OH243376   0.586   3.398   9.933  0.0603 -0.1393 -0.6088
 6394TIP3    H143377   0.543   3.483   9.941  1.5693  0.7412 -1.2319
 6394TIP3    H243378   0.678   3.416   9.956  0.2564 -1.7754 -0.0058
 6395TIP3   OH243379   3.153   4.249  10.028  0.0403 -0.4749 -0.4022
 6395TIP3    H143380   3.059   4.268  10.021  0.4558  1.2720 -2.2012
 6395TIP3    H243381   3.189   4.324  10.075  0.4986 -1.3430  0.6526
 6396TIP3   OH243382   0.701   1.614  18.687  0.1569  0.1838  0.0205
 6396TIP3    H143383   0.789   1.599  18.721  1.2830  1.9379 -1.8917
 6396TIP3    H243384   0.643   1.578  18.753  2.3139 -2.2406  0.7472
 6397TIP3   OH243385   2.731   5.334  10.621  0.3715  0.1413  0.0355
 6397TIP3    H143386   2.670   5.368  10.556  0.2661  0.4318  0.2836
 6397TIP3    H243387   2.816   5.371  10.596  0.5948 -0.9061 -0.7786
 6398TIP3   OH243388   5.270   3.066  11.365 -0.5870  0.0527  0.0591
 6398TIP3    H143389   5.329   3.001  11.327  1.4370  0.5621  2.0800
 6398TIP3    H243390   5.241   3.027  11.447 -1.6799  0.5596 -0.0634
 6399TIP3   OH243391   6.011   5.197  11.291  0.4886  0.1112  0.1459
 6399TIP3    H143392   6.065   5.136  11.341 -1.0824 -1.8151 -0.3816
 6399TIP3    H243393   6.001   5.157  11.205 -0.7425  1.0154 -0.1677
 6400TIP3   OH243394   1.073   1.343   9.996  0.0925  0.3787 -0.1865
 6400TIP3    H143395   1.097   1.423   9.950 -0.5547  0.0496 -1.1222
 6400TIP3    H243396   1.003   1.305   9.943 -0.3214 -0.2756  0.8029
 6401TIP3   OH243397   2.519   2.476  10.578 -0.4575  0.1336  0.4200
 6401TIP3    H143398   2.440   2.455  10.627 -2.4198 -0.4856 -2.7208
 6401TIP3    H243399   2.496   2.554  10.527  1.6213  1.0232  0.7458
 6402TIP3   OH243400   2.632   3.480  12.114  0.5959 -0.3717 -0.0599
 6402TIP3    H143401   2.613   3.571  12.091  1.3748 -0.4473 -1.1115
 6402TIP3    H243402   2.591   3.429  12.045  0.1927 -0.8263  0.5073
 6403TIP3   OH243403   4.269   5.225  12.207 -0.3573  0.4301  0.5146
 6403TIP3    H143404   4.221   5.186  12.280  0.9659 -0.9319  0.7208
 6403TIP3    H243405   4.243   5.173  12.131 -0.0879  0.4104  0.4329
 6404TIP3   OH243406   2.263   0.718   9.226  0.0915 -0.2456  0.5490
 6404TIP3    H143407   2.237   0.770   9.302  1.0295  0.2616  0.5376
 6404TIP3    H243408   2.345   0.676   9.252  0.2051 -0.3961 -0.0236
 6405TIP3   OH243409   3.092   0.085  10.449  0.2839  0.8281 -0.2698
 6405TIP3    H143410   3.031   0.052  10.383  0.6444 -1.7770  0.5751
 6405TIP3    H243411   3.042   0.085  10.530  0.8866  0.3385  0.1161
 6406TIP3   OH243412   2.692   5.661  12.036  0.1135 -0.1928 -0.3424
 6406TIP3    H143413   2.705   5.570  12.008  2.4916 -0.0703  0.1280
 6406TIP3    H243414   2.613   5.659  12.089  0.6067 -2.1857  0.3964
 6407TIP3   OH243415   2.037   4.214   9.624  0.3752  0.2855  0.1842
 6407TIP3    H143416   2.028   4.122   9.601 -2.0515 -0.0940  2.2717
 6407TIP3    H243417   2.060   4.258   9.542  2.6570 -2.2435 -0.6670
 6408TIP3   OH243418   4.285   2.433  10.851  0.1703  0.0708 -0.1207
 6408TIP3    H143419   4.302   2.515  10.898 -0.1362  0.8446 -1.3043
 6408TIP3    H243420   4.356   2.427  10.786 -0.7154  0.2788 -1.1452
 6409TIP3   OH243421   4.117   2.308  10.662  0.2857  0.0357 -0.5282
 6409TIP3    H143422   4.194   2.329  10.715  1.7457  0.3198 -2.6307
 6409TIP3    H243423   4.044   2.350  10.708  1.6801  1.5253  0.4494
 6410TIP3   OH243424   3.025   4.706  10.853  0.0648  0.6327  0.0610
 6410TIP3    H143425   3.090   4.765  10.815  1.0753 -0.3697  0.1580
 6410TIP3    H243426   3.026   4.629  10.795 -0.6539  0.3815  0.3692
 6411TIP3   OH243427   2.236   0.432   8.558  0.1528 -0.4298  0.0603
 6411TIP3    H143428   2.278   0.518   8.557  0.9899 -0.8209 -1.6460
 6411TIP3    H243429   2.144   0.451   8.536 -0.0820  0.1723  1.4293
 6412TIP3   OH243430   4.211   6.527   9.590  0.1028  0.2317 -0.4435
 6412TIP3    H143431   4.211   6.485   9.676  0.2464  0.1616 -0.4788
 6412TIP3    H243432   4.297   6.569   9.583 -0.2814  1.1188 -0.1214
 6413TIP3   OH243433   4.314   5.495  11.158  0.0436 -0.3902 -1.1858
 6413TIP3    H143434   4.311   5.566  11.222 -1.3348 -1.2264 -0.2718
 6413TIP3    H243435   4.227   5.494  11.118  0.2128 -1.2239 -1.5683
 6414TIP3   OH243436   3.748   5.216  11.165 -0.2583 -0.7116  0.5965
 6414TIP3    H143437   3.838   5.246  11.152 -0.9692  0.5494 -2.4755
 6414TIP3    H243438   3.754   5.121  11.164  0.9471 -0.6784 -1.4582
 6415TIP3   OH243439   5.749   3.844   8.885  0.2091  0.0151 -0.1035
 6415TIP3    H143440   5.676   3.841   8.947 -0.5272 -1.7627 -0.9920
 6415TIP3    H243441   5.756   3.754   8.852  1.8211  0.4922 -1.1755
 6416TIP3   OH243442   0.847   5.809   9.881  0.4317  0.1781  0.0596
 6416TIP3    H143443   0.891   5.743   9.827 -2.2183 -1.9186  0.2502
 6416TIP3    H243444   0.771   5.834   9.830 -0.6984  0.1427  1.6603
 6417TIP3   OH243445   5.902   6.639  10.740  0.2638 -0.2200  0.3847
 6417TIP3    H143446   5.941   6.567  10.690  0.4501 -1.2852  1.9752
 6417TIP3    H243447   5.932   6.718  10.695  0.0893 -1.0983 -1.4038
 6418TIP3   OH243448   3.695   0.072   9.802 -0.1610  0.2410  0.9749
 6418TIP3    H143449   3.696   0.140   9.869  3.5879  1.8356 -0.4425
 6418TIP3    H243450   3.734  -0.004   9.844 -1.1042  0.0595  1.5521
 6419TIP3   OH243451   0.450   1.386   9.708  0.0846 -0.3020  0.9436
 6419TIP3    H143452   0.425   1.464   9.759 -1.6649  0.2123 -0.5872
 6419TIP3    H243453   0.510   1.420   9.642 -0.3243 -0.3203  0.5578
 6420TIP3   OH243454   6.792   0.718  11.140 -0.0029  0.6881  0.7222
 6420TIP3    H143455   6.833   0.794  11.181  0.2230  0.2186  1.3802
 6420TIP3    H243456   6.810   0.645  11.200  0.4393 -0.0398 -0.2565
 6421TIP3   OH243457   5.484   5.498   9.473  0.2865 -0.6733  0.2972
 6421TIP3    H143458   5.567   5.494   9.521 -0.0642 -1.2815  0.8741
 6421TIP3    H243459   5.444   5.412   9.489 -0.7594 -0.1435  0.5895
 6422TIP3   OH243460   3.684   1.787  12.042  0.3949  0.0284  0.4360
 6422TIP3    H143461   3.624   1.712  12.033  1.5680 -1.1845  2.1179
 6422TIP3    H243462   3.626   1.861  12.062 -0.7176 -0.6417 -0.1740
 6423TIP3   OH243463   0.003   5.807  11.063 -0.1669 -0.2134  0.7529
 6423TIP3    H143464  -0.023   5.859  10.987  0.7001 -0.1633  0.4878
 6423TIP3    H243465  -0.042   5.723  11.050 -0.6909  0.0847  0.6186
 6424TIP3   OH243466   4.818   3.612  11.765 -0.0888 -0.4085  0.3266
 6424TIP3    H143467   4.880   3.548  11.732 -0.6839 -0.0223 -1.6722
 6424TIP3    H243468   4.864   3.696  11.759  0.0784 -0.4237  1.2824
 6425TIP3   OH243469   1.006   4.177   8.763 -0.2204 -0.2802 -0.8134
 6425TIP3    H143470   1.089   4.133   8.745  0.6444  1.4820 -1.3565
 6425TIP3    H243471   0.949   4.152   8.690 -0.3087 -1.7173 -0.2984
 6426TIP3   OH243472   4.711   2.732  11.109  0.5440  0.0401 -0.2425
 6426TIP3    H143473   4.803   2.711  11.089  1.0294 -0.7729  2.4389
 6426TIP3    H243474   4.715   2.812  11.161  0.0494 -1.3768  2.1184
 6427TIP3   OH243475   1.346   4.437  10.640  0.1715 -0.0274 -0.6175
 6427TIP3    H143476   1.270   4.438  10.699 -2.3725  1.2066 -3.5945
 6427TIP3    H243477   1.348   4.347  10.606 -1.0283  0.3070 -1.6616
 6428TIP3   OH243478   0.248   6.217   9.728 -0.4292  0.5022  0.0300
 6428TIP3    H143479   0.253   6.206   9.823  1.9788 -0.4573 -0.1406
 6428TIP3    H243480   0.294   6.299   9.710 -0.6635  0.5580 -0.3219
 6429TIP3   OH243481   5.442   2.300   9.824  0.4374  0.5218 -0.1699
 6429TIP3    H143482   5.416   2.365   9.758  1.5517 -0.2627 -1.4334
 6429TIP3    H243483   5.534   2.283   9.805  0.1163 -1.5839  0.0107
 6430TIP3   OH243484   2.510   2.726  10.979  0.4883  0.6316 -0.2784
 6430TIP3    H143485   2.472   2.714  11.066  1.4896  0.4324  0.1457
 6430TIP3    H243486   2.435   2.730  10.920 -0.1943  0.6029  0.5765
 6431TIP3   OH243487   2.684   2.934  10.325  0.3042 -0.2959  0.3651
 6431TIP3    H143488   2.752   2.901  10.384  1.0745  0.8990  0.1866
 6431TIP3    H243489   2.719   3.017  10.292 -1.5633  0.7302  0.8254
 6432TIP3   OH243490   3.554   6.002  11.604  0.0476 -0.4354 -0.2632
 6432TIP3    H143491   3.466   6.010  11.567 -0.4490 -0.4194  0.8890
 6432TIP3    H243492   3.609   5.976  11.530 -1.2167 -2.0514 -0.6821
 6433TIP3   OH243493   0.213   3.447   9.883 -0.0194 -0.3754 -0.1297
 6433TIP3    H143494   0.207   3.357   9.916  2.2520 -0.3130  0.6494
 6433TIP3    H243495   0.231   3.499   9.961  1.2668  0.3793 -0.9004
 6434TIP3   OH243496   5.675   1.452  10.438 -0.0066 -0.3728  0.2750
 6434TIP3    H143497   5.728   1.377  10.411  0.1466  0.1756 -1.0192
 6434TIP3    H243498   5.680   1.452  10.533  1.0390 -1.2563  0.2361
 6435TIP3   OH243499   3.186   4.985   8.949  0.0474 -0.2556 -0.2415
 6435TIP3    H143500   3.257   5.042   8.980 -1.0386 -0.0984  2.2036
 6435TIP3    H243501   3.230   4.903   8.926  1.4547  1.0070 -2.5138
 6436TIP3   OH243502   4.961   0.721  11.290 -0.3267  0.2338  0.4396
 6436TIP3    H143503   5.009   0.663  11.231  0.3268  0.1773  1.0104
 6436TIP3    H243504   4.920   0.786  11.233  1.6945  1.2197  0.0220
 6437TIP3   OH243505   3.085   4.719  10.237 -0.4770  0.4567  0.1037
 6437TIP3    H143506   2.995   4.744  10.258  0.0067  1.6728  0.8331
 6437TIP3    H243507   3.112   4.781  10.168 -0.8660 -1.2373 -1.6418
 6438TIP3   OH243508   3.953   5.571  11.319  0.2656 -0.0159  0.3641
 6438TIP3    H143509   3.908   5.496  11.358 -0.9326  0.7745  0.5804
 6438TIP3    H243510   3.910   5.647  11.359 -0.2209  0.8229 -1.6242
 6439TIP3   OH243511   2.982   1.383   9.440 -0.0260 -0.6272  0.2104
 6439TIP3    H143512   2.934   1.402   9.521  1.5079  2.1484  0.6290
 6439TIP3    H243513   2.925   1.416   9.371  0.1713  0.3433  0.4937
 6440TIP3   OH243514   1.852   3.256  12.239  0.3355  0.2438  0.7086
 6440TIP3    H143515   1.807   3.340  12.238  1.0967  0.6718  1.4699
 6440TIP3    H243516   1.937   3.274  12.278 -0.5344 -1.3883  3.7085
 6441TIP3   OH243517   4.396   0.013  10.666  0.3425 -0.5103 -0.3662
 6441TIP3    H143518   4.356  -0.054  10.721  0.8463 -1.0284 -0.6102
 6441TIP3    H243519   4.361   0.096  10.698  0.5675 -0.8083  0.6670
 6442TIP3   OH243520   5.798   5.045  11.393 -0.1162  0.1028 -0.3880
 6442TIP3    H143521   5.863   5.112  11.373 -0.4574  0.5857  0.0889
 6442TIP3    H243522   5.725   5.062  11.333 -1.9879  2.7690  2.3349
 6443TIP3   OH243523   1.568   5.899   9.049 -0.3370 -0.2814  0.2244
 6443TIP3    H143524   1.476   5.922   9.066 -0.0297  0.7887  0.5239
 6443TIP3    H243525   1.617   5.978   9.073  0.6045 -0.6031 -0.5863
 6444TIP3   OH243526   5.876   3.770   9.196 -0.0948  0.0686  0.3981
 6444TIP3    H143527   5.825   3.692   9.217  0.4423  0.2327  2.5182
 6444TIP3    H243528   5.845   3.836   9.258  2.2727  0.3253  1.4098
 6445TIP3   OH243529   1.533   2.168   9.730  0.1407  0.1424 -0.4322
 6445TIP3    H143530   1.585   2.109   9.784 -1.3593 -0.6950  0.1425
 6445TIP3    H243531   1.578   2.253   9.737  1.2586 -0.4836  0.2418
 6446TIP3   OH243532   6.772   4.445   9.031  0.3241  0.0864  0.8382
 6446TIP3    H143533   6.770   4.354   9.062  1.6099 -0.0820  0.5001
 6446TIP3    H243534   6.708   4.447   8.960  1.1434 -0.8898  0.0340
 6447TIP3   OH243535   1.837   5.844  10.340  0.0586 -0.8548  0.2333
 6447TIP3    H143536   1.929   5.819  10.331  0.2689 -0.5837  1.4582
 6447TIP3    H243537   1.790   5.761  10.344 -0.0140 -1.0122 -2.4920
 6448TIP3   OH243538   0.474   5.978   9.305  0.6017 -0.4061 -0.2780
 6448TIP3    H143539   0.483   5.887   9.332 -1.5019 -0.9754 -1.2429
 6448TIP3    H243540   0.475   5.975   9.209 -2.8550  0.0382 -0.4492
 6449TIP3   OH243541   3.632   4.220   9.895 -0.1209  0.0025  0.4997
 6449TIP3    H143542   3.560   4.275   9.864 -0.8556 -0.0582  2.0366
 6449TIP3    H243543   3.601   4.183   9.977  1.2477 -0.9148  0.6359
 6450TIP3   OH243544   2.213   2.282  11.566 -0.5928 -0.8591 -0.4815
 6450TIP3    H143545   2.137   2.264  11.511 -0.6014 -0.9908 -0.4265
 6450TIP3    H243546   2.280   2.221  11.536 -0.7013 -1.1564 -0.1295
 6451TIP3   OH243547   5.982   6.717   9.676 -0.2300  0.4626  0.9962
 6451TIP3    H143548   5.895   6.747   9.703 -0.4676  0.4880  0.2407
 6451TIP3    H243549   6.040   6.792   9.694 -0.9039  1.6830 -1.3470
 6452TIP3   OH243550   4.802   2.973   8.682 -0.0707 -0.4517 -0.2066
 6452TIP3    H143551   4.713   3.006   8.696 -0.0702 -0.0676 -1.0188
 6452TIP3    H243552   4.855   3.052   8.672  0.6643 -0.6197  1.8019
 6453TIP3   OH243553   6.617   5.778  10.016  0.0652 -0.1387 -0.0963
 6453TIP3    H143554   6.671   5.699  10.021  0.5763  0.2657  1.6379
 6453TIP3    H243555   6.527   5.745  10.011  0.2897 -0.8431  0.3517
 6454TIP3   OH243556   0.214   3.175   9.943 -0.2406 -0.5611 -0.1413
 6454TIP3    H143557   0.207   3.099  10.000 -1.0840  0.5164  1.2351
 6454TIP3    H243558   0.164   3.152   9.865 -0.5168 -1.3858  0.2752
 6455TIP3   OH243559   3.671   2.971   9.734  0.0715 -0.3950  0.1665
 6455TIP3    H143560   3.595   2.996   9.681  0.3435 -0.0020 -0.0399
 6455TIP3    H243561   3.662   3.023   9.814 -0.1921 -0.7869  0.3962
 6456TIP3   OH243562   5.864   5.263   9.500 -0.8508  0.0488 -1.1914
 6456TIP3    H143563   5.917   5.341   9.484  1.1415 -0.5575  1.7448
 6456TIP3    H243564   5.923   5.189   9.484 -1.3639 -0.7105  0.1983
 6457TIP3   OH243565   5.604   0.248  10.994  0.5817 -0.2304  0.0319
 6457TIP3    H143566   5.606   0.204  11.079  0.8626  1.0171  0.6961
 6457TIP3    H243567   5.526   0.215  10.952 -0.9186  0.8841  1.7749
 6458TIP3   OH243568   2.848   2.996  10.022 -0.2186  0.6319  0.5612
 6458TIP3    H143569   2.768   3.021   9.976  1.1681  2.8732 -0.8069
 6458TIP3    H243570   2.875   2.914   9.981 -0.8901  0.7704 -0.1709
 6459TIP3   OH243571   3.745   1.966   9.644 -0.2911 -0.0132  0.0645
 6459TIP3    H143572   3.691   1.906   9.696  1.1099 -1.0613  0.3638
 6459TIP3    H243573   3.788   2.021   9.709 -2.1420  1.9231 -0.2290
 6460TIP3   OH243574   0.702   4.527  10.096  0.0784  0.0955 -0.2551
 6460TIP3    H143575   0.754   4.546  10.017 -0.1842  0.5692 -0.3173
 6460TIP3    H243576   0.632   4.470  10.066 -0.8111  1.3496 -0.6437
 6461TIP3   OH243577   0.262   0.771   9.290 -0.1993 -0.8121  0.4599
 6461TIP3    H143578   0.281   0.865   9.284 -2.3171 -0.3814 -0.0450
 6461TIP3    H243579   0.340   0.729   9.252  1.4467  0.6348  2.0544
 6462TIP3   OH243580   1.837   3.593   9.756  0.6314  0.0272  0.6327
 6462TIP3    H143581   1.925   3.614   9.723  1.5378 -2.3875  1.3240
 6462TIP3    H243582   1.788   3.567   9.679  1.3077 -1.0377  0.5491
 6463TIP3   OH243583   1.934   1.014   8.894 -0.1129  0.5576  0.3104
 6463TIP3    H143584   1.874   0.942   8.875  1.2986 -0.2695 -1.3264
 6463TIP3    H243585   2.008   0.973   8.937  0.4585  1.1067 -0.1175
 6464TIP3   OH243586   1.214   2.545   9.853 -0.0126  0.2160 -0.3049
 6464TIP3    H143587   1.277   2.475   9.836 -0.8487 -0.2895 -1.3974
 6464TIP3    H243588   1.168   2.517   9.932 -0.4887 -0.5750 -0.8568
 6465TIP3   OH243589   6.312   3.470  10.483  0.3504 -0.3573  0.0141
 6465TIP3    H143590   6.316   3.375  10.499  0.7816 -0.4218 -0.4465
 6465TIP3    H243591   6.396   3.491  10.443 -0.0413  0.0872 -0.5968
 6466TIP3   OH243592   4.099   2.135   9.611 -0.2032 -0.1857  0.5702
 6466TIP3    H143593   4.090   2.130   9.515  2.9330  1.2796  0.0780
 6466TIP3    H243594   4.147   2.056   9.635  0.1108  0.0504  0.7289
 6467TIP3   OH243595   1.531   2.878   9.948 -0.2534 -0.3308  0.0533
 6467TIP3    H143596   1.559   2.787   9.941 -1.1085 -0.6198  0.2672
 6467TIP3    H243597   1.605   2.923   9.988 -0.2405 -1.1504  0.9954
 6468TIP3   OH243598   6.224   6.205  11.290 -0.3320 -0.4262 -0.1584
 6468TIP3    H143599   6.262   6.222  11.376  1.2594 -1.7058 -0.5514
 6468TIP3    H243600   6.142   6.255  11.289 -0.0037  0.2252  1.7881
 6469TIP3   OH243601   5.471   2.072  10.353  0.0562  0.3121 -0.0064
 6469TIP3    H143602   5.389   2.100  10.311 -0.0501  1.5568  0.9684
 6469TIP3    H243603   5.512   2.154  10.381  0.4434 -0.4312  1.6850
 6470TIP3   OH243604   1.470   1.950   9.209  0.1952  0.0989  0.0443
 6470TIP3    H143605   1.454   2.032   9.162 -1.7254  0.4604  1.2455
 6470TIP3    H243606   1.497   1.977   9.297  2.4778 -0.5807 -0.3866
 6471TIP3   OH243607   1.732   5.601  10.710  0.4893  0.3239 -0.5319
 6471TIP3    H143608   1.794   5.587  10.782  0.9941  1.8655 -0.6167
 6471TIP3    H243609   1.707   5.513  10.681  1.8384 -0.3228  0.1920
 6472TIP3   OH243610   2.830   4.902   9.816  0.0288  0.6388 -0.1926
 6472TIP3    H143611   2.810   4.808   9.814  0.6297  0.5147 -0.3735
 6472TIP3    H243612   2.871   4.919   9.731 -1.6132  1.4081 -0.8727
 6473TIP3   OH243613   2.940   3.037   9.224 -0.2799  0.6552 -0.0245
 6473TIP3    H143614   2.956   3.066   9.314 -0.0563 -1.5052  0.6840
 6473TIP3    H243615   2.845   3.036   9.216 -0.2961  1.2216  0.0483
 6474TIP3   OH243616   6.337   3.013   9.487 -0.2287 -0.2687 -0.4064
 6474TIP3    H143617   6.368   2.978   9.403 -0.3414 -0.7282 -0.2578
 6474TIP3    H243618   6.417   3.040   9.532 -0.2854  1.9294 -1.4953
 6475TIP3   OH243619   4.618   3.189   8.725  0.2599 -0.0658  0.0481
 6475TIP3    H143620   4.616   3.191   8.820  0.7092  2.1810  0.0718
 6475TIP3    H243621   4.648   3.277   8.700  1.7956 -1.1206 -2.1163
 6476TIP3   OH243622   3.679   5.189   9.731 -0.3574 -0.1624  0.1904
 6476TIP3    H143623   3.625   5.262   9.762 -1.0699 -1.4123  2.1396
 6476TIP3    H243624   3.769   5.217   9.746 -0.3525  1.7387 -2.6005
 6477TIP3   OH243625   4.333   3.877  11.635  0.0707  0.2940  0.4458
 6477TIP3    H143626   4.362   3.796  11.678 -0.9317 -0.9274 -1.0617
 6477TIP3    H243627   4.386   3.882  11.556 -2.2592 -0.9132 -1.3318
 6478TIP3   OH243628   2.901   1.413  11.227  0.3125  0.4143  0.1524
 6478TIP3    H143629   2.825   1.357  11.241 -0.6662  1.7030  0.1186
 6478TIP3    H243630   2.955   1.400  11.304 -0.5201  0.3877  0.7404
 6479TIP3   OH243631   2.570   2.961   8.860  0.4582  0.0479 -0.0749
 6479TIP3    H143632   2.647   2.914   8.892  0.0029 -0.2614  0.6177
 6479TIP3    H243633   2.604   3.030   8.804  1.2286 -0.1548  0.1352
 6480TIP3   OH243634   2.186   1.584   9.483  0.3834 -0.4699 -0.4953
 6480TIP3    H143635   2.252   1.602   9.550 -0.7687  2.8626 -0.0935
 6480TIP3    H243636   2.211   1.638   9.409  0.3117 -2.3148 -1.9404
 6481TIP3   OH243637   5.918   1.205  10.344 -0.1091 -0.5104  0.4201
 6481TIP3    H143638   5.996   1.257  10.365 -0.2557  0.4095 -1.1835
 6481TIP3    H243639   5.875   1.193  10.429  1.3203 -0.3119  1.2110
 6482TIP3   OH243640   3.941   1.861   9.486  0.0178  0.1855  0.3994
 6482TIP3    H143641   3.890   1.898   9.557 -1.4264  1.5891 -1.2914
 6482TIP3    H243642   3.880   1.855   9.412  1.5147 -0.9664 -0.8239
 6483TIP3   OH243643   1.682   4.246  11.074 -0.3842  0.3479  0.2997
 6483TIP3    H143644   1.602   4.209  11.108 -0.8261  0.1086 -0.9402
 6483TIP3    H243645   1.740   4.254  11.150 -0.6669 -1.8237  0.7965
 6484TIP3   OH243646   3.580   4.538  10.640  0.5564 -0.1505  0.1687
 6484TIP3    H143647   3.646   4.601  10.671  1.8680 -0.9093 -0.9881
 6484TIP3    H243648   3.625   4.487  10.574 -1.0702 -1.0572 -0.2827
 6485TIP3   OH243649   2.096   4.494   8.802 -0.0229 -0.3401 -0.1820
 6485TIP3    H143650   2.035   4.551   8.848  1.2880 -0.8700  2.3451
 6485TIP3    H243651   2.140   4.551   8.739 -0.4558  0.8939  0.6043
 6486TIP3   OH243652   1.532   0.370   9.533 -0.0386 -0.0500  0.3492
 6486TIP3    H143653   1.504   0.313   9.605  0.0015  0.5904  0.8798
 6486TIP3    H243654   1.450   0.404   9.497 -0.0657 -0.4889 -0.0119
 6487TIP3   OH243655   5.631   4.072   9.020 -0.1570 -0.8956 -0.2248
 6487TIP3    H143656   5.573   3.996   9.011 -1.2501 -0.2706  1.0975
 6487TIP3    H243657   5.622   4.119   8.937 -1.4600 -0.8915 -0.1045
 6488TIP3   OH243658   6.322   6.362   9.870  0.3727 -0.3252 -0.4328
 6488TIP3    H143659   6.353   6.273   9.885  0.7815  0.0284  1.0284
 6488TIP3    H243660   6.363   6.389   9.788 -0.6627 -1.8639 -1.4982
 6489TIP3   OH243661   6.062   2.161  10.676  0.0584 -0.0376 -0.4726
 6489TIP3    H143662   5.971   2.146  10.703  0.1646 -0.0903 -0.1414
 6489TIP3    H243663   6.066   2.255  10.656 -0.3809 -0.2605 -1.6941
 6490TIP3   OH243664   4.513   1.477  10.971 -0.7471 -0.6082 -0.4598
 6490TIP3    H143665   4.520   1.480  10.876 -0.5138 -0.7285 -0.4473
 6490TIP3    H243666   4.421   1.456  10.988 -0.2218 -3.5064 -0.7213
 6491TIP3   OH243667   0.464   2.798  10.777  0.0039 -0.5214  0.9204
 6491TIP3    H143668   0.517   2.754  10.844  0.0884  0.1167  1.2778
 6491TIP3    H243669   0.456   2.734  10.707 -0.0388 -1.1836  1.5162
 6492TIP3   OH243670   1.919   6.074   8.422  0.4577  0.1224  0.0432
 6492TIP3    H143671   1.991   6.042   8.368 -0.3369  0.8222 -1.5169
 6492TIP3    H243672   1.887   5.997   8.468 -0.1212 -0.9747 -2.0714
 6493TIP3   OH243673   4.162   1.805  10.523  0.1171 -0.3322 -0.4537
 6493TIP3    H143674   4.157   1.793  10.428 -2.4341 -2.8710 -0.1242
 6493TIP3    H243675   4.183   1.719  10.557  0.4380  0.4209  1.3550
 6494TIP3   OH243676   3.734   2.341   9.914 -0.5070  0.2771  0.5865
 6494TIP3    H143677   3.780   2.277   9.969 -1.6739  0.7217  2.1529
 6494TIP3    H243678   3.664   2.374   9.970 -1.0702  1.5750 -0.8295
 6495TIP3   OH243679   4.085   4.141  11.881 -0.6402 -0.9654 -0.7337
 6495TIP3    H143680   4.157   4.147  11.818 -0.4649 -2.8009 -0.7539
 6495TIP3    H243681   4.119   4.089  11.953 -0.4489  2.0351  1.5485
 6496TIP3   OH243682   4.165   5.560   9.890  0.3373  0.1088 -0.7525
 6496TIP3    H143683   4.166   5.483   9.947  0.3985 -0.3546 -1.3731
 6496TIP3    H243684   4.206   5.629   9.942 -1.0151  0.1227  0.3548
 6497TIP3   OH243685   5.010   2.068   9.500 -0.8346  0.3233 -0.1717
 6497TIP3    H143686   5.051   2.034   9.579 -0.5145  0.5022 -0.2578
 6497TIP3    H243687   5.039   2.010   9.430 -1.7098 -0.2796 -0.0548
 6498TIP3   OH243688   5.926   3.934   9.837 -0.4176  0.0787 -0.5423
 6498TIP3    H143689   5.933   3.853   9.787  0.4416 -0.4207  0.3366
 6498TIP3    H243690   5.963   3.912   9.923  0.4500  1.5730 -0.4999
 6499TIP3   OH243691   1.628   1.287  10.030  0.4789 -0.4951  0.3853
 6499TIP3    H143692   1.655   1.211   9.979 -0.5546  0.1011 -1.1314
 6499TIP3    H243693   1.562   1.330   9.976  1.1130  1.5580  1.1386
 6500TIP3   OH243694   6.076   3.130  12.094 -0.1628 -0.2120 -0.0711
 6500TIP3    H143695   6.132   3.147  12.170 -0.7026 -0.6578  0.4385
 6500TIP3    H243696   6.138   3.112  12.023  0.3495  0.1579  0.2699
 6501TIP3   OH243697   6.146   4.897   9.023 -0.6477  0.2187  0.5239
 6501TIP3    H143698   6.205   4.862   9.089 -1.1077  1.9254  1.9167
 6501TIP3    H243699   6.188   4.977   8.993 -0.8765 -0.0810 -0.6353
 6502TIP3   OH243700   0.901   0.015  11.772 -0.3497  0.0916  0.0552
 6502TIP3    H143701   0.844   0.087  11.799 -0.7956  0.4424 -1.7061
 6502TIP3    H243702   0.968   0.056  11.718  0.8280 -0.5057  1.0251
 6503TIP3   OH243703   1.195   3.596  10.551  0.2756 -0.3946  0.6427
 6503TIP3    H143704   1.161   3.524  10.497  0.8539 -0.1381 -0.0727
 6503TIP3    H243705   1.278   3.563  10.585  0.0916 -0.4116  1.0795
 6504TIP3   OH243706   1.896   1.800   9.712  0.0756  0.5124 -0.9494
 6504TIP3    H143707   1.901   1.713   9.672  0.9137  0.3821 -0.5882
 6504TIP3    H243708   1.837   1.850   9.655 -1.2464 -0.5846 -0.5830
 6505TIP3   OH243709   1.429   4.152  11.191 -0.7472 -0.2120  0.0313
 6505TIP3    H143710   1.378   4.231  11.171 -0.3177  0.0389 -0.0802
 6505TIP3    H243711   1.459   4.165  11.281  2.3220  1.4314 -1.1169
 6506TIP3   OH243712   4.972   2.751  10.613 -0.0682  0.1431  0.2533
 6506TIP3    H143713   5.018   2.766  10.696  0.4407 -1.6176  0.3493
 6506TIP3    H243714   5.013   2.671  10.578 -1.7619 -0.3894 -0.6159
 6507TIP3   OH243715   2.340   0.893  10.509  0.3395 -0.2181  0.3811
 6507TIP3    H143716   2.266   0.948  10.538  0.4639  0.6125 -0.8243
 6507TIP3    H243717   2.340   0.901  10.414  1.5280 -0.8239  0.3150
 6508TIP3   OH243718   1.275   6.017   8.414 -0.0687  0.3808 -0.0054
 6508TIP3    H143719   1.355   5.965   8.411 -0.6512 -0.4660 -1.5793
 6508TIP3    H243720   1.305   6.108   8.407  0.8652  0.2122  1.4653
 6509TIP3   OH243721   2.369   2.140  10.882 -0.5047 -0.2324 -0.1282
 6509TIP3    H143722   2.277   2.166  10.874 -0.9884 -1.5838  0.7389
 6509TIP3    H243723   2.407   2.206  10.939 -1.2302 -0.3012  0.4574
 6510TIP3   OH243724   2.236   0.347  10.650 -0.4940 -0.2280 -0.2311
 6510TIP3    H143725   2.226   0.441  10.635 -1.0323 -0.2409  0.0320
 6510TIP3    H243726   2.328   0.337  10.675  0.1722 -0.0821 -2.4247
 6511TIP3   OH243727   3.570   3.304   8.724 -0.3952 -0.2375  0.2415
 6511TIP3    H143728   3.625   3.269   8.794 -0.3620  0.5862  0.6262
 6511TIP3    H243729   3.563   3.231   8.661  0.9944 -0.4011  0.2579
 6512TIP3   OH243730   4.707   1.592  11.490 -0.1902  0.3656 -0.2134
 6512TIP3    H143731   4.750   1.509  11.507  1.9542  1.3711 -0.3571
 6512TIP3    H243732   4.701   1.634  11.576  1.7805  1.3817 -0.4999
 6513TIP3   OH243733   3.344   0.318  11.383  0.5671  0.4179  0.3970
 6513TIP3    H143734   3.389   0.309  11.299  2.8658 -1.2085  1.7148
 6513TIP3    H243735   3.356   0.410  11.407 -0.6424  1.0676 -1.2475
 6514TIP3   OH243736   2.530   4.575  10.017  0.0739 -0.0349  0.2166
 6514TIP3    H143737   2.529   4.582  10.113 -0.4691  0.5653  0.1698
 6514TIP3    H243738   2.622   4.591   9.994  0.2887 -0.5822  0.6572
 6515TIP3   OH243739   0.281   3.020  10.849 -0.2143  0.8433  0.1809
 6515TIP3    H143740   0.334   2.941  10.839 -2.0638 -0.2804 -1.4802
 6515TIP3    H243741   0.243   3.013  10.936 -3.2508 -2.1746 -1.1348
 6516TIP3   OH243742   1.553   3.718   9.424  0.0900  0.2023 -0.0850
 6516TIP3    H143743   1.568   3.752   9.512 -1.4210  0.7980 -0.0178
 6516TIP3    H243744   1.562   3.623   9.433 -1.8184  0.0848  1.1530
 6517TIP3   OH243745   6.676   1.329   8.801 -0.1249 -1.0101  0.1856
 6517TIP3    H143746   6.751   1.365   8.754 -1.2884  2.1940  0.5697
 6517TIP3    H243747   6.701   1.335   8.894  0.2480 -2.7379  0.2303
 6518TIP3   OH243748   4.683   3.486   9.440  0.0582 -0.2204 -0.3633
 6518TIP3    H143749   4.592   3.483   9.470 -0.7748 -2.4755 -2.7274
 6518TIP3    H243750   4.717   3.398   9.459  1.1740  0.0458 -1.0533
 6519TIP3   OH243751   6.528   1.280   9.700 -0.2510 -0.6740  0.2641
 6519TIP3    H143752   6.623   1.280   9.689 -0.2987 -0.2953 -0.1864
 6519TIP3    H243753   6.497   1.346   9.638 -0.8145 -0.8537  0.3499
 6520TIP3   OH243754   3.650   5.605   9.799  0.4066 -0.4465 -0.2644
 6520TIP3    H143755   3.679   5.680   9.852  3.1172 -2.2916  1.1245
 6520TIP3    H243756   3.704   5.609   9.720 -1.1845  0.3587 -1.3560
 6521TIP3   OH243757   5.620   5.550   9.006 -0.2504  0.5720  0.2951
 6521TIP3    H143758   5.680   5.565   8.932 -0.2832  1.9891  0.5373
 6521TIP3    H243759   5.540   5.516   8.965  0.3065 -0.2458 -0.1460
 6522TIP3   OH243760   4.589   0.626   9.299  0.3028 -0.1819  0.2049
 6522TIP3    H143761   4.628   0.552   9.251 -0.5262 -0.7483  0.3842
 6522TIP3    H243762   4.639   0.629   9.381 -0.8493 -1.7633  1.0199
 6523TIP3   OH243763   2.895   2.252  10.371  0.2439  0.1827  0.2144
 6523TIP3    H143764   2.810   2.279  10.336  0.0874  0.8526  1.0599
 6523TIP3    H243765   2.874   2.216  10.457  0.6369 -1.2732 -0.2778
 6524TIP3   OH243766   0.171   5.174  10.352 -0.1874  0.3733 -0.2616
 6524TIP3    H143767   0.179   5.123  10.433  1.9161 -1.5681 -1.5854
 6524TIP3    H243768   0.174   5.109  10.282 -1.9641  1.9891 -1.9716
 6525TIP3   OH243769   4.541   1.026   8.713 -0.1669  0.5986 -0.5626
 6525TIP3    H143770   4.557   1.101   8.656 -0.0815  0.5241 -0.6365
 6525TIP3    H243771   4.593   1.043   8.791 -2.3451  2.0640  0.7024
 6526TIP3   OH243772   5.009   0.214   9.017 -0.0052  0.0852  0.4015
 6526TIP3    H143773   4.945   0.156   9.059 -0.7535  0.1950 -0.5481
 6526TIP3    H243774   4.956   0.276   8.967  0.8301  0.6137  0.1551
 6527TIP3   OH243775   0.529   2.274  10.589  0.4675  0.4548 -0.0766
 6527TIP3    H143776   0.469   2.240  10.522  0.2040  2.2656 -0.8312
 6527TIP3    H243777   0.616   2.251  10.557  0.4883  2.9401 -2.1834
 6528TIP3   OH243778   0.959   2.854   8.926  0.1949  0.4676  0.3690
 6528TIP3    H143779   0.995   2.915   8.990 -1.1276  0.1693  1.4588
 6528TIP3    H243780   1.029   2.791   8.911  0.8563  1.0899  0.7981
 6529TIP3   OH243781   1.785   0.300   8.660  0.0224 -0.1578 -0.2638
 6529TIP3    H143782   1.826   0.227   8.708 -0.0199  0.3384  0.5497
 6529TIP3    H243783   1.704   0.264   8.626  0.5890 -0.8385 -0.9352
 6530TIP3   OH243784   2.663   5.348  11.123  0.3927  0.2139 -0.7086
 6530TIP3    H143785   2.569   5.347  11.104  0.1683 -0.9786  0.3731
 6530TIP3    H243786   2.670   5.403  11.201  0.6131  0.3495 -0.8230
 6531TIP3   OH243787   5.103   4.102  10.530 -0.1269  0.2022  0.2695
 6531TIP3    H143788   5.085   4.191  10.559 -0.3936  0.2550 -0.0516
 6531TIP3    H243789   5.103   4.050  10.611 -0.1329  0.4629  0.4389
 6532TIP3   OH243790   5.257   0.394   9.977 -0.4886 -0.0208  0.2037
 6532TIP3    H143791   5.162   0.384   9.967 -0.2437 -0.6304 -1.9787
 6532TIP3    H243792   5.268   0.484  10.008 -1.7598  0.2919 -0.1821
 6533TIP3   OH243793   3.697   4.808   9.378 -0.1912  0.3033 -0.2010
 6533TIP3    H143794   3.716   4.895   9.411  0.5360  0.1128 -0.1110
 6533TIP3    H243795   3.618   4.781   9.426 -2.2500  2.0782 -2.3426
 6534TIP3   OH243796   2.914   4.081   9.268 -0.2217  0.0650 -0.0219
 6534TIP3    H143797   2.918   4.104   9.360 -1.6658 -0.1257  0.1150
 6534TIP3    H243798   3.005   4.069   9.241  0.3060  1.7687  0.9396
 6535TIP3   OH243799   6.483   3.149  10.707  0.1109 -0.3023 -0.3567
 6535TIP3    H143800   6.561   3.147  10.652 -0.1551  1.5360 -0.8719
 6535TIP3    H243801   6.506   3.205  10.780 -0.7870  0.4928 -0.6603
 6536TIP3   OH243802   6.736   6.784   8.746  0.2185  0.0216 -0.3570
 6536TIP3    H143803   6.749   6.720   8.816 -2.1327 -0.5012 -0.3150
 6536TIP3    H243804   6.653   6.826   8.767 -1.1222 -0.8778 -3.3266
 6537TIP3   OH243805   3.657   5.587  11.866  0.4820 -0.2619 -0.6862
 6537TIP3    H143806   3.648   5.497  11.896 -0.9348  0.1118  0.0929
 6537TIP3    H243807   3.723   5.625  11.924 -2.0688  0.3890  2.0123
 6538TIP3   OH243808   5.460   6.452  10.635  0.1798  0.1386  0.2661
 6538TIP3    H143809   5.531   6.504  10.598  0.3642 -1.2013 -1.3900
 6538TIP3    H243810   5.393   6.451  10.566  0.0709 -1.5443  0.3622
 6539TIP3   OH243811   5.769   3.405   8.506  0.0899  0.1211  0.0862
 6539TIP3    H143812   5.822   3.360   8.570 -1.0934 -0.6586  0.5535
 6539TIP3    H243813   5.808   3.492   8.499  1.4343 -0.4403  0.3563
 6540TIP3   OH243814   2.789   3.886  10.902  0.7342  0.0401  0.1502
 6540TIP3    H143815   2.714   3.888  10.961  0.4361  1.5743 -0.2207
 6540TIP3    H243816   2.825   3.798  10.911  1.1349  0.4259  3.1236
 6541TIP3   OH243817   5.197   1.891  11.668  0.2966 -0.1746 -0.1453
 6541TIP3    H143818   5.290   1.899  11.685 -0.1372  2.1524  1.5950
 6541TIP3    H243819   5.175   1.967  11.615 -1.0439  0.8999  1.8321
 6542TIP3   OH243820   2.951   1.672  10.818 -0.1206 -0.2007 -0.0857
 6542TIP3    H143821   2.919   1.696  10.905 -0.6660  1.9924 -0.8122
 6542TIP3    H243822   3.046   1.673  10.826 -0.1705 -0.3338  0.5648
 6543TIP3   OH243823   4.709   6.296  10.026  0.6636 -0.0777 -0.3776
 6543TIP3    H143824   4.687   6.205  10.003 -0.9448 -0.1437  1.2191
 6543TIP3    H243825   4.646   6.349   9.976  0.3609  0.0447  0.1297
 6544TIP3   OH243826   1.037   4.977  11.120 -0.2226  0.3426 -0.7620
 6544TIP3    H143827   0.943   4.994  11.109 -0.3948  0.7960  1.1169
 6544TIP3    H243828   1.043   4.924  11.199  1.1919  1.5112 -0.0323
 6545TIP3   OH243829   1.836   6.102  10.266 -0.3791 -0.3699 -0.0466
 6545TIP3    H143830   1.833   6.015  10.305 -1.4716 -0.2843  0.1180
 6545TIP3    H243831   1.872   6.088  10.179 -0.1590 -0.9210  0.1260
 6546TIP3   OH243832   2.906   3.354   9.610 -0.5717 -0.6811 -0.2102
 6546TIP3    H143833   2.918   3.365   9.516 -2.7662 -0.2110 -0.4961
 6546TIP3    H243834   2.811   3.348   9.622 -0.5157  1.2358  2.1547
 6547TIP3   OH243835   3.740   2.292   8.951 -0.1688 -0.0716 -0.0072
 6547TIP3    H143836   3.690   2.233   9.008  1.7081 -1.8682 -0.0976
 6547TIP3    H243837   3.699   2.378   8.963 -2.8481 -1.3093  0.3530
 6548TIP3   OH243838   6.192   0.701   9.536 -0.5468  0.4805 -0.4243
 6548TIP3    H143839   6.264   0.693   9.599 -0.6009 -1.1494 -0.5178
 6548TIP3    H243840   6.132   0.765   9.575 -0.2379  0.0234  0.8377
 6549TIP3   OH243841   1.702   2.396  10.237  0.0949 -0.4885 -0.5802
 6549TIP3    H143842   1.649   2.347  10.174  0.5626 -1.4318 -0.2481
 6549TIP3    H243843   1.661   2.483  10.239 -0.8508 -0.9072 -1.0406
 6550TIP3   OH243844   2.027   5.025  10.628  0.3093  0.0719  0.7046
 6550TIP3    H143845   2.087   5.033  10.554 -0.3213 -0.6668  0.0917
 6550TIP3    H243846   2.082   5.032  10.706  1.2656 -1.1489  0.1586
 6551TIP3   OH243847   2.228   4.675   9.086  0.5521 -0.4157 -0.2461
 6551TIP3    H143848   2.210   4.584   9.063 -0.0786 -0.2182 -0.5525
 6551TIP3    H243849   2.308   4.697   9.038 -0.5387 -0.1188 -2.0413
 6552TIP3   OH243850   6.177   2.257  10.109 -0.3893 -0.3037  0.3789
 6552TIP3    H143851   6.130   2.312  10.046  1.1142  0.5103 -0.0903
 6552TIP3    H243852   6.184   2.311  10.187 -1.3108 -0.9038  0.8892
 6553TIP3   OH243853   3.074   0.919  11.615 -0.8053 -0.3013 -0.0240
 6553TIP3    H143854   3.117   0.935  11.699 -3.7313 -4.1309  2.6089
 6553TIP3    H243855   3.128   0.852  11.572 -0.9733 -0.7571  0.4550
 6554TIP3   OH243856   0.754   6.610   9.093  1.1589  0.6119 -0.2434
 6554TIP3    H143857   0.764   6.533   9.038 -1.2301  0.3959 -0.4972
 6554TIP3    H243858   0.692   6.584   9.160  0.0024  2.3829 -0.5455
 6555TIP3   OH243859   6.775   6.639   8.993 -0.1233 -0.0634  0.1214
 6555TIP3    H143860   6.856   6.592   9.014  0.3377  0.0079 -1.3859
 6555TIP3    H243861   6.757   6.692   9.071 -0.3801 -2.3006  1.6829
 6556TIP3   OH243862   5.161   4.619  10.199  0.0184 -0.2368 -0.0959
 6556TIP3    H143863   5.211   4.539  10.183 -1.2614 -1.6573  2.4204
 6556TIP3    H243864   5.224   4.679  10.238  0.4428 -0.9596  0.3586
 6557TIP3   OH243865   5.276   4.899  11.875  0.4356  0.7168 -0.1544
 6557TIP3    H143866   5.240   4.812  11.858 -0.9069  1.3478 -0.6556
 6557TIP3    H243867   5.233   4.927  11.956 -0.3159  1.5292 -0.8235
 6558TIP3   OH243868   5.845   5.485  10.588  0.2522 -0.3019 -0.1238
 6558TIP3    H143869   5.758   5.444  10.589  0.8345 -1.7137 -1.7475
 6558TIP3    H243870   5.833   5.567  10.635 -1.9775 -0.4234 -0.3381
 6559TIP3   OH243871   4.522   3.600  11.377  0.0516  0.4073  0.7073
 6559TIP3    H143872   4.447   3.557  11.336  0.5822  1.5830 -1.6792
 6559TIP3    H243873   4.561   3.533  11.433 -1.1336 -1.1321 -0.2315
 6560TIP3   OH243874   2.201   6.587  11.738 -0.5171 -0.0295  0.2551
 6560TIP3    H143875   2.120   6.556  11.777 -0.3230 -1.0312 -0.1060
 6560TIP3    H243876   2.267   6.577  11.807 -0.6351  0.4825  0.4442
 6561TIP3   OH243877   0.865   6.454  10.126 -0.2714  0.0448 -0.5385
 6561TIP3    H143878   0.890   6.370  10.165  1.0685 -0.1635 -1.7297
 6561TIP3    H243879   0.893   6.447  10.035 -1.9701  1.0514 -1.1740
 6562TIP3   OH243880   2.051   5.258  11.082  0.0786 -0.0975 -0.0495
 6562TIP3    H143881   2.137   5.299  11.080 -0.3404  0.7678 -1.5809
 6562TIP3    H243882   2.066   5.173  11.124  1.4252  0.5562  0.8521
 6563TIP3   OH243883   3.928   1.839   8.501 -0.3157  0.2419  0.1889
 6563TIP3    H143884   3.950   1.929   8.480 -1.7365  0.1728 -1.9238
 6563TIP3    H243885   3.991   1.787   8.451  0.2897  0.0313  1.1422
 6564TIP3   OH243886   0.038   2.103   9.169 -0.8776  1.1800 -0.7155
 6564TIP3    H143887  -0.000   2.155   9.239 -0.3205  1.1411 -0.3750
 6564TIP3    H243888  -0.012   2.127   9.091 -1.0117  1.7835 -0.4502
 6565TIP3   OH243889   5.310   5.812  11.811 -0.2753 -0.4959  0.7221
 6565TIP3    H143890   5.399   5.830  11.780 -0.3497  3.2678  2.1390
 6565TIP3    H243891   5.287   5.889  11.863 -4.3186 -1.3845  0.5792
 6566TIP3   OH243892   2.349   3.637  12.558 -0.3432  0.4601 -0.1945
 6566TIP3    H143893   2.364   3.731  12.563  0.2524  0.6360 -3.1019
 6566TIP3    H243894   2.396   3.601  12.633 -0.9732  2.4798  1.2539
 6567TIP3   OH243895   3.842   4.927  10.920 -0.1108  0.1240  0.0999
 6567TIP3    H143896   3.799   4.868  10.858 -1.7097  0.1914  1.0932
 6567TIP3    H243897   3.857   4.874  10.998  0.7420  0.3750  0.1144
 6568TIP3   OH243898   4.736   5.732  10.865  0.2360  0.6269  0.1838
 6568TIP3    H143899   4.803   5.800  10.858 -0.4783  1.2057 -1.4969
 6568TIP3    H243900   4.733   5.692  10.778 -0.0232 -0.9538  0.8689
 6569TIP3   OH243901   6.109   3.221  10.239  0.0249  0.0602  0.3465
 6569TIP3    H143902   6.200   3.249  10.226  0.3538 -0.7595  0.8586
 6569TIP3    H243903   6.113   3.152  10.304 -0.7214 -1.5126 -1.1860
 6570TIP3   OH243904   3.154   3.765  11.844 -0.1967  0.1633  0.1544
 6570TIP3    H143905   3.206   3.761  11.763  1.3808 -1.2911  1.1809
 6570TIP3    H243906   3.087   3.698  11.832  0.3715 -0.4379  0.2304
 6571TIP3   OH243907   3.630   6.224  10.707  0.5478  0.1098 -0.1251
 6571TIP3    H143908   3.674   6.160  10.652 -1.1490 -2.0979  0.9196
 6571TIP3    H243909   3.545   6.237  10.664  0.3613  0.6241  0.3905
 6572TIP3   OH243910   2.184   6.607  10.792 -0.0420  0.5172 -0.1795
 6572TIP3    H143911   2.225   6.545  10.853  0.5989  0.2284 -0.8940
 6572TIP3    H243912   2.244   6.681  10.789 -0.6885  1.0933  0.4836
 6573TIP3   OH243913   3.234   5.848   8.601 -0.0302 -0.5365 -0.4545
 6573TIP3    H143914   3.182   5.923   8.630 -1.8935 -1.8753 -0.1275
 6573TIP3    H243915   3.323   5.882   8.592 -0.0053  0.8681  3.3118
 6574TIP3   OH243916   1.350   0.107   8.975  0.1085 -0.2649 -0.4624
 6574TIP3    H143917   1.284   0.116   8.907 -1.6700  0.4212  1.2650
 6574TIP3    H243918   1.351   0.014   8.997 -2.2884  0.0298  1.2917
 6575TIP3   OH243919   2.649   2.028   8.808 -0.0687  0.0646 -0.0147
 6575TIP3    H143920   2.588   2.100   8.798 -2.6849 -1.9793  0.2831
 6575TIP3    H243921   2.661   2.020   8.903  1.6609  1.1436 -0.0888
 6576TIP3   OH243922   5.539   6.541   8.941  0.3714 -0.1594 -0.0652
 6576TIP3    H143923   5.528   6.620   8.993 -1.8530 -1.1788  1.1672
 6576TIP3    H243924   5.634   6.530   8.932  0.8476  3.8537 -2.3298
 6577TIP3   OH243925   2.852   1.695   8.814  0.3713  0.2445  0.3526
 6577TIP3    H143926   2.933   1.644   8.811  0.5708  0.6202 -1.2357
 6577TIP3    H243927   2.880   1.786   8.820  0.0561  0.3377  0.4628
 6578TIP3   OH243928   5.441   0.088   9.380  0.0581 -0.2896 -0.0821
 6578TIP3    H143929   5.348   0.071   9.394  0.4054 -0.7361  2.0018
 6578TIP3    H243930   5.485   0.007   9.405  0.9149 -1.4980 -4.5800
 6579TIP3   OH243931   2.590   3.936  11.302  0.3069 -0.0103  0.1327
 6579TIP3    H143932   2.517   3.958  11.359  0.4785  0.3205  0.2269
 6579TIP3    H243933   2.549   3.908  11.220  0.0463 -0.9223  0.5604
 6580TIP3   OH243934   5.994   4.840  10.321 -0.1282  0.4951  0.0655
 6580TIP3    H143935   6.037   4.766  10.364  1.3989  1.9535  1.2161
 6580TIP3    H243936   6.066   4.890  10.283 -1.0813  1.5917 -0.3365
 6581TIP3   OH243937   1.855   0.564  10.716  0.5799  0.4283  0.4612
 6581TIP3    H143938   1.896   0.516  10.644 -1.0214 -2.7862  1.4628
 6581TIP3    H243939   1.762   0.564  10.694  0.0905 -0.3873  2.3017
 6582TIP3   OH243940   4.346   2.880  11.103  0.2268  0.0021 -0.0362
 6582TIP3    H143941   4.424   2.899  11.052 -0.3806  0.0459 -0.9693
 6582TIP3    H243942   4.331   2.959  11.154  1.1338 -0.2350  0.6244
 6583TIP3   OH243943   6.627   2.734   9.066 -0.4274 -0.1635 -0.6077
 6583TIP3    H143944   6.693   2.786   9.021  0.3241 -0.2791  0.3203
 6583TIP3    H243945   6.610   2.661   9.006 -0.6751  0.5433 -1.4214
 6584TIP3   OH243946   6.039   0.085  11.247 -0.2499  0.2118 -0.3661
 6584TIP3    H143947   5.945   0.092  11.263 -0.1106  0.0542  0.6413
 6584TIP3    H243948   6.062  -0.001  11.283  0.5627  0.9705  0.9915
 6585TIP3   OH243949   0.386   4.140  10.271  0.8228  0.2633 -0.1937
 6585TIP3    H143950   0.366   4.186  10.353  0.1005 -0.3328 -0.0266
 6585TIP3    H243951   0.322   4.174  10.209 -1.4256 -2.2563  0.5504
 6586TIP3   OH243952   0.157   3.021   9.685  0.7197 -0.2737  0.1124
 6586TIP3    H143953   0.250   2.998   9.689  1.1407  1.3142  0.6011
 6586TIP3    H243954   0.111   2.938   9.683  2.1455 -1.0979  0.2766
 6587TIP3   OH243955   6.680   2.643   9.864 -0.0193 -0.3512 -0.1192
 6587TIP3    H143956   6.624   2.717   9.890  1.9483 -0.0018  4.0449
 6587TIP3    H243957   6.653   2.572   9.922  2.1756 -0.8900  0.3146
 6588TIP3   OH243958   3.793   5.754   9.137  0.2055 -0.1758  0.2214
 6588TIP3    H143959   3.778   5.788   9.225 -1.0234 -1.9048  0.7453
 6588TIP3    H243960   3.800   5.832   9.082  0.7641  0.9340  1.8007
 6589TIP3   OH243961   3.311   0.666   8.994 -0.0625 -0.4091 -0.1513
 6589TIP3    H143962   3.384   0.605   8.987 -0.6531 -1.0174 -1.4147
 6589TIP3    H243963   3.243   0.627   8.939 -1.2786  0.2299  0.8599
 6590TIP3   OH243964   1.502   3.170  10.591 -0.1970  0.1099  0.1384
 6590TIP3    H143965   1.416   3.140  10.621 -1.3742  0.9492 -2.2183
 6590TIP3    H243966   1.531   3.231  10.659 -1.1739 -0.6085  1.2441
 6591TIP3   OH243967   3.914   2.596   9.020  0.1674 -0.1271  0.0370
 6591TIP3    H143968   3.831   2.641   9.035  0.9559  0.4679  3.3051
 6591TIP3    H243969   3.977   2.666   9.001  0.5571 -0.2217  0.9251
 6592TIP3   OH243970   0.154   4.714  10.523  0.0966  0.3369  0.3725
 6592TIP3    H143971   0.223   4.656  10.490 -0.7164 -0.5211  0.1539
 6592TIP3    H243972   0.108   4.661  10.589 -1.2438  0.3795 -0.4902
 6593TIP3   OH243973   6.135   5.219  10.959 -0.2577  0.0037  0.6268
 6593TIP3    H143974   6.094   5.137  10.983  0.6462 -0.5056  0.4809
 6593TIP3    H243975   6.062   5.277  10.936 -0.8534 -1.7446 -2.4185
 6594TIP3   OH243976   1.386   0.787   9.653  0.1824  0.2652  0.2018
 6594TIP3    H143977   1.408   0.867   9.701  3.7487 -1.3126  1.5319
 6594TIP3    H243978   1.450   0.784   9.582 -0.3625 -1.0659 -0.2525
 6595TIP3   OH243979   0.978   4.068  10.398 -0.5081 -0.6148  0.5168
 6595TIP3    H143980   0.987   4.145  10.454 -1.5899  1.1523 -1.5954
 6595TIP3    H243981   0.888   4.038  10.412 -0.7607 -0.2067 -0.1912
 6596TIP3   OH243982   3.171   3.513   9.937  0.3396  0.2435  0.3567
 6596TIP3    H143983   3.137   3.533   9.850 -0.7407 -2.3195  0.1167
 6596TIP3    H243984   3.110   3.555   9.998 -0.4703 -0.2311 -0.1215
 6597TIP3   OH243985   3.442   3.582   9.904 -0.1806 -0.1659  0.0781
 6597TIP3    H143986   3.474   3.548   9.987  0.6856  0.1296 -0.1194
 6597TIP3    H243987   3.352   3.550   9.897  0.5462 -2.3528 -0.0808
 6598TIP3   OH243988   1.972   4.283   8.684 -0.3887 -0.6790  0.2335
 6598TIP3    H143989   1.926   4.325   8.611  0.3494 -1.5380 -0.7651
 6598TIP3    H243990   2.028   4.351   8.721 -0.0485 -0.4841 -0.6275
 6599TIP3   OH243991   2.583   2.843  11.939 -0.2691 -0.3821 -0.6297
 6599TIP3    H143992   2.644   2.909  11.972  0.0788 -0.4935 -1.0472
 6599TIP3    H243993   2.500   2.890  11.931  0.0629  0.1211 -1.2969
 6600TIP3   OH243994   3.996   5.742  10.281 -0.1949  0.4670  0.0273
 6600TIP3    H143995   4.078   5.738  10.329  0.5529  0.2241 -1.2464
 6600TIP3    H243996   3.929   5.744  10.350  0.6545 -2.8778  1.1518
 6601TIP3   OH243997   4.499   4.194   8.743 -0.2742 -0.1979  0.0516
 6601TIP3    H143998   4.486   4.173   8.836 -1.8266 -1.1702 -0.3521
 6601TIP3    H243999   4.470   4.115   8.697  1.0912  0.0282 -1.2566
 6602TIP3   OH244000   6.247   3.044  11.860 -0.5258 -0.4644  0.8428
 6602TIP3    H144001   6.228   2.951  11.850  2.6099 -1.2753  1.2394
 6602TIP3    H244002   6.305   3.065  11.786 -2.0447  1.5239  0.1144
 6603TIP3   OH244003   1.204   3.054   9.698  0.1633  0.1192 -0.6309
 6603TIP3    H144004   1.180   3.067   9.606 -0.7541  0.4848 -0.3562
 6603TIP3    H244005   1.215   2.960   9.707  0.0449  0.0598 -1.0719
 6604TIP3   OH244006   4.229   6.322  11.874 -1.0398  0.4766 -0.0642
 6604TIP3    H144007   4.195   6.279  11.795 -0.7339 -0.4492  0.3018
 6604TIP3    H244008   4.317   6.288  11.884  0.4001  3.4595 -1.4580
 6605TIP3   OH244009   4.448   2.770   9.429  0.5157 -0.0806 -0.4301
 6605TIP3    H144010   4.480   2.824   9.357  0.5858 -1.4606 -1.4704
 6605TIP3    H244011   4.371   2.726   9.394  0.3905 -0.5800  0.4289
 6606TIP3   OH244012   3.860   0.304  10.891 -0.2583 -0.3143 -0.1694
 6606TIP3    H144013   3.908   0.318  10.973  0.1124  0.1095 -0.4526
 6606TIP3    H244014   3.831   0.391  10.865 -1.6192 -0.6264  0.2449
 6607TIP3   OH244015   5.245   1.177  10.350 -0.1246  0.0088  0.1890
 6607TIP3    H144016   5.337   1.202  10.342 -0.1128  0.0002  0.2985
 6607TIP3    H244017   5.235   1.103  10.291  0.3015 -0.9623  1.2814
 6608TIP3   OH244018   1.108   2.478  10.663 -0.2373 -0.0863  0.3818
 6608TIP3    H144019   1.056   2.511  10.590 -1.8104 -0.4455  1.2946
 6608TIP3    H244020   1.173   2.546  10.679 -2.2120  1.7633  1.0088
 6609TIP3   OH244021   0.381   4.803  11.069  0.4233 -0.3416  0.0889
 6609TIP3    H144022   0.343   4.754  10.997  2.5121 -0.3927 -1.0520
 6609TIP3    H244023   0.333   4.774  11.147 -2.0144 -0.1353 -1.2592
 6610TIP3   OH244024   3.121   1.563  17.478 -0.4334  0.4434  0.8151
 6610TIP3    H144025   3.046   1.622  17.475  0.3389  1.3956 -1.4155
 6610TIP3    H244026   3.197   1.621  17.489  0.4538  0.1089 -2.5632
 6611TIP3   OH244027   1.963   0.636   9.112  0.3108  0.1909  0.2200
 6611TIP3    H144028   2.054   0.620   9.136  0.7013  0.1565 -1.2369
 6611TIP3    H244029   1.940   0.565   9.052 -0.3435  0.7884 -0.2587
 6612TIP3   OH244030   4.177   6.745   9.330  0.1101 -0.1170 -0.4286
 6612TIP3    H144031   4.265   6.716   9.306  0.3804  0.0292  0.3552
 6612TIP3    H244032   4.122   6.668   9.314  0.2464  0.0227 -1.6431
 6613TIP3   OH244033   6.357   2.975   8.508 -0.4202 -0.3081  0.5992
 6613TIP3    H144034   6.352   2.893   8.459 -2.2975  0.1012  0.0237
 6613TIP3    H244035   6.429   2.962   8.570  1.6061 -1.0954 -1.7636
 6614TIP3   OH244036   3.524   3.414  10.563  0.2661 -0.2768 -0.0824
 6614TIP3    H144037   3.443   3.436  10.517  1.4534  1.4375 -1.5103
 6614TIP3    H244038   3.507   3.329  10.604 -0.1576 -3.4653 -5.8172
 6615TIP3   OH244039   6.118   0.659   9.924 -0.0957  0.3685 -0.2652
 6615TIP3    H144040   6.028   0.661   9.955  0.0596  0.2868  0.1995
 6615TIP3    H244041   6.143   0.751   9.915 -0.1200  0.3936 -0.0815
 6616TIP3   OH244042   5.375   3.822  11.454 -0.4599 -0.2740  0.1723
 6616TIP3    H144043   5.412   3.738  11.479 -1.9485 -0.7345  0.9346
 6616TIP3    H244044   5.361   3.868  11.537 -0.6989  0.2817 -0.1686
 6617TIP3   OH244045   4.997   0.972  10.775  0.9589 -0.5957  0.2157
 6617TIP3    H144046   4.945   0.951  10.698  0.3736 -1.5275  0.8338
 6617TIP3    H244047   4.934   1.011  10.837  1.2871 -0.4408  0.4565
 6618TIP3   OH244048   3.444   3.112  12.613 -0.1003  0.0635 -0.5201
 6618TIP3    H144049   3.444   3.047  12.543  0.5549  0.3951 -0.8448
 6618TIP3    H244050   3.497   3.073  12.682 -1.9555 -0.8965  0.4378
 6619TIP3   OH244051   3.422   3.082  12.098 -0.1252  0.2374  0.0566
 6619TIP3    H144052   3.355   3.015  12.107  1.3479 -1.1336  1.5958
 6619TIP3    H244053   3.414   3.134  12.179  0.8205 -0.1034  0.3744
 6620TIP3   OH244054   5.181   0.946  10.194 -0.7609 -0.2061 -0.3698
 6620TIP3    H144055   5.105   0.935  10.138 -0.8995 -2.7132  0.1851
 6620TIP3    H244056   5.255   0.916  10.141 -0.6873 -1.1344  0.2155
 6621TIP3   OH244057   6.618   5.750  10.580  0.1148  0.4870 -0.4275
 6621TIP3    H144058   6.527   5.753  10.609  0.2617 -1.5007  0.3813
 6621TIP3    H244059   6.642   5.842  10.569 -0.9329  1.2974  2.7416
 6622TIP3   OH244060   2.496   2.686  10.397 -0.7936  0.3482  0.3797
 6622TIP3    H144061   2.560   2.737  10.346  0.4583 -1.9925 -0.5430
 6622TIP3    H244062   2.425   2.668  10.335 -0.9695  0.5132  0.5347
 6623TIP3   OH244063   2.502   0.597   9.371 -0.5844 -0.0605 -0.4993
 6623TIP3    H144064   2.573   0.661   9.382  0.4345 -1.2916  0.5917
 6623TIP3    H244065   2.462   0.591   9.458 -1.3020 -0.1716 -0.8397
 6624TIP3   OH244066   5.631   0.395  10.518 -0.3053  0.7278 -0.2923
 6624TIP3    H144067   5.607   0.314  10.563 -2.5387  2.0926  1.1669
 6624TIP3    H244068   5.690   0.440  10.578  1.0112  0.2006 -1.1430
 6625TIP3   OH244069   1.245   3.234  10.717  0.1659 -0.0008 -0.2320
 6625TIP3    H144070   1.192   3.184  10.779 -1.1403  0.6383 -0.7858
 6625TIP3    H244071   1.277   3.309  10.767  0.8922 -0.5903  0.2052
 6626TIP3   OH244072   4.886   5.861  11.957 -0.1082 -0.3847 -0.2757
 6626TIP3    H144073   4.919   5.900  12.038  0.7308 -0.2536 -0.6652
 6626TIP3    H244074   4.960   5.809  11.924 -0.5291 -0.6513 -0.8214
 6627TIP3   OH244075   3.437   4.065  11.261 -0.2150 -0.1177  0.4630
 6627TIP3    H144076   3.517   4.024  11.230  0.6093  2.3307 -0.8851
 6627TIP3    H244077   3.428   4.144  11.208 -3.8268 -0.5391  0.1824
 6628TIP3   OH244078   3.572   6.097   8.967  0.2443  0.3520  0.2055
 6628TIP3    H144079   3.636   6.148   9.017 -0.8952  0.9079  1.1349
 6628TIP3    H244080   3.625   6.049   8.903  1.4027  2.4887 -0.5469
 6629TIP3   OH244081   3.167   0.601   9.229 -0.0485  0.2663  0.3875
 6629TIP3    H144082   3.195   0.640   9.146 -0.7040 -1.1283 -0.5445
 6629TIP3    H244083   3.248   0.570   9.269  0.1916  0.0212 -0.2619
 6630TIP3   OH244084   1.955   3.632   8.937 -0.1901 -0.1885  0.2381
 6630TIP3    H144085   1.932   3.540   8.951  0.7130 -0.5559 -0.6346
 6630TIP3    H244086   1.966   3.668   9.026 -0.0383 -1.0450  0.5694
 6631TIP3   OH244087   2.795   2.550  10.599 -0.1121  0.1451  0.3155
 6631TIP3    H144088   2.736   2.483  10.636 -0.5840  0.7894  0.7498
 6631TIP3    H244089   2.737   2.611  10.554  0.2684  0.5149  0.3226
 6632TIP3   OH244090   3.264   3.545  11.184  0.0616  0.6599 -0.2819
 6632TIP3    H144091   3.230   3.541  11.095 -0.1435  0.9331 -0.2151
 6632TIP3    H244092   3.283   3.637  11.199  0.8301  0.5154 -0.3136
 6633TIP3   OH244093   3.385   2.500  10.504 -0.4605  0.1786  0.1268
 6633TIP3    H144094   3.398   2.471  10.594 -0.8276  1.5343  0.6435
 6633TIP3    H244095   3.303   2.459  10.477 -0.3633 -0.2063  0.4166
 6634TIP3   OH244096   2.397   4.064  11.070 -0.0103  0.3345  0.3091
 6634TIP3    H144097   2.358   4.144  11.033 -0.6564 -0.6889 -1.3294
 6634TIP3    H244098   2.322   4.013  11.102  0.1735 -0.5190 -0.5641
 6635TIP3   OH244099   2.996   6.468   9.391  0.4059  0.4815  0.4019
 6635TIP3    H144100   3.074   6.437   9.344 -0.1855 -0.8569  0.2701
 6635TIP3    H244101   2.955   6.388   9.424  0.1916  1.3031  2.2502
 6636TIP3   OH244102   5.562   4.528  10.293  0.3754  0.5679  0.0179
 6636TIP3    H144103   5.607   4.601  10.251  2.0590 -1.9814 -3.0356
 6636TIP3    H244104   5.480   4.518  10.245  0.7110 -0.2558 -0.4003
 6637TIP3   OH244105   2.468   4.996  10.186  0.1017 -0.3570 -0.8155
 6637TIP3    H144106   2.449   4.920  10.240  0.2432 -1.4432 -2.2371
 6637TIP3    H244107   2.533   5.046  10.236 -1.7224  0.1264  1.2238
 6638TIP3   OH244108   2.644   6.407  11.005 -0.2556  0.2739  0.6246
 6638TIP3    H144109   2.632   6.317  11.033  0.0959 -0.2566 -0.8539
 6638TIP3    H244110   2.559   6.434  10.972  0.0566 -0.0844 -0.4841
 6639TIP3   OH244111   5.712   4.618  10.722  0.2063  0.2002  0.0479
 6639TIP3    H144112   5.762   4.676  10.664  0.3873 -0.6464 -0.6654
 6639TIP3    H244113   5.657   4.567  10.662 -0.9704  0.5824  0.7630
 6640TIP3   OH244114   0.650   3.608   8.756 -0.0841 -0.0866 -0.1172
 6640TIP3    H144115   0.614   3.622   8.843  2.1424 -0.5200  0.9440
 6640TIP3    H244116   0.744   3.621   8.766  0.1742  0.6607 -2.6499
 6641TIP3   OH244117   5.774   3.590  10.801 -0.1024  0.0298 -0.2237
 6641TIP3    H144118   5.752   3.498  10.810 -0.2655  0.0801 -0.1129
 6641TIP3    H244119   5.868   3.595  10.823 -0.2923  0.0203  0.6141
 6642TIP3   OH244120   1.306   4.113   9.526  0.0776  0.9874 -0.0390
 6642TIP3    H144121   1.224   4.129   9.478 -1.5333 -1.0251  1.8801
 6642TIP3    H244122   1.354   4.051   9.471 -2.0744 -1.8722  1.0845
 6643TIP3   OH244123   1.528   5.317  10.971 -0.0557  0.7099  0.8933
 6643TIP3    H144124   1.485   5.232  10.959  1.4245 -0.3746  2.5813
 6643TIP3    H244125   1.620   5.299  10.952  0.2767  1.9419  1.2656
 6644TIP3   OH244126   1.246   6.794  11.092 -0.3583  0.3429 -0.9508
 6644TIP3    H144127   1.259   6.699  11.093 -0.8215  0.2754 -1.1391
 6644TIP3    H244128   1.151   6.805  11.095 -0.2938  0.8253  0.9774
 6645TIP3   OH244129   1.335   3.024  10.061  0.0398 -0.1093 -0.3138
 6645TIP3    H144130   1.246   3.000  10.037 -0.5497 -0.7242  2.2445
 6645TIP3    H244131   1.390   2.954  10.025 -0.7815 -1.0151  0.1820
 6646TIP3   OH244132   5.567   2.414   9.131 -0.3768 -0.1780 -0.7117
 6646TIP3    H144133   5.500   2.352   9.158 -0.4824  0.0191 -0.5221
 6646TIP3    H244134   5.591   2.461   9.211 -2.6266  2.3348 -1.3447
 6647TIP3   OH244135   4.482   0.074  10.348  0.1062  0.4928 -0.0212
 6647TIP3    H144136   4.468   0.160  10.310 -1.5439  0.7826  1.0983
 6647TIP3    H244137   4.414   0.067  10.415  0.9839 -1.1899  0.7486
 6648TIP3   OH244138   5.378   0.744   9.000  0.5655  0.1696  0.0570
 6648TIP3    H144139   5.311   0.792   8.951  1.2488  0.2074 -0.8753
 6648TIP3    H244140   5.447   0.808   9.015  0.2934  0.2058  1.2607
 6649TIP3   OH244141   5.693   4.119   9.301 -0.4666 -0.0732  0.1409
 6649TIP3    H144142   5.684   4.214   9.295 -0.2003  0.0558  1.4479
 6649TIP3    H244143   5.718   4.091   9.213 -0.8490  1.0287 -0.3266
 6650TIP3   OH244144   4.078   3.880  11.476  0.5063 -0.6987 -0.6268
 6650TIP3    H144145   4.154   3.898  11.532  1.5054  0.6590 -2.3374
 6650TIP3    H244146   4.112   3.827  11.404  0.3853  1.6657 -2.5497
 6651TIP3   OH244147   2.655   0.322   9.031 -0.4409  0.2892 -0.3443
 6651TIP3    H144148   2.652   0.382   9.105 -0.1971  0.4783 -0.4857
 6651TIP3    H244149   2.734   0.270   9.045 -0.5489  0.1305 -0.3218
 6652TIP3   OH244150   5.525   6.504  11.044 -0.1215 -0.3382  0.0116
 6652TIP3    H144151   5.592   6.499  10.975  0.6733  1.3983  0.6119
 6652TIP3    H244152   5.458   6.562  11.007 -1.4231 -2.1313 -0.6215
 6653TIP3   OH244153   0.872   5.871  11.088  0.1092  0.0678  0.2974
 6653TIP3    H144154   0.826   5.955  11.092  1.0390  0.5697  0.9290
 6653TIP3    H244155   0.903   5.864  10.998 -1.2925 -0.3532 -0.1847
 6654TIP3   OH244156   4.659   5.502  10.999 -0.0398  0.5067  0.0495
 6654TIP3    H144157   4.704   5.580  10.967  0.5581  0.6877  1.2816
 6654TIP3    H244158   4.690   5.491  11.089 -0.7385 -0.6820  0.1711
 6655TIP3   OH244159   1.910   4.801   9.531  0.2357 -0.0904  0.1949
 6655TIP3    H144160   2.000   4.829   9.551 -0.2812  1.6916  0.2167
 6655TIP3    H244161   1.885   4.746   9.605  1.5224 -1.1801 -0.1368
 6656TIP3   OH244162   2.950   4.955   9.555  0.0236  0.0004 -0.6413
 6656TIP3    H144163   3.037   4.994   9.562  1.0809 -2.1360 -1.0187
 6656TIP3    H244164   2.889   5.029   9.558  1.6181  1.3841  3.1845
 6657TIP3   OH244165   0.964   0.520  10.794 -0.0146  0.4860  0.4957
 6657TIP3    H144166   0.900   0.518  10.865  1.0321  1.5784  1.5113
 6657TIP3    H244167   1.044   0.482  10.832  0.5130  0.9476 -0.1293
 6658TIP3   OH244168   0.375   0.325   8.735  0.2614 -0.0098 -0.2736
 6658TIP3    H144169   0.310   0.395   8.744  0.9455  0.8026 -1.3019
 6658TIP3    H244170   0.323   0.246   8.721 -0.5229  0.3306  0.6000
 6659TIP3   OH244171   6.078   4.997  11.115  0.1682  0.1509  0.3989
 6659TIP3    H144172   6.150   4.949  11.074  0.7474  0.5528  0.9195
 6659TIP3    H244173   6.027   4.931  11.160 -0.3322 -0.2667 -0.7442
 6660TIP3   OH244174   2.737   4.060  11.660  0.4220  0.1160  0.3074
 6660TIP3    H144175   2.795   4.001  11.612 -0.0594 -1.0795  1.1502
 6660TIP3    H244176   2.649   4.026  11.644 -0.0199  1.4730 -0.3524
 6661TIP3   OH244177   1.698   0.837  10.680  0.5364  0.4696  0.1828
 6661TIP3    H144178   1.781   0.824  10.636 -0.3413  1.8843 -2.0524
 6661TIP3    H244179   1.637   0.779  10.633 -0.4005  1.9330 -0.4656
 6662TIP3   OH244180   6.424   2.106  11.161 -0.5458  0.4653 -0.0620
 6662TIP3    H144181   6.332   2.081  11.150 -1.0483  0.7135  2.8427
 6662TIP3    H244182   6.422   2.197  11.190  0.6779  0.6559 -0.5009
 6663TIP3   OH244183   6.389   2.383  10.462  0.1015 -0.1513  0.3438
 6663TIP3    H144184   6.357   2.471  10.444 -0.6930 -0.3158  0.8795
 6663TIP3    H244185   6.402   2.381  10.557 -0.2494 -0.7177  0.3908
 6664TIP3   OH244186   3.657   3.226  12.430 -0.5078  0.1350 -0.0193
 6664TIP3    H144187   3.654   3.172  12.509  2.4904 -0.0264  0.0759
 6664TIP3    H244188   3.674   3.315  12.462 -0.2507  0.2396 -0.4406
 6665TIP3   OH244189   0.832   4.511  10.955 -0.0117 -0.1363  0.3021
 6665TIP3    H144190   0.884   4.548  11.026 -1.2195  2.1569  0.0827
 6665TIP3    H244191   0.743   4.507  10.989 -0.7108  1.4716 -1.1539
 6666TIP3   OH244192   4.272   3.221  10.415  0.0683  0.0234 -0.5441
 6666TIP3    H144193   4.343   3.243  10.354  1.8388  1.6765  1.9318
 6666TIP3    H244194   4.201   3.280  10.389  1.3914  1.9333 -0.0347
 6667TIP3   OH244195   4.793   4.187  11.124  0.1922  0.1761  0.3408
 6667TIP3    H144196   4.788   4.206  11.218 -1.4570 -0.7506  0.4750
 6667TIP3    H244197   4.714   4.226  11.088  0.4385 -0.1385 -0.5529
 6668TIP3   OH244198   2.253   4.379  10.354 -0.2230 -0.2968  0.1903
 6668TIP3    H144199   2.234   4.326  10.431  0.3789 -1.4403 -0.4138
 6668TIP3    H244200   2.200   4.339  10.284 -1.5375  1.3280  0.1808
 6669TIP3   OH244201   5.234   5.697   9.002  0.0108 -0.1310  0.4431
 6669TIP3    H144202   5.300   5.693   9.071 -0.2106  0.3606  0.6831
 6669TIP3    H244203   5.153   5.720   9.047 -0.3391 -0.7526  0.1532
 6670TIP3   OH244204   5.238   2.578   9.912  0.2185 -0.1528  0.7012
 6670TIP3    H144205   5.275   2.573   9.824  0.4426  1.7430  0.6434
 6670TIP3    H244206   5.150   2.543   9.904 -0.0313  0.7054 -0.4557
 6671TIP3   OH244207   4.153   1.318   9.969 -0.0604 -0.0307  0.0185
 6671TIP3    H144208   4.168   1.227   9.996  0.1331  0.1867  0.6676
 6671TIP3    H244209   4.130   1.312   9.877 -1.6072 -0.8860  0.4219
 6672TIP3   OH244210   4.533   5.404   9.972 -0.2100  0.4852  0.0589
 6672TIP3    H144211   4.584   5.399   9.891 -0.1543  1.4025  0.0213
 6672TIP3    H244212   4.493   5.318   9.981  0.1523  0.2284 -0.7041
 6673TIP3   OH244213   5.452   2.947   9.735  0.4413  0.1325  0.6418
 6673TIP3    H144214   5.369   2.901   9.744  0.4072 -0.1506 -0.7671
 6673TIP3    H244215   5.428   3.037   9.713  0.4524 -0.2533 -1.1319
 6674TIP3   OH244216   2.162   3.312  10.297  0.0524 -0.2782  0.0629
 6674TIP3    H144217   2.251   3.338  10.321  0.3754 -2.6561  1.7817
 6674TIP3    H244218   2.163   3.311  10.201  2.0370 -0.7311  0.0373
 6675TIP3   OH244219   1.126   2.001  10.775 -0.5098 -0.2274 -0.7499
 6675TIP3    H144220   1.152   1.922  10.821  1.2535  0.3616 -0.6195
 6675TIP3    H244221   1.079   2.053  10.840 -0.3362 -0.5240 -0.3855
 6676TIP3   OH244222   2.093   5.649  11.864 -0.6058 -0.4222 -0.0436
 6676TIP3    H144223   2.001   5.633  11.845 -0.6451 -0.5007  0.2076
 6676TIP3    H244224   2.106   5.613  11.952 -0.7680  1.1301  0.6514
 6677TIP3   OH244225   4.339   0.859  11.213  0.1177  0.2293  0.0627
 6677TIP3    H144226   4.262   0.902  11.177 -0.2413 -1.1384 -0.8781
 6677TIP3    H244227   4.410   0.881  11.152 -0.4997 -2.1260 -1.6689
 6678TIP3   OH244228   2.962   3.569  11.840  0.5001  0.2055  0.3259
 6678TIP3    H144229   2.878   3.586  11.797  0.6168  0.0751  0.0373
 6678TIP3    H244230   3.002   3.500  11.787  1.0695  0.7107  0.0792
 6679TIP3   OH244231   5.143   6.271  10.695 -0.4541 -0.6534  0.1580
 6679TIP3    H144232   5.162   6.364  10.698  0.6133 -0.8238 -0.8988
 6679TIP3    H244233   5.171   6.243  10.608  1.4355 -2.4157  1.2494
 6680TIP3   OH244234   2.029   2.953   9.691  0.0088  0.2166 -0.0966
 6680TIP3    H144235   1.984   3.000   9.762  0.7338 -0.0747  0.5633
 6680TIP3    H244236   1.964   2.950   9.620 -0.8963  0.0991  0.7138
 6681TIP3   OH244237   3.836   6.157   9.069 -0.5363 -0.5385  0.2047
 6681TIP3    H144238   3.902   6.182   9.133  0.9153  0.6893 -1.6454
 6681TIP3    H244239   3.884   6.148   8.986 -2.6058  0.0506 -1.1610
 6682TIP3   OH244240   3.177   5.564   9.775  0.0893 -0.1335  0.3011
 6682TIP3    H144241   3.139   5.583   9.689 -1.9740 -0.9552  0.9612
 6682TIP3    H244242   3.253   5.622   9.782 -0.2004  0.5504 -1.7098
 6683TIP3   OH244243   0.960   6.606   9.398 -0.3986  0.0690 -0.1995
 6683TIP3    H144244   0.955   6.639   9.308  0.0728 -0.2334 -0.3416
 6683TIP3    H244245   1.021   6.532   9.393 -0.6663 -0.1903  0.2992
 6684TIP3   OH244246   4.412   3.616  11.747  0.7198  0.0135 -0.6486
 6684TIP3    H144247   4.474   3.605  11.819  0.4201 -1.8956 -0.6291
 6684TIP3    H244248   4.328   3.634  11.791  0.6053 -0.8142 -0.4973
 6685TIP3   OH244249   5.238   3.985   9.516 -0.3543 -0.2793 -0.0175
 6685TIP3    H144250   5.201   3.918   9.573 -2.4102  0.1757 -0.7212
 6685TIP3    H244251   5.258   4.058   9.574  3.4756 -1.8964  1.0594
 6686TIP3   OH244252   1.153   5.162   9.110  0.1610  0.4238 -1.1537
 6686TIP3    H144253   1.058   5.149   9.109 -0.4882  4.2544 -1.3665
 6686TIP3    H244254   1.178   5.149   9.202 -0.8897  1.1356 -0.7491
 6687TIP3   OH244255   6.221   4.729   8.819 -0.2832 -0.6330 -0.6641
 6687TIP3    H144256   6.225   4.797   8.886 -0.7844  0.8444 -2.0668
 6687TIP3    H244257   6.309   4.724   8.783 -0.2196 -0.8135 -0.4843
 6688TIP3   OH244258   3.826   3.083  13.033  0.6108 -0.4597  0.3952
 6688TIP3    H144259   3.820   3.036  13.116  1.9688  1.4123  1.6446
 6688TIP3    H244260   3.796   3.172  13.055  1.2910  0.1429 -1.0483
 6689TIP3   OH244261   3.129   4.469   9.046  0.2265 -0.7124  0.6263
 6689TIP3    H144262   3.145   4.523   9.123 -1.2137  2.8229 -1.3312
 6689TIP3    H244263   3.210   4.420   9.033  1.5127  0.6965  2.7801
 6690TIP3   OH244264   4.449   2.882   9.677 -0.0649  0.2506  0.3038
 6690TIP3    H144265   4.429   2.834   9.597  0.1325 -1.6700  1.3682
 6690TIP3    H244266   4.434   2.819   9.747  0.9877  1.5173  1.7132
 6691TIP3   OH244267   1.597   3.834  11.615  0.0084  0.0436 -0.2309
 6691TIP3    H144268   1.504   3.858  11.619  0.2732  0.9825  0.4476
 6691TIP3    H244269   1.613   3.819  11.522 -1.0220 -0.9758 -0.2694
 6692TIP3   OH244270   5.554   4.437  10.561 -0.4081  0.2796  0.1808
 6692TIP3    H144271   5.564   4.469  10.471 -2.1172  0.5997  0.0799
 6692TIP3    H244272   5.578   4.345  10.556 -2.5352 -0.2635 -1.0769
 6693TIP3   OH244273   4.622   1.319  10.247 -0.4191 -0.4032  0.2045
 6693TIP3    H144274   4.715   1.325  10.269 -0.6190  1.2610  0.7616
 6693TIP3    H244275   4.586   1.260  10.313  0.4610 -2.2896 -0.9201
 6694TIP3   OH244276   4.663   0.876  10.073 -0.0983 -0.4481 -0.0337
 6694TIP3    H144277   4.712   0.925  10.007 -1.1693  0.4690 -0.1981
 6694TIP3    H244278   4.706   0.898  10.156  0.3822 -0.4610 -0.2762
 6695TIP3   OH244279   1.357   5.898  12.050 -0.4560  0.2173  0.2479
 6695TIP3    H144280   1.444   5.868  12.079  0.7930  0.1761 -3.1175
 6695TIP3    H244281   1.325   5.829  11.993 -1.3214  1.5756 -0.9835
 6696TIP3   OH244282   6.605   2.407  10.677  0.1319  0.4482  0.5014
 6696TIP3    H144283   6.608   2.315  10.649  1.2011  0.8923 -0.9797
 6696TIP3    H244284   6.629   2.405  10.769 -0.2833 -0.7946  0.6015
 6697TIP3   OH244285   3.443   3.623   9.075 -0.3586 -0.4680  0.1942
 6697TIP3    H144286   3.537   3.643   9.080 -0.8055  1.5995  1.6140
 6697TIP3    H244287   3.434   3.540   9.124  1.1204 -2.7790 -3.0860
 6698TIP3   OH244288   5.933   3.601   8.520  0.0636 -0.4491 -0.0621
 6698TIP3    H144289   6.007   3.559   8.478  1.2576 -0.4774  1.9320
 6698TIP3    H244290   5.969   3.638   8.601 -2.4455 -2.4554  2.1710
 6699TIP3   OH244291   2.112   5.337  11.341  0.0557 -0.3246 -0.2800
 6699TIP3    H144292   2.060   5.340  11.261  0.8025  0.1229 -0.7565
 6699TIP3    H244293   2.074   5.265  11.392 -0.6693 -0.3590 -0.8553
 6700TIP3   OH244294   0.323   3.308   9.369  0.9130  0.3135  0.2088
 6700TIP3    H144295   0.313   3.370   9.441  2.2701 -1.0415  1.6547
 6700TIP3    H244296   0.404   3.335   9.325  0.8703  0.2783  0.1084
 6701TIP3   OH244297   0.334   0.179  10.156 -0.0227 -0.1848  0.5702
 6701TIP3    H144298   0.291   0.100  10.122  0.5988  0.3361 -1.5782
 6701TIP3    H244299   0.263   0.242  10.167 -0.2712 -0.4156  0.3264
 6702TIP3   OH244300   3.236   5.885  11.891 -0.6740 -0.2378 -0.0342
 6702TIP3    H144301   3.145   5.884  11.920 -0.7948  1.4604 -0.2581
 6702TIP3    H244302   3.253   5.976  11.866  1.5506 -0.1552  1.4382
 6703TIP3   OH244303   0.370   0.923  10.043 -0.0303  0.1539  0.2924
 6703TIP3    H144304   0.324   0.991   9.994 -0.5252 -0.3749  0.0072
 6703TIP3    H244305   0.300   0.866  10.076  0.3929 -0.3822  0.2769
 6704TIP3   OH244306   1.242   3.465   9.421  0.1404  0.7031  0.0347
 6704TIP3    H144307   1.260   3.457   9.327  0.5738 -1.9303  0.2612
 6704TIP3    H244308   1.149   3.443   9.428  0.8983 -2.8514  0.4929
 6705TIP3   OH244309   4.121   5.058  11.607  0.0739  0.2156 -0.1329
 6705TIP3    H144310   4.037   5.054  11.561  0.3023 -1.3352 -0.4666
 6705TIP3    H244311   4.102   5.022  11.694 -0.2344  2.6418  0.8844
 6706TIP3   OH244312   0.239   5.167  11.391 -0.0489 -0.1677  0.2609
 6706TIP3    H144313   0.158   5.194  11.347 -0.3429  1.9500  1.9126
 6706TIP3    H244314   0.293   5.130  11.322 -2.1215 -0.9515 -1.0348
 6707TIP3   OH244315   5.698   6.773   9.029 -0.3327 -0.3538 -0.2648
 6707TIP3    H144316   5.771   6.742   9.082 -1.4115 -2.1117  0.2857
 6707TIP3    H244317   5.720   6.745   8.940 -0.0538 -0.3294 -0.2041
 6708TIP3   OH244318   0.566   6.050  10.301  0.3513  0.2245  0.5384
 6708TIP3    H144319   0.539   6.118  10.361 -0.1205  0.3875  0.1463
 6708TIP3    H244320   0.657   6.031  10.325  0.1098  0.1478  1.4197
 6709TIP3   OH244321   4.174   5.228   8.662 -0.4369  0.0533  0.7672
 6709TIP3    H144322   4.089   5.230   8.618 -0.5850  0.1698  1.0529
 6709TIP3    H244323   4.227   5.293   8.615 -1.0911  1.3388  1.7370
 6710TIP3   OH244324   4.503   6.008   9.395 -0.2272  0.3180  0.0666
 6710TIP3    H144325   4.450   6.084   9.419  0.0171  0.7893 -0.8605
 6710TIP3    H244326   4.521   5.964   9.478 -2.3189 -0.0226  0.3806
 6711TIP3   OH244327   1.856   6.303  10.456  0.5660  0.4620  0.3228
 6711TIP3    H144328   1.951   6.318  10.457  0.5440  1.0937 -1.7530
 6711TIP3    H244329   1.843   6.244  10.381 -0.6348 -0.1535  0.9860
 6712TIP3   OH244330   3.160   2.088  10.945  0.2286 -0.1512 -0.1987
 6712TIP3    H144331   3.120   2.043  11.020  1.4759 -2.8609 -1.0783
 6712TIP3    H244332   3.252   2.099  10.970  0.6304 -0.9771 -1.2519
 6713TIP3   OH244333   0.168   6.063  10.247  0.7065  0.1693 -0.4307
 6713TIP3    H144334   0.076   6.069  10.273  1.0490 -0.4960  1.0402
 6713TIP3    H244335   0.202   5.990  10.297  1.6937 -0.5810 -2.1058
 6714TIP3   OH244336   5.621   2.540   8.480  0.2648 -0.2492 -0.7841
 6714TIP3    H144337   5.659   2.623   8.450  0.2143 -0.0553 -0.3195
 6714TIP3    H244338   5.696   2.491   8.513  0.1584  0.0285 -0.1085
 6715TIP3   OH244339   1.140   1.791   8.790 -0.3651  0.3619 -0.4569
 6715TIP3    H144340   1.049   1.814   8.808 -0.4057 -1.3189  2.0763
 6715TIP3    H244341   1.191   1.860   8.832 -0.4928  0.1390  0.0723
 6716TIP3   OH244342   4.169   4.378   8.509  0.0443  0.1832 -0.1473
 6716TIP3    H144343   4.257   4.397   8.540  0.7544 -1.1364 -1.2448
 6716TIP3    H244344   4.159   4.283   8.519 -0.8609  0.1644 -0.9871
 6717TIP3   OH244345   5.144   0.094   9.444  0.0956 -0.1657 -0.3325
 6717TIP3    H144346   5.100   0.041   9.377  0.7765 -0.3171 -0.6737
 6717TIP3    H244347   5.177   0.029   9.507  0.5616 -0.1239 -0.5279
 6718TIP3   OH244348   4.077   5.563   8.885  0.2751 -0.2390  0.3946
 6718TIP3    H144349   4.015   5.520   8.945 -0.0669 -0.0498  0.1772
 6718TIP3    H244350   4.162   5.525   8.909 -0.1242 -1.7133 -0.3823
 6719TIP3   OH244351   4.524   4.341  11.042  0.1312 -0.2651  0.3048
 6719TIP3    H144352   4.468   4.267  11.021  1.1433 -0.6087 -1.3932
 6719TIP3    H244353   4.518   4.399  10.966  2.0677 -0.3463  0.0233
 6720TIP3   OH244354   3.217   3.686  12.103 -0.0942 -0.8425  0.1253
 6720TIP3    H144355   3.215   3.730  12.018  1.0348 -1.6135 -0.3309
 6720TIP3    H244356   3.217   3.592  12.082 -2.1054 -1.1069  1.0670
 6721TIP3   OH244357   2.984   0.957  11.022 -0.4641  0.0343  0.2962
 6721TIP3    H144358   3.023   1.031  10.975  0.4330  0.7365  2.0389
 6721TIP3    H244359   2.979   0.887  10.957  1.5568  0.6759 -0.6461
 6722TIP3   OH244360   4.924   4.962   8.502 -0.3721  0.6009  0.2998
 6722TIP3    H144361   4.849   4.987   8.556  0.5388  1.0137  1.4356
 6722TIP3    H244362   4.897   4.881   8.459 -1.0353  0.0794  1.6290
 6723TIP3   OH244363   4.275   0.936   8.826 -0.1705  0.3091 -0.2091
 6723TIP3    H144364   4.299   0.844   8.838 -0.4287  0.2207 -0.3506
 6723TIP3    H244365   4.355   0.978   8.796  0.3269  0.4299  1.2529
 6724TIP3   OH244366   4.800   4.189  10.555  0.1422  0.3397 -0.5841
 6724TIP3    H144367   4.785   4.102  10.519  0.0283  0.1174 -0.0124
 6724TIP3    H244368   4.842   4.173  10.640  0.5069  0.8539 -0.6646
 6725TIP3   OH244369   5.572   3.023  11.907  0.4668  0.1517  0.5095
 6725TIP3    H144370   5.660   3.052  11.932 -0.1548  3.1428 -0.3978
 6725TIP3    H244371   5.520   3.033  11.986  0.6352 -0.4109  0.7026
 6726TIP3   OH244372   2.084   5.465   8.855  0.1693 -0.1255 -0.1156
 6726TIP3    H144373   2.051   5.543   8.898  0.4941 -0.7761  1.3656
 6726TIP3    H244374   2.036   5.462   8.772 -2.0994  0.0110  1.0998
 6727TIP3   OH244375   1.299   5.106   9.335 -0.4046 -0.2684 -0.2302
 6727TIP3    H144376   1.323   5.103   9.428  1.4357 -0.0292 -0.6676
 6727TIP3    H244377   1.312   5.017   9.304 -1.1255 -0.3725 -0.2543
 6728TIP3   OH244378   0.691   2.449   8.969  0.0469 -0.3997 -0.1102
 6728TIP3    H144379   0.691   2.357   8.943  1.1591 -0.0130 -1.5797
 6728TIP3    H244380   0.774   2.483   8.938 -0.1604  1.0159  0.7992
 6729TIP3   OH244381   4.701   0.164   9.547  0.7844  0.3094 -0.7114
 6729TIP3    H144382   4.742   0.226   9.607  0.2522 -0.8127  0.8791
 6729TIP3    H244383   4.749   0.083   9.560 -0.0602 -0.2454 -0.9835
 6730TIP3   OH244384   6.725   0.027   9.187 -0.4650 -0.0161  0.2075
 6730TIP3    H144385   6.752  -0.026   9.262 -1.1555  0.7342  1.0006
 6730TIP3    H244386   6.718   0.116   9.221 -3.0160  0.0036 -0.1562
 6731TIP3   OH244387   1.006   0.382  11.434  0.3548  0.1668  0.3770
 6731TIP3    H144388   1.060   0.460  11.438  2.6266 -1.3723  2.5699
 6731TIP3    H244389   1.047   0.327  11.367 -0.7175  0.4458 -0.5408
 6732TIP3   OH244390   1.879   0.646  11.506  0.7688  0.6175 -0.0877
 6732TIP3    H144391   1.939   0.588  11.459 -0.9130 -1.5316  0.2593
 6732TIP3    H244392   1.901   0.633  11.599  0.7857  1.0398 -0.0280
 6733TIP3   OH244393   4.602   6.618  10.629  0.5905  0.1922  0.2732
 6733TIP3    H144394   4.540   6.546  10.632 -0.2575  0.9322  1.8954
 6733TIP3    H244395   4.549   6.695  10.611  1.3386  0.5717 -0.3661
 6734TIP3   OH244396   3.045   2.486  10.431 -0.2448  0.9067  0.1900
 6734TIP3    H144397   3.020   2.406  10.384 -0.9938  2.0685 -1.5057
 6734TIP3    H244398   2.965   2.513  10.477 -0.4184  1.4345 -0.4101
 6735TIP3   OH244399   0.573   6.573   9.305 -0.2855 -0.0475 -0.0411
 6735TIP3    H144400   0.545   6.542   9.391  1.5357  1.6172  1.2639
 6735TIP3    H244401   0.498   6.620   9.270 -0.3859  1.2205  1.7200
 6736TIP3   OH244402   1.712   4.980  10.374 -0.2386  0.5670  1.0166
 6736TIP3    H144403   1.787   4.919  10.372 -1.3471 -0.8406 -0.6818
 6736TIP3    H244404   1.670   4.964  10.458 -1.0351 -1.8011  0.2522
 6737TIP3   OH244405   4.117   4.999  11.879  0.4015  0.4252  0.2151
 6737TIP3    H144406   4.126   5.089  11.910  0.0460  0.0912  1.3452
 6737TIP3    H244407   4.056   4.958  11.942  0.5401 -0.5879 -0.2924
 6738TIP3   OH244408   2.306   4.028   9.597 -0.2539 -0.3247  0.4157
 6738TIP3    H144409   2.338   4.097   9.538  0.2978 -0.4319  0.5849
 6738TIP3    H244410   2.221   4.003   9.560 -0.9139  1.1157  0.9058
 6739TIP3   OH244411   3.211   1.544  10.906  0.2870  0.1265 -0.9297
 6739TIP3    H144412   3.246   1.533  10.994  0.6718  2.0809 -0.7922
 6739TIP3    H244413   3.248   1.626  10.875 -2.2675  1.1112 -1.6935
 6740TIP3   OH244414   3.212   2.249  11.230 -0.0179 -0.1931  0.0476
 6740TIP3    H144415   3.117   2.237  11.237  0.0612 -0.7420  0.2084
 6740TIP3    H244416   3.249   2.186  11.291  0.5102 -1.2575 -1.3046
 6741TIP3   OH244417   3.152   6.164  10.178 -0.2680 -0.2341 -0.3931
 6741TIP3    H144418   3.140   6.095  10.243  0.5423  0.3357  0.3889
 6741TIP3    H244419   3.065   6.203  10.168 -0.3961 -0.3164  0.3630
 6742TIP3   OH244420   3.153   4.382  11.967  0.2995  0.3028  0.3746
 6742TIP3    H144421   3.240   4.419  11.954 -0.3542  1.3336 -1.4287
 6742TIP3    H244422   3.104   4.452  12.010  0.1033  0.0851  0.5059
 6743TIP3   OH244423   1.253   6.681  11.509 -0.3174 -0.0925  0.4033
 6743TIP3    H144424   1.269   6.589  11.492  0.3467  0.0862  0.0197
 6743TIP3    H244425   1.296   6.699  11.592  1.8625  0.4571 -0.7688
 6744TIP3   OH244426   5.729   4.024  10.902  0.2400 -0.4303 -0.2603
 6744TIP3    H144427   5.824   4.018  10.899  0.3599  1.2127 -3.3092
 6744TIP3    H244428   5.699   3.940  10.865  0.5466 -0.4403 -0.4904
 6745TIP3   OH244429   2.206   5.778   9.921 -0.3795 -0.1473 -0.7843
 6745TIP3    H144430   2.176   5.713   9.984 -0.7943  3.3734  3.1081
 6745TIP3    H244431   2.126   5.817   9.886 -0.3618  1.3125  0.6205
 6746TIP3   OH244432   1.937   3.383   8.732 -0.1157  0.6160 -0.3514
 6746TIP3    H144433   1.954   3.472   8.764  1.5472 -0.1000  0.8888
 6746TIP3    H244434   2.014   3.333   8.759 -1.0236 -1.2131 -1.0320
 6747TIP3   OH244435   2.166   5.596  12.149 -0.3903 -0.1265 -0.1445
 6747TIP3    H144436   2.119   5.667  12.192 -0.6086 -0.1531 -0.3398
 6747TIP3    H244437   2.255   5.600  12.186 -1.1899 -1.7301  2.2119
 6748TIP3   OH244438   1.925   4.627   8.992 -0.2893  0.2615  0.1376
 6748TIP3    H144439   1.868   4.701   8.973 -1.1502 -0.5388 -0.5059
 6748TIP3    H244440   1.963   4.647   9.077  0.0017  1.7356 -0.3081
 6749TIP3   OH244441   4.859   4.715   8.396 -0.3755 -0.2648  0.3650
 6749TIP3    H144442   4.812   4.665   8.329 -1.0300  0.8028  0.0057
 6749TIP3    H244443   4.820   4.686   8.479  0.3668 -1.5154  0.2929
 6750TIP3   OH244444   4.237   4.015  12.477 -0.1851  0.8782 -0.1199
 6750TIP3    H144445   4.161   4.070  12.494 -0.4468  0.3676  0.4336
 6750TIP3    H244446   4.227   3.941  12.537  0.2986  0.3668 -0.6480
 6751TIP3   OH244447   5.136   4.226   9.357 -0.2521 -0.3429 -0.3851
 6751TIP3    H144448   5.204   4.166   9.388  0.1857 -0.4326 -1.4872
 6751TIP3    H244449   5.160   4.311   9.394 -0.4252 -0.6800  0.5191
 6752TIP3   OH244450   0.584   3.837  10.808 -0.1233 -0.3064  0.1575
 6752TIP3    H144451   0.593   3.910  10.870 -0.6336 -1.2272  1.3665
 6752TIP3    H244452   0.664   3.840  10.755  0.0490  0.8681  0.4669
 6753TIP3   OH244453   1.716   3.654  10.204  0.0130  0.2147 -0.0129
 6753TIP3    H144454   1.683   3.608  10.280  0.7772 -1.1712 -0.4842
 6753TIP3    H244455   1.729   3.744  10.234 -0.0224 -0.2243  1.3837
 6754TIP3   OH244456   3.550   1.302  11.006  0.1381 -0.2194 -0.0026
 6754TIP3    H144457   3.575   1.380  10.957  0.7881 -1.4412 -1.7172
 6754TIP3    H244458   3.591   1.312  11.092  1.5154  0.6158 -0.7288
 6755TIP3   OH244459   6.218   4.208   9.086  0.0324  0.7346 -0.0667
 6755TIP3    H144460   6.231   4.144   9.157  0.9325  1.1079  0.1187
 6755TIP3    H244461   6.150   4.267   9.120 -0.2740  0.3141  0.0637
 6756TIP3   OH244462   2.970   2.650  12.601  0.4632  0.2580 -0.6020
 6756TIP3    H144463   2.935   2.702  12.528 -0.1110 -0.7034 -1.0193
 6756TIP3    H244464   2.899   2.646  12.664  1.2164  1.7624  0.4210
 6757TIP3   OH244465   1.344   0.329   8.665  0.2767 -0.7373 -0.0986
 6757TIP3    H144466   1.392   0.380   8.600  0.4088 -0.4927  0.1857
 6757TIP3    H244467   1.302   0.395   8.720 -1.3441 -0.9290 -1.0294
 6758TIP3   OH244468   2.951   4.698  11.688  0.1218  0.4522 -0.3406
 6758TIP3    H144469   3.010   4.730  11.756  1.8018 -0.7866 -1.1547
 6758TIP3    H244470   3.006   4.644  11.631 -1.6114 -0.0157 -1.6681
 6759TIP3   OH244471   0.188   3.683  10.088 -0.3955 -0.0621  0.6062
 6759TIP3    H144472   0.096   3.694  10.111 -0.4487  0.3204  0.2282
 6759TIP3    H244473   0.212   3.766  10.046  0.2208 -0.0230  1.0259
 6760TIP3   OH244474   2.634   0.675  11.309  0.1602 -0.0326 -0.5405
 6760TIP3    H144475   2.706   0.703  11.253 -1.2540 -1.6673 -3.4299
 6760TIP3    H244476   2.565   0.740  11.294  0.0328 -0.0550 -0.0728
 6761TIP3   OH244477   4.652   3.835  11.129  0.3973  0.8287  0.0071
 6761TIP3    H144478   4.724   3.801  11.076  0.7193  2.5246 -0.7060
 6761TIP3    H244479   4.691   3.854  11.214  0.1600 -0.7214  0.4960
 6762TIP3   OH244480   6.184   0.011  11.006  0.2064 -0.1306  0.1968
 6762TIP3    H144481   6.264  -0.012  11.053  1.1472 -0.5839 -1.5380
 6762TIP3    H244482   6.115   0.007  11.072  1.2673 -1.9691  1.2708
 6763TIP3   OH244483   1.626   6.466   9.465 -0.1893 -0.9451 -0.0610
 6763TIP3    H144484   1.714   6.442   9.435 -0.7273 -2.6714 -0.4171
 6763TIP3    H244485   1.609   6.550   9.423  0.7541 -1.2586 -1.1448
 6764TIP3   OH244486   5.034   5.635   8.662  0.5223 -0.5529  0.3902
 6764TIP3    H144487   5.071   5.662   8.578 -0.4827 -0.1119  0.0820
 6764TIP3    H244488   5.107   5.591   8.707  1.7031  1.0767  0.1755
 6765TIP3   OH244489   3.529   0.836  10.732  0.2861 -0.3411 -0.1039
 6765TIP3    H144490   3.532   0.744  10.758 -1.6455 -0.6927 -0.9438
 6765TIP3    H244491   3.587   0.880  10.793  1.5948 -2.1591  0.0570
 6766TIP3   OH244492   5.186   6.037  11.924 -0.2074  0.2663  0.4106
 6766TIP3    H144493   5.125   6.057  11.994 -0.4636  0.1501  0.2254
 6766TIP3    H244494   5.228   6.120  11.903 -1.7007  0.7634 -0.7702
 6767TIP3   OH244495   1.174   1.784  10.904  0.7904 -0.3869 -0.1835
 6767TIP3    H144496   1.244   1.817  10.961  0.5943 -0.8856  0.3588
 6767TIP3    H244497   1.160   1.694  10.934  0.2738 -0.4583 -0.6350
 6768TIP3   OH244498   2.837   6.284   9.488  0.2256  0.2688  0.1405
 6768TIP3    H144499   2.766   6.272   9.552  0.9476  3.0567  1.6239
 6768TIP3    H244500   2.792   6.288   9.403 -1.0767 -0.6663  0.7381
 6769TIP3   OH244501   2.040   2.030  10.298  0.0204 -0.7858  0.6525
 6769TIP3    H144502   1.965   2.089  10.286  0.3899 -0.3764  0.3324
 6769TIP3    H244503   2.006   1.944  10.275  0.3450 -0.2263 -2.2697
 6770TIP3   OH244504   2.112   1.243  10.885  0.3591 -0.7122 -0.2016
 6770TIP3    H144505   2.182   1.308  10.890 -0.9070  0.7900 -1.1358
 6770TIP3    H244506   2.050   1.279  10.822 -1.4226 -1.8372  0.8114
 6771TIP3   OH244507   5.356   1.748  10.199  0.8018  0.3353  0.8024
 6771TIP3    H144508   5.364   1.834  10.240 -1.1001  0.8582  0.2155
 6771TIP3    H244509   5.411   1.754  10.120 -2.0793  2.4589 -1.2744
 6772TIP3   OH244510   5.244   5.836   8.749 -0.0393  0.1421  0.7878
 6772TIP3    H144511   5.260   5.795   8.835 -2.1029 -2.3504  0.1407
 6772TIP3    H244512   5.153   5.813   8.729 -0.3067  2.5374 -1.1283
 6773TIP3   OH244513   6.158   5.897   9.855  0.1627  0.2535  0.3420
 6773TIP3    H144514   6.126   5.970   9.909 -2.6750  0.2241 -1.1070
 6773TIP3    H244515   6.111   5.821   9.887  0.5676 -0.3001 -0.3507
 6774TIP3   OH244516   3.469   3.864   9.418 -0.5300  0.0096  0.1816
 6774TIP3    H144517   3.469   3.898   9.328  1.5415  1.2136  0.5657
 6774TIP3    H244518   3.388   3.898   9.456 -0.0199  2.0434 -0.3964
 6775TIP3   OH244519   2.879   1.397   8.631  0.2833  0.0544  0.0473
 6775TIP3    H144520   2.943   1.468   8.624  0.0901  0.1861 -0.4983
 6775TIP3    H244521   2.925   1.328   8.679  1.1877 -0.2338 -1.1688
 6776TIP3   OH244522   1.049   3.885  10.986  0.0382  0.3846 -0.0842
 6776TIP3    H144523   1.093   3.828  11.050 -1.2786 -0.6140 -0.0270
 6776TIP3    H244524   1.060   3.840  10.903 -0.2718  0.4847 -0.1790
 6777TIP3   OH244525   6.543   5.766  11.504 -0.1318 -0.5754 -0.3983
 6777TIP3    H144526   6.544   5.847  11.455 -0.4944  0.9701  1.9660
 6777TIP3    H244527   6.478   5.780  11.573  1.0038 -2.2029  1.1143
 6778TIP3   OH244528   1.113   3.338  10.090 -0.0588 -0.0963 -0.5963
 6778TIP3    H144529   1.150   3.280  10.157  0.5181  1.1875  0.2378
 6778TIP3    H244530   1.148   3.424  10.111 -2.8754  1.0904 -0.2159
 6779TIP3   OH244531   1.232   4.841   9.420 -0.3916 -0.0091 -0.9563
 6779TIP3    H144532   1.224   4.828   9.514 -0.0941  2.0661 -0.6052
 6779TIP3    H244533   1.143   4.831   9.387 -0.8372  1.1837 -0.1641
 6780TIP3   OH244534   5.749   0.218  10.746 -0.1201 -0.6859 -0.3948
 6780TIP3    H144535   5.734   0.233  10.839 -0.0203  0.4197 -0.5360
 6780TIP3    H244536   5.799   0.295  10.717 -1.6102 -0.1453 -1.7152
 6781TIP3   OH244537   6.436   4.515  10.487  0.3116 -0.2252 -0.1361
 6781TIP3    H144538   6.508   4.459  10.515  0.0442  0.1628  1.4045
 6781TIP3    H244539   6.362   4.454  10.476  0.2013 -0.2792  0.8540
 6782TIP3   OH244540   4.454   3.468  10.699  0.7942  0.4489 -0.2185
 6782TIP3    H144541   4.502   3.466  10.616  1.2585 -0.1229  0.0650
 6782TIP3    H244542   4.372   3.513  10.677  0.4479 -0.6257 -1.2403
 6783TIP3   OH244543   6.323   0.063   9.227  0.7420 -0.1447 -0.4218
 6783TIP3    H144544   6.324   0.153   9.192  2.5942 -0.2292 -0.7258
 6783TIP3    H244545   6.342   0.008   9.151  0.6361 -0.7086 -0.0462
 6784TIP3   OH244546   5.455   0.668  11.650 -0.6417  0.0698 -0.5658
 6784TIP3    H144547   5.477   0.712  11.568  0.6774 -0.0831 -0.3150
 6784TIP3    H244548   5.442   0.576  11.624 -2.5964  0.4225 -0.9586
 6785TIP3   OH244549   5.280   2.639  11.247 -0.0876 -0.6593 -0.2585
 6785TIP3    H144550   5.346   2.604  11.307 -1.2113 -0.8856  0.9007
 6785TIP3    H244551   5.197   2.599  11.276 -0.7260 -0.5168 -1.7682
 6786TIP3   OH244552   4.518   4.255   9.645 -0.6342 -0.4927 -0.1052
 6786TIP3    H144553   4.526   4.181   9.704  2.0689 -0.0385  0.2354
 6786TIP3    H244554   4.504   4.330   9.702  2.3247 -0.0014  0.1407
 6787TIP3   OH244555   3.518   3.406  12.018 -0.4557 -0.3737 -0.3698
 6787TIP3    H144556   3.467   3.462  11.959 -0.6014  0.1529  0.2355
 6787TIP3    H244557   3.600   3.390  11.971  0.0067  1.1955 -0.1595
 6788TIP3   OH244558   5.589   2.141   8.803 -0.5143 -0.7682 -0.4118
 6788TIP3    H144559   5.683   2.142   8.820 -0.8781  0.3726  2.0562
 6788TIP3    H244560   5.574   2.212   8.741 -0.0224  1.2670  1.6425
 6789TIP3   OH244561   5.163   4.336   9.097 -0.1524 -0.0136 -0.0406
 6789TIP3    H144562   5.133   4.425   9.115 -0.2227 -0.2346  1.0243
 6789TIP3    H244563   5.143   4.288   9.177  2.2502 -0.3771  0.4294
 6790TIP3   OH244564   1.810   1.929  12.025  0.4345 -0.0317 -0.8154
 6790TIP3    H144565   1.817   1.844  12.068 -2.4405  0.3019  0.5551
 6790TIP3    H244566   1.853   1.990  12.085 -1.8975  0.1470  0.7737
 6791TIP3   OH244567   6.775   6.407   9.536 -0.4127  0.2211  0.3964
 6791TIP3    H144568   6.692   6.379   9.574 -0.1648 -1.2871 -0.0891
 6791TIP3    H244569   6.832   6.330   9.542 -0.3204 -0.1202 -2.8710
 6792TIP3   OH244570   2.354   5.726   9.339 -0.3495 -0.2206  0.2225
 6792TIP3    H144571   2.287   5.690   9.280 -0.7491  0.0561  0.5083
 6792TIP3    H244572   2.307   5.752   9.418  0.3538 -1.7835  1.2117
 6793TIP3   OH244573   1.388   1.043   8.565 -0.2652  0.0341  0.2284
 6793TIP3    H144574   1.442   1.008   8.635 -0.1825  0.2860  0.2898
 6793TIP3    H244575   1.440   1.030   8.486  0.9485  2.4266  0.5446
 6794TIP3   OH244576   2.510   3.097  10.545  0.0309 -0.1602  0.3197
 6794TIP3    H144577   2.450   3.163  10.580  0.2600  0.3900 -0.3214
 6794TIP3    H244578   2.478   3.080  10.456  0.7688  0.0605  0.0096
 6795TIP3   OH244579   1.290   5.936  10.194  0.6399 -0.2375  0.1110
 6795TIP3    H144580   1.251   5.894  10.270  0.7247 -0.4829  0.0201
 6795TIP3    H244581   1.262   6.028  10.200  2.1710  0.1759  1.4283
 6796TIP3   OH244582   5.811   2.177  10.807  0.3370  0.1640 -0.7006
 6796TIP3    H144583   5.735   2.230  10.784 -0.9594 -1.1497  0.3154
 6796TIP3    H244584   5.781   2.086  10.797  2.0973 -0.3956 -1.2471
 6797TIP3   OH244585   6.286   2.763   9.712  0.2888  0.1246 -0.1570
 6797TIP3    H144586   6.315   2.677   9.680 -0.9510 -1.1186  1.8486
 6797TIP3    H244587   6.359   2.796   9.763  0.2566 -0.4024  0.2362
 6798TIP3   OH244588   5.003   2.493   9.881  0.1966  0.1393 -0.0963
 6798TIP3    H144589   5.001   2.398   9.870  0.9457  0.0241  0.6826
 6798TIP3    H244590   4.918   2.514   9.919  0.3078 -0.3104  0.4146
 6799TIP3   OH244591   0.770   1.860   9.766  0.1307 -0.1653 -0.1461
 6799TIP3    H144592   0.818   1.943   9.771 -1.5092  0.8612 -0.7922
 6799TIP3    H244593   0.697   1.870   9.826 -0.5555 -0.8165 -0.8545
 6800TIP3   OH244594   1.232   5.310   9.915 -0.4016 -0.0095 -0.1965
 6800TIP3    H144595   1.175   5.333   9.988  0.7056 -0.0352  0.7154
 6800TIP3    H244596   1.183   5.244   9.866 -1.2169  0.0892  0.4560
 6801TIP3   OH244597   3.098   2.403   8.389 -0.1497 -0.5606 -0.3942
 6801TIP3    H144598   3.143   2.383   8.471 -1.9046 -0.4744  0.6433
 6801TIP3    H244599   3.139   2.345   8.325  1.0007 -0.9090  0.6087
 6802TIP3   OH244600   3.121   4.365  10.433 -0.0240  0.0429  0.2426
 6802TIP3    H144601   3.065   4.363  10.355  0.6629 -0.6727 -0.2409
 6802TIP3    H244602   3.188   4.430  10.413 -0.0500  0.1159  0.3882
 6803TIP3   OH244603   6.078   3.394   9.872  0.1072  0.2212  0.0457
 6803TIP3    H144604   6.136   3.322   9.900  0.8034  0.5063 -0.5965
 6803TIP3    H244605   6.137   3.456   9.830 -0.9585 -0.9280 -3.5744
 6804TIP3   OH244606   5.252   6.448   9.784  0.2066  0.0422 -0.6703
 6804TIP3    H144607   5.276   6.539   9.801  0.1811 -0.1482  0.4640
 6804TIP3    H244608   5.267   6.404   9.867 -0.6532 -0.8089 -0.9534
 6805TIP3   OH244609   2.081   1.735  11.334 -0.0776 -0.1677 -0.3969
 6805TIP3    H144610   2.090   1.695  11.420 -2.5482  0.9912  0.4702
 6805TIP3    H244611   2.075   1.829  11.351 -0.3956  0.1062 -1.8550
 6806TIP3   OH244612   6.083   5.710   9.621  0.5409  0.4672 -0.4836
 6806TIP3    H144613   6.148   5.780   9.620  1.7839 -0.5493  1.5524
 6806TIP3    H244614   6.058   5.702   9.713 -0.2203 -1.1618 -0.7942
 6807TIP3   OH244615   3.905   5.493   9.087  0.7759 -0.1257 -0.0065
 6807TIP3    H144616   3.874   5.582   9.103  1.4068  0.1053 -0.0512
 6807TIP3    H244617   3.862   5.441   9.154 -0.2686  0.0637 -0.5133
 6808TIP3   OH244618   1.208   5.562   8.547 -0.5250 -0.4094  0.3023
 6808TIP3    H144619   1.227   5.473   8.518 -1.9522 -1.2528  1.7957
 6808TIP3    H244620   1.267   5.575   8.622 -0.6112 -0.2463  0.3416
 6809TIP3   OH244621   4.998   4.535   9.969 -0.1317 -0.3596 -0.3795
 6809TIP3    H144622   5.029   4.562  10.056 -0.6882 -0.5934 -0.1011
 6809TIP3    H244623   4.938   4.463   9.987  0.2060 -0.8052 -1.0075
 6810TIP3   OH244624   0.539   0.407  11.268  0.3130  0.0209 -0.6780
 6810TIP3    H144625   0.494   0.336  11.223 -0.6518 -0.2054  0.5849
 6810TIP3    H244626   0.505   0.487  11.227 -0.3215 -0.1912 -0.5800
 6811TIP3   OH244627   4.783   2.700  12.077 -0.1519  0.3177 -0.4641
 6811TIP3    H144628   4.866   2.736  12.046  0.8691 -1.1419  0.4228
 6811TIP3    H244629   4.738   2.774  12.116  1.2354  0.9406  0.0366
 6812TIP3   OH244630   4.082   4.087   9.769 -0.1060  0.2077 -0.2611
 6812TIP3    H144631   3.987   4.077   9.766 -0.0657 -0.1222 -0.5292
 6812TIP3    H244632   4.113   4.039   9.692  0.1133  2.3819 -1.5916
 6813TIP3   OH244633   5.791   2.764   8.511 -0.5438 -0.4410 -0.1447
 6813TIP3    H144634   5.857   2.697   8.494 -0.7656 -0.7201  0.0821
 6813TIP3    H244635   5.827   2.843   8.472 -0.8911 -0.9810 -1.6390
 6814TIP3   OH244636   5.895   6.101  10.752  0.2466  0.2854 -0.6261
 6814TIP3    H144637   5.824   6.038  10.749  0.8148 -0.3428 -1.1414
 6814TIP3    H244638   5.855   6.184  10.725 -0.5226  0.1857  0.1423
 6815TIP3   OH244639   1.014   0.564  11.092  0.1094  0.3212 -0.3310
 6815TIP3    H144640   0.963   0.486  11.114 -0.7088  1.1106  0.6947
 6815TIP3    H244641   1.075   0.574  11.165 -0.6819  1.3469  0.2264
 6816TIP3   OH244642   2.793   3.071  11.302 -0.1353  0.0642  0.1035
 6816TIP3    H144643   2.726   3.055  11.235  1.0472  0.9290 -1.3312
 6816TIP3    H244644   2.866   3.015  11.277  0.3367  0.4255  0.6467
 6817TIP3   OH244645   5.769   5.962   9.067 -0.3286 -0.4486 -0.2461
 6817TIP3    H144646   5.743   5.977   9.158 -0.3006  1.8300 -0.5568
 6817TIP3    H244647   5.698   5.909   9.030 -0.8042 -0.6041  0.8457
 6818TIP3   OH244648   4.581   5.559  12.134 -0.0286 -0.3016 -0.3598
 6818TIP3    H144649   4.661   5.549  12.082 -1.6478 -2.0979 -2.7439
 6818TIP3    H244650   4.560   5.470  12.163 -0.5846  0.3119  1.2436
 6819TIP3   OH244651   4.459   2.685   9.873  0.3034  0.0105  0.2435
 6819TIP3    H144652   4.508   2.685   9.956 -1.8540  0.2281  1.5865
 6819TIP3    H244653   4.458   2.594   9.846 -0.5555 -0.3686  1.4737
 6820TIP3   OH244654   4.142   4.812   9.041  0.2013  0.2987 -0.4375
 6820TIP3    H144655   4.127   4.799   9.134  0.5968 -0.3940 -0.4658
 6820TIP3    H244656   4.214   4.875   9.037  1.4861 -1.0969 -0.2354
 6821TIP3   OH244657   2.881   0.192   9.063 -0.1277  0.0838  0.0437
 6821TIP3    H144658   2.974   0.200   9.039 -0.1223 -0.5755 -0.1778
 6821TIP3    H244659   2.877   0.114   9.117 -0.6263 -0.1500 -0.3214
 6822TIP3   OH244660   5.114   1.654   9.786  0.5542 -0.0228 -0.3066
 6822TIP3    H144661   5.046   1.667   9.852  1.4547  1.1441  0.4385
 6822TIP3    H244662   5.071   1.607   9.715 -0.5732 -0.8463  0.8949
 6823TIP3   OH244663   4.652   6.636  10.335  0.4640 -0.3628 -0.1193
 6823TIP3    H144664   4.703   6.630  10.416 -0.3914 -0.0835  0.4448
 6823TIP3    H244665   4.602   6.717  10.343 -1.2639 -1.4005  0.0495
 6824TIP3   OH244666   0.098   4.390  19.561  0.3963  0.3043  0.6166
 6824TIP3    H144667   0.058   4.353  19.483  0.3806 -0.4975  0.9921
 6824TIP3    H244668   0.052   4.473  19.575 -1.8696 -1.0006  1.5800
 6825TIP3   OH244669   3.469   4.242  12.914 -0.3805  0.2728 -0.1349
 6825TIP3    H144670   3.517   4.231  12.832  1.4047  2.0380  0.6089
 6825TIP3    H244671   3.444   4.153  12.939 -0.6102 -0.3464 -2.3387
 6826TIP3   OH244672   4.032   0.720   9.593 -0.5013  0.3436  0.5009
 6826TIP3    H144673   3.954   0.667   9.578 -1.3518  0.9969  2.2292
 6826TIP3    H244674   4.097   0.658   9.626 -1.0914  0.1450  1.3448
 6827TIP3   OH244675   4.970   6.225  10.088  0.0817  0.0060 -0.2624
 6827TIP3    H144676   4.882   6.260  10.092 -0.1700 -0.5558 -0.7318
 6827TIP3    H244677   4.968   6.162  10.015  0.2774 -1.6043  1.0591
 6828TIP3   OH244678   0.446   6.236  11.139 -0.2871 -0.0744  0.4571
 6828TIP3    H144679   0.405   6.278  11.214 -0.0686  1.9821 -0.5042
 6828TIP3    H244680   0.375   6.185  11.099 -0.3608 -1.3045  2.0874
 6829TIP3   OH244681   0.253   6.481   8.768  0.2350 -0.3777  0.4013
 6829TIP3    H144682   0.280   6.563   8.810 -0.3770  0.1904 -0.2893
 6829TIP3    H244683   0.184   6.507   8.707 -0.1072 -1.4391  0.3151
 6830TIP3   OH244684   6.694   4.511   9.726 -0.1596 -0.5452 -0.2398
 6830TIP3    H144685   6.667   4.562   9.803  1.1262  1.1740 -0.8441
 6830TIP3    H244686   6.737   4.434   9.763 -0.5092 -0.2813  0.7622
 6831TIP3   OH244687   5.932   2.698  10.093  0.4862  0.3090 -0.8697
 6831TIP3    H144688   6.007   2.724  10.040 -0.4868  0.8730 -2.0214
 6831TIP3    H244689   5.872   2.773  10.087 -0.2534 -0.2131 -0.1391
 6832TIP3   OH244690   6.597   6.003  10.172  0.1306  0.6755 -0.4641
 6832TIP3    H144691   6.595   5.928  10.113  1.4563  2.4969 -3.0306
 6832TIP3    H244692   6.650   6.068  10.126 -1.9883  3.6672  0.9801
 6833TIP3   OH244693   0.178   4.103   9.040  0.4130  0.5790  0.1171
 6833TIP3    H144694   0.255   4.056   9.006  0.1914  1.5606 -1.9182
 6833TIP3    H244695   0.132   4.133   8.961 -1.8764  0.3369  1.2898
 6834TIP3   OH244696   5.007   0.383  10.641  0.0619  0.2572  0.8186
 6834TIP3    H144697   5.019   0.478  10.646  1.3529  0.0866  1.2619
 6834TIP3    H244698   5.049   0.358  10.559  1.2958 -0.1302  1.5374
 6835TIP3   OH244699   2.615   2.826  10.653 -0.6250  0.6531 -0.3514
 6835TIP3    H144700   2.599   2.850  10.562  0.4646 -0.6765 -0.9120
 6835TIP3    H244701   2.555   2.754  10.670 -0.7785  0.8545 -0.0228
 6836TIP3   OH244702   5.812   0.959  10.696 -0.0692 -0.7300 -0.0775
 6836TIP3    H144703   5.871   1.008  10.753 -0.7535  1.6304 -1.2587
 6836TIP3    H244704   5.866   0.931  10.623  0.0581 -0.5690 -0.0452
 6837TIP3   OH244705   3.632   5.377  11.646  0.0061  0.3051 -0.1352
 6837TIP3    H144706   3.670   5.312  11.705  0.3930  0.4965 -0.1756
 6837TIP3    H244707   3.623   5.332  11.562 -0.9724 -0.1129  0.1807
 6838TIP3   OH244708   1.256   4.882  10.097 -0.2132 -0.2830 -0.3688
 6838TIP3    H144709   1.336   4.890  10.149 -0.6649 -0.1496  0.3225
 6838TIP3    H244710   1.230   4.791  10.105  1.3783 -1.0702 -2.9103
 6839TIP3   OH244711   2.450   4.115  10.038  0.5414  0.2570 -0.3578
 6839TIP3    H144712   2.427   4.040   9.982  0.2602 -0.2007  0.3572
 6839TIP3    H244713   2.400   4.101  10.118  0.1931  1.4226 -0.3583
 6840TIP3   OH244714   5.849   6.400   9.961  0.8249  0.1403 -0.7808
 6840TIP3    H144715   5.773   6.342   9.957  1.1459 -0.2815 -0.7244
 6840TIP3    H244716   5.913   6.361   9.901 -0.3042  2.4229 -3.7277
 6841TIP3   OH244717   4.355   6.083  10.462  0.4346  0.2014 -0.2613
 6841TIP3    H144718   4.368   6.168  10.418 -0.3283  0.5111  0.0965
 6841TIP3    H244719   4.426   6.078  10.526  1.6642 -0.3260 -1.6106
 6842TIP3   OH244720   1.164   1.130  10.171 -0.5066  0.6389 -0.6245
 6842TIP3    H144721   1.249   1.115  10.129 -0.7594  1.4258 -1.4319
 6842TIP3    H244722   1.127   1.205  10.125 -1.6814  0.2576 -0.3411
 6843TIP3   OH244723   1.252   3.761   9.524  0.1897 -0.1910 -0.1870
 6843TIP3    H144724   1.175   3.711   9.549 -0.7041  1.5256  0.6097
 6843TIP3    H244725   1.281   3.804   9.605 -0.0083  1.8062 -1.1128
 6844TIP3   OH244726   5.114   5.796  11.195  0.3133 -0.6963  0.0683
 6844TIP3    H144727   5.056   5.871  11.186  0.0543 -0.9087 -0.0794
 6844TIP3    H244728   5.188   5.828  11.246 -1.4324 -1.2389  3.1296
 6845TIP3   OH244729   1.704   2.365   9.885  0.2528 -0.0621 -0.5562
 6845TIP3    H144730   1.676   2.303   9.953 -0.5297  0.0664 -0.7540
 6845TIP3    H244731   1.785   2.327   9.850  0.8440  0.0456  0.6718
 6846TIP3   OH244732   0.976   2.670   9.728  0.5566  0.1934 -0.4594
 6846TIP3    H144733   0.978   2.604   9.798 -0.6921 -0.2908 -0.8396
 6846TIP3    H244734   1.062   2.711   9.731  1.6371 -1.8883 -0.6037
 6847TIP3   OH244735   3.107   2.765  12.289 -0.0703 -0.9298  0.2449
 6847TIP3    H144736   3.017   2.774  12.322  0.3776 -0.1067  1.2869
 6847TIP3    H244737   3.150   2.707  12.351 -0.1342 -2.1702 -0.8255
 6848TIP3   OH244738   2.242   3.029   9.539  0.3655  0.4540  0.8463
 6848TIP3    H144739   2.179   3.014   9.610 -0.4558 -2.2032 -0.3305
 6848TIP3    H244740   2.194   3.083   9.476 -1.4553 -2.7409 -0.7303
 6849TIP3   OH244741   5.986   2.262   9.249 -0.1508 -0.1924  0.5136
 6849TIP3    H144742   6.062   2.272   9.307 -0.6656  2.0364  0.9071
 6849TIP3    H244743   6.022   2.221   9.171  0.9551 -1.4435  1.6158
 6850TIP3   OH244744   3.460   2.309   8.464 -0.7056 -0.0037 -0.6322
 6850TIP3    H144745   3.486   2.229   8.510 -1.7076  0.8033  1.4924
 6850TIP3    H244746   3.542   2.346   8.430 -0.0935 -1.3064 -0.6073
 6851TIP3   OH244747   4.051   0.494  10.099  0.1051  0.5570 -0.2626
 6851TIP3    H144748   3.998   0.424  10.136 -1.8734  1.6109 -0.9842
 6851TIP3    H244749   4.075   0.463  10.012  2.2618 -0.6608  0.6809
 6852TIP3   OH244750   0.504   3.896  10.298  0.7340 -0.1070  0.2374
 6852TIP3    H144751   0.475   3.872  10.386 -0.4025  0.8656  0.1561
 6852TIP3    H244752   0.470   3.984  10.285  0.4929 -0.4071 -1.3539
 6853TIP3   OH244753   6.227   2.271   9.414  0.7168  0.5656  0.1791
 6853TIP3    H144754   6.253   2.224   9.334  1.3400  1.1926  0.0079
 6853TIP3    H244755   6.268   2.357   9.406 -0.2922  1.0957  0.5597
 6854TIP3   OH244756   1.173   2.651  11.264 -0.5331 -0.0783 -0.2510
 6854TIP3    H144757   1.112   2.635  11.336 -0.6842  1.0691 -0.1011
 6854TIP3    H244758   1.117   2.658  11.186 -0.5454  0.4719 -0.1935
 6855TIP3   OH244759   1.315   4.375  11.048  0.0433 -0.2077  0.3513
 6855TIP3    H144760   1.260   4.444  11.012 -0.1900 -0.3741  0.3808
 6855TIP3    H244761   1.356   4.415  11.125  1.6598  0.5912 -0.8900
 6856TIP3   OH244762   3.933   4.226   9.307  0.4876 -0.1848  0.3935
 6856TIP3    H144763   3.999   4.244   9.240  1.9606 -0.2647  1.7713
 6856TIP3    H244764   3.873   4.301   9.301  1.8916  1.0035  0.4957
 6857TIP3   OH244765   5.947   2.811  10.419 -0.7494  0.3931  0.6673
 6857TIP3    H144766   5.925   2.719  10.433 -0.2083  0.2608  0.6546
 6857TIP3    H244767   6.019   2.810  10.356 -0.0969  0.7853  1.3968
 6858TIP3   OH244768   0.773   4.086   9.151  0.3601  0.0433 -0.0671
 6858TIP3    H144769   0.747   3.994   9.147 -0.5847  0.2933  0.1171
 6858TIP3    H244770   0.865   4.086   9.127 -0.4598 -0.5792 -4.0059
 6859TIP3   OH244771   0.042   4.746  11.127  0.1243  0.0995 -0.2166
 6859TIP3    H144772   0.094   4.774  11.052 -2.0966  1.0737 -1.4932
 6859TIP3    H244773   0.002   4.827  11.160 -2.2194 -0.8087 -0.6474
 6860TIP3   OH244774   3.416   6.619  10.988  0.4351 -0.3310 -0.0869
 6860TIP3    H144775   3.399   6.680  10.917 -0.6006 -0.9623 -0.4005
 6860TIP3    H244776   3.387   6.664  11.067 -1.4597 -0.8276 -0.4475
 6861TIP3   OH244777   4.279   2.156   9.969 -0.3962 -0.3330 -0.2863
 6861TIP3    H144778   4.282   2.115  10.056  2.2178 -0.5542 -0.4010
 6861TIP3    H244779   4.240   2.242   9.985  0.5725 -0.1316  1.2348
 6862TIP3   OH244780   5.202   4.650  10.891 -0.0159  0.0421  0.1400
 6862TIP3    H144781   5.222   4.584  10.825 -0.8264 -0.9231  0.8116
 6862TIP3    H244782   5.287   4.688  10.915  0.4926 -0.9240 -0.0966
 6863TIP3   OH244783   4.999   5.914  10.236 -0.4312 -0.4943  0.4014
 6863TIP3    H144784   4.931   5.904  10.169  0.3619 -0.0922 -0.4798
 6863TIP3    H244785   5.074   5.866  10.201 -0.0305 -0.3405  1.0387
 6864TIP3   OH244786   1.810   3.315  10.494 -0.5700 -0.0043 -0.1297
 6864TIP3    H144787   1.824   3.402  10.530 -2.9042 -0.4105  2.1513
 6864TIP3    H244788   1.820   3.325  10.400 -1.1528  2.8114  0.0260
 6865TIP3   OH244789   6.692   6.395   8.796 -0.3062 -0.4554  0.6058
 6865TIP3    H144790   6.683   6.463   8.863 -1.0770  0.9722 -0.8746
 6865TIP3    H244791   6.604   6.384   8.761  0.5167  1.2846 -2.4118
 6866TIP3   OH244792   1.362   1.738  10.053 -0.4346 -0.2353 -0.3274
 6866TIP3    H144793   1.452   1.768  10.043 -1.0015  2.2888  1.2772
 6866TIP3    H244794   1.364   1.678  10.127 -0.1586  0.3151  0.1160
 6867TIP3   OH244795   6.540   2.754   8.650  0.3479 -0.3783  0.3937
 6867TIP3    H144796   6.619   2.791   8.610  0.3777 -0.2318  0.5865
 6867TIP3    H244797   6.530   2.802   8.732  0.8553 -1.3481  1.0483
 6868TIP3   OH244798   1.047   2.835  10.614 -0.0318  0.1307  0.0576
 6868TIP3    H144799   1.138   2.844  10.588 -0.0212  0.0650  0.0719
 6868TIP3    H244800   1.004   2.912  10.576 -0.5457 -1.3178 -2.5633
 6869TIP3   OH244801   2.971   2.564  10.974 -0.3372 -0.3335 -0.3017
 6869TIP3    H144802   2.965   2.654  10.943 -1.9461 -0.5574 -0.7440
 6869TIP3    H244803   2.976   2.511  10.895 -0.2462 -0.6883 -0.0634
 6870TIP3   OH244804   4.341   6.107  10.021 -0.3682 -0.3953 -0.4790
 6870TIP3    H144805   4.251   6.111  10.052  0.4836  2.1046  2.0853
 6870TIP3    H244806   4.393   6.094  10.100  1.6802  1.2060 -1.4565
 6871TIP3   OH244807   3.560   4.919  12.119  0.5399 -0.6342 -0.2444
 6871TIP3    H144808   3.484   4.968  12.151 -1.3318 -3.1583 -0.5002
 6871TIP3    H244809   3.591   4.871  12.195  0.5292 -1.2202 -0.6027
 6872TIP3   OH244810   1.558   2.878   8.543  0.1873  0.1474  0.1080
 6872TIP3    H144811   1.524   2.790   8.525 -0.5247  0.5156 -0.3744
 6872TIP3    H244812   1.601   2.870   8.628 -0.1431 -0.5968  0.2126
 6873TIP3   OH244813   5.378   6.283  11.439 -0.0650  0.1640 -0.4393
 6873TIP3    H144814   5.360   6.375  11.456  2.9561  0.5891  0.9669
 6873TIP3    H244815   5.333   6.236  11.509  1.2542  0.8959  0.9500
 6874TIP3   OH244816   5.572   4.997   9.936  0.1282 -0.2027  0.5374
 6874TIP3    H144817   5.537   5.086   9.946  0.6598  0.0692  0.0108
 6874TIP3    H244818   5.553   4.974   9.845 -1.8602 -1.4431  1.2034
 6875TIP3   OH244819   5.766   1.819  10.775  0.3398 -0.1880 -0.2145
 6875TIP3    H144820   5.708   1.783  10.843  1.0182  1.0437  1.0624
 6875TIP3    H244821   5.707   1.866  10.716 -0.1856 -0.7133 -0.1227
 6876TIP3   OH244822   0.584   0.761   9.641 -0.1580  0.1851 -0.1552
 6876TIP3    H144823   0.624   0.725   9.561  1.3602  2.1918 -0.3732
 6876TIP3    H244824   0.490   0.762   9.623  0.0749 -0.3319 -1.5206
 6877TIP3   OH244825   1.300   4.957  11.728  0.5674 -0.1023 -0.4438
 6877TIP3    H144826   1.349   5.025  11.775  0.4811 -0.8648  0.8115
 6877TIP3    H244827   1.218   4.999  11.703  0.0132 -0.0408  1.3519
 6878TIP3   OH244828   5.185   5.530   9.470  0.1416 -0.4346 -0.3697
 6878TIP3    H144829   5.194   5.464   9.539 -2.0455 -0.5347 -0.1182
 6878TIP3    H244830   5.232   5.494   9.395  1.0103 -1.1474  0.4872
 6879TIP3   OH244831   5.757   0.344  11.483  0.1795  0.2251  0.8834
 6879TIP3    H144832   5.691   0.299  11.535 -1.9623  0.1483 -1.7289
 6879TIP3    H244833   5.803   0.275  11.436  0.2701  0.4612  0.6179
 6880TIP3   OH244834   2.856   0.819  10.092  0.7378 -0.1763 -0.1464
 6880TIP3    H144835   2.899   0.733  10.096  0.4095 -0.3147  0.5966
 6880TIP3    H244836   2.929   0.881  10.089  0.9872 -0.4557 -0.0121
 6881TIP3   OH244837   6.024   1.484  10.200 -0.3127  0.2527 -0.6531
 6881TIP3    H144838   6.055   1.431  10.273  0.1752  0.5376 -0.6445
 6881TIP3    H244839   5.964   1.547  10.240 -0.5416  0.0008 -0.5973
 6882TIP3   OH244840   1.822   6.770   8.373  0.6124 -0.3463  0.3261
 6882TIP3    H144841   1.853   6.773   8.463  1.5111  0.1917  0.0169
 6882TIP3    H244842   1.902   6.763   8.320  0.5120  3.4043 -0.6384
 6883TIP3   OH244843   3.242   3.854  11.079 -0.0743  0.6624  0.8406
 6883TIP3    H144844   3.155   3.819  11.061  0.0211 -0.0702  1.6754
 6883TIP3    H244845   3.227   3.925  11.141 -0.0909  0.5908  0.9192
 6884TIP3   OH244846   6.584   2.776   9.501 -0.3118 -0.4989 -0.6900
 6884TIP3    H144847   6.597   2.863   9.540  0.3042 -2.0745  2.9982
 6884TIP3    H244848   6.491   2.757   9.515  0.0223 -1.2859  0.5090
 6885TIP3   OH244849   3.370   5.474  10.880  0.0216  0.2517  0.1275
 6885TIP3    H144850   3.390   5.381  10.867 -1.4778 -0.1450  0.3903
 6885TIP3    H244851   3.450   5.511  10.917  0.3461 -1.1501  0.9139
 6886TIP3   OH244852   1.835   6.066  11.055 -0.0028 -0.0721  0.1581
 6886TIP3    H144853   1.768   6.099  10.997  0.2517 -0.6633 -0.4854
 6886TIP3    H244854   1.815   5.973  11.066 -0.5682  0.2012  1.7381
 6887TIP3   OH244855   4.779   1.683   9.495 -0.1981  0.2831 -0.0483
 6887TIP3    H144856   4.726   1.630   9.436 -1.1298 -0.3689  1.3343
 6887TIP3    H244857   4.838   1.621   9.538  0.3804  0.7330 -0.1657
 6888TIP3   OH244858   2.718   4.326  11.620 -0.1306 -0.4142  0.0817
 6888TIP3    H144859   2.735   4.238  11.655 -0.0074 -0.8873 -1.1077
 6888TIP3    H244860   2.626   4.324  11.593 -0.5120  0.2759  1.2835
 6889TIP3   OH244861   5.452   1.598   9.967  0.0662 -0.3350 -0.7517
 6889TIP3    H144862   5.434   1.689   9.944 -0.6744 -0.4194 -0.5156
 6889TIP3    H244863   5.400   1.546   9.905 -1.6991 -0.5693  0.8365
 6890TIP3   OH244864   2.376   5.785  10.344 -0.3872  0.3317  0.5033
 6890TIP3    H144865   2.449   5.765  10.285  2.0162 -0.4264  3.5199
 6890TIP3    H244866   2.368   5.881  10.339 -1.0064  0.2292 -1.7592
 6891TIP3   OH244867   0.824   1.454  11.159 -0.9444 -0.1140 -0.4450
 6891TIP3    H144868   0.824   1.390  11.087 -0.2588 -0.7552  0.1097
 6891TIP3    H244869   0.913   1.452  11.193 -1.1533  0.4945  0.1559
 6892TIP3   OH244870   6.601   0.909  10.097 -0.8778  0.3676  0.3642
 6892TIP3    H144871   6.623   0.818  10.081  1.1961  0.4204  2.4181
 6892TIP3    H244872   6.563   0.940  10.015  2.7681 -1.0307 -2.0846
 6893TIP3   OH244873   1.287   0.703   9.229  0.4605 -0.0038 -0.0800
 6893TIP3    H144874   1.319   0.781   9.274 -0.0061  0.4785 -0.5901
 6893TIP3    H244875   1.192   0.710   9.231  0.2824 -1.7961  2.0785
 6894TIP3   OH244876   3.448   6.047  10.989  0.2721  0.3140  0.5495
 6894TIP3    H144877   3.363   6.034  11.031 -0.4606 -0.2006 -1.0313
 6894TIP3    H244878   3.464   6.142  10.996 -1.4220  0.7657 -0.8805
 6895TIP3   OH244879   2.904   4.883  12.181  0.6021  0.2163  0.2673
 6895TIP3    H144880   2.991   4.886  12.143  0.6059 -1.0800  0.1212
 6895TIP3    H244881   2.885   4.974  12.205  1.2835  0.8025 -1.2533
 6896TIP3   OH244882   0.768   4.473   9.427  0.0770  0.7484 -0.1111
 6896TIP3    H144883   0.687   4.424   9.416  0.2266  0.9461 -2.7351
 6896TIP3    H244884   0.837   4.410   9.408  0.5011  0.9149  0.8170
 6897TIP3   OH244885   2.207   0.847   9.477  0.0777 -0.1596 -0.2643
 6897TIP3    H144886   2.214   0.940   9.457 -0.0370 -0.5609 -2.3992
 6897TIP3    H244887   2.148   0.844   9.553  2.3682  1.6178  1.7502
 6898TIP3   OH244888   0.491   2.729  10.195 -0.4309 -0.0387  1.0591
 6898TIP3    H144889   0.535   2.811  10.173 -0.3489 -0.6257 -1.2657
 6898TIP3    H244890   0.429   2.753  10.264  0.1232  1.8157  0.9807
 6899TIP3   OH244891   2.364   4.230   9.423 -0.3325  0.1762 -0.2882
 6899TIP3    H144892   2.412   4.228   9.339  1.7240  0.0322  0.8156
 6899TIP3    H244893   2.413   4.293   9.476 -1.0895 -0.3825  1.1095
 6900TIP3   OH244894   0.376   4.085   8.565  0.2321 -0.3600  0.1518
 6900TIP3    H144895   0.303   4.023   8.563  0.6709 -1.0153  1.9835
 6900TIP3    H244896   0.397   4.101   8.473 -0.0800 -2.7116 -0.3933
 6901TIP3   OH244897   2.239   6.677  11.462  0.3953  0.2380 -0.4220
 6901TIP3    H144898   2.160   6.723  11.434 -0.1285 -0.2204  0.2800
 6901TIP3    H244899   2.236   6.678  11.557  1.8018  1.1556 -0.3495
 6902TIP3   OH244900   2.179   1.285  11.816  0.1300 -0.2293 -0.7494
 6902TIP3    H144901   2.222   1.204  11.842  0.2223 -0.6853 -2.2063
 6902TIP3    H244902   2.085   1.263  11.816  0.0075  0.2219  0.6336
 6903TIP3   OH244903   0.346   2.848   9.630  0.0879 -0.6578 -0.2364
 6903TIP3    H144904   0.283   2.781   9.607 -0.9314 -0.0653  0.7462
 6903TIP3    H244905   0.365   2.893   9.548  1.4660 -2.6636 -1.0889
 6904TIP3   OH244906   6.106   3.532  10.810 -0.1650 -0.0710 -0.6363
 6904TIP3    H144907   6.100   3.441  10.841  1.8360  0.2257  0.7783
 6904TIP3    H244908   6.129   3.524  10.717 -3.3169 -0.9635 -1.4638
 6905TIP3   OH244909   3.232   5.643   8.795  0.2682 -0.4987  0.3237
 6905TIP3    H144910   3.256   5.704   8.725  0.6746 -0.0411  0.8505
 6905TIP3    H244911   3.137   5.638   8.791  0.1490  0.9192  0.8699
 6906TIP3   OH244912   5.815   2.459   8.666 -0.0833  0.6609  0.3506
 6906TIP3    H144913   5.759   2.468   8.743  0.9976 -0.4631  1.3236
 6906TIP3    H244914   5.886   2.402   8.695  0.2471  0.0282 -1.5535
 6907TIP3   OH244915   3.048   0.298  11.983 -0.1892 -0.1477 -0.4911
 6907TIP3    H144916   3.101   0.371  11.952  0.9157 -0.4574  0.5867
 6907TIP3    H244917   2.987   0.338  12.045 -0.6385  0.0781 -1.0707
 6908TIP3   OH244918   4.169   3.651   9.821  0.0839  0.2584  0.5812
 6908TIP3    H144919   4.107   3.578   9.819  0.7520 -0.3670  1.5810
 6908TIP3    H244920   4.255   3.609   9.818  0.4723  1.0194  0.7900
 6909TIP3   OH244921   6.766   1.560  10.742  0.0306  0.0223  0.1644
 6909TIP3    H144922   6.774   1.482  10.797 -0.5849 -0.2072 -0.0722
 6909TIP3    H244923   6.672   1.578  10.739  0.1368  0.5456 -0.1029
 6910TIP3   OH244924   4.430   1.003  10.156  0.4287 -0.4106 -0.5752
 6910TIP3    H144925   4.484   0.947  10.100  0.1861 -0.5793 -0.6429
 6910TIP3    H244926   4.358   1.031  10.100  0.4310 -0.2078 -0.4772
 6911TIP3   OH244927   3.111   4.910  10.025 -0.4577  0.0014  0.3987
 6911TIP3    H144928   3.016   4.905  10.028 -0.4929  0.3706  0.0340
 6911TIP3    H244929   3.137   4.838   9.968 -0.6073  0.6253 -0.4875
 6912TIP3   OH244930   5.351   0.317  10.210 -0.0555  0.2787 -0.0036
 6912TIP3    H144931   5.354   0.326  10.115 -2.0266 -0.0901 -0.1380
 6912TIP3    H244932   5.339   0.406  10.242 -2.4499  0.1433 -0.3317
 6913TIP3   OH244933   0.234   4.312  10.099 -0.5095 -0.2098 -0.1202
 6913TIP3    H144934   0.172   4.324  10.170  1.4853  0.2720  1.6343
 6913TIP3    H244935   0.190   4.349  10.022 -1.1913  3.1513  1.6879
 6914TIP3   OH244936   2.089   5.338  11.981 -0.3211 -0.7104  0.0185
 6914TIP3    H144937   2.007   5.311  12.023  0.2095 -0.8382  0.9935
 6914TIP3    H244938   2.125   5.405  12.039 -0.3756  0.3210 -1.0857
 6915TIP3   OH244939   0.523   0.004  11.537  0.3332  0.2248  0.3430
 6915TIP3    H144940   0.508   0.087  11.580  0.5252 -0.3988  1.6562
 6915TIP3    H244941   0.619  -0.007  11.537  0.3008 -0.0882  0.3529
 6916TIP3   OH244942   0.518   5.310   8.850 -0.5669 -0.3618 -0.4030
 6916TIP3    H144943   0.446   5.280   8.905 -1.2724  0.6441 -0.7399
 6916TIP3    H244944   0.476   5.362   8.781  0.3942 -0.5885 -1.1954
 6917TIP3   OH244945   0.775   1.297   9.452 -0.0595 -0.2845  0.3164
 6917TIP3    H144946   0.857   1.285   9.404 -0.8770  0.1145 -1.2406
 6917TIP3    H244947   0.801   1.342   9.533  1.0888  1.2250 -0.8246
 6918TIP3   OH244948   4.602   0.381   9.861 -0.2898  0.0138 -0.1573
 6918TIP3    H144949   4.656   0.338   9.928 -0.7057  0.7380  0.6723
 6918TIP3    H244950   4.551   0.446   9.910  0.5268  1.6736 -1.4038
 6919TIP3   OH244951   1.854   5.522  11.862  0.1367 -0.0664 -0.1743
 6919TIP3    H144952   1.761   5.545  11.861 -0.4033 -2.0324 -0.0094
 6919TIP3    H244953   1.860   5.443  11.809  1.6640 -0.2018  0.1466
 6920TIP3   OH244954   0.309   1.879  10.657  0.2501 -0.2964  0.4252
 6920TIP3    H144955   0.234   1.820  10.659  0.2449 -0.3072  0.0068
 6920TIP3    H244956   0.379   1.827  10.617  0.8024 -0.6501  1.7918
 6921TIP3   OH244957   4.117   2.491  10.398  0.3590  0.2000 -0.4721
 6921TIP3    H144958   4.024   2.507  10.413  0.5881  2.6601 -1.1214
 6921TIP3    H244959   4.154   2.480  10.486 -0.5702 -1.2522 -0.2314
 6922TIP3   OH244960   1.362   2.442  11.526  0.3059  0.4213 -0.0965
 6922TIP3    H144961   1.414   2.369  11.493  1.1987 -0.2578  2.5700
 6922TIP3    H244962   1.388   2.516  11.470  0.8228 -0.8479 -1.6252
 6923TIP3   OH244963   0.881   6.153   9.693 -0.0013  0.3526 -0.1668
 6923TIP3    H144964   0.956   6.107   9.656 -0.8876 -0.6501 -0.7372
 6923TIP3    H244965   0.835   6.087   9.745  0.3299  1.3339  1.4664
 6924TIP3   OH244966   3.363   2.530   8.852  0.4544 -0.5394  0.0176
 6924TIP3    H144967   3.348   2.462   8.917 -0.2185  0.9394  1.4620
 6924TIP3    H244968   3.457   2.547   8.856  0.2327  0.4868  1.6323
 6925TIP3   OH244969   3.301   5.526  12.310  0.2820 -0.4221 -0.4036
 6925TIP3    H144970   3.391   5.542  12.284 -0.1690  2.3853 -0.5291
 6925TIP3    H244971   3.295   5.431  12.320  3.0622 -0.7255 -0.9622
 6926TIP3   OH244972   6.272   5.123  10.497 -0.2294 -0.1307  0.2689
 6926TIP3    H144973   6.204   5.120  10.429  0.8303  1.9908 -0.9681
 6926TIP3    H244974   6.305   5.033  10.500 -2.2170 -0.9442  0.0549
 6927TIP3   OH244975   5.384   0.673  11.954 -0.3900 -0.2275  0.2134
 6927TIP3    H144976   5.368   0.596  12.008  1.1784  0.2053  1.3488
 6927TIP3    H244977   5.299   0.691  11.913 -1.4891 -0.9787  2.0071
 6928TIP3   OH244978   3.162   4.383   9.552 -0.0092  0.3498  0.1608
 6928TIP3    H144979   3.252   4.412   9.565 -0.1262  1.0198 -0.4760
 6928TIP3    H244980   3.112   4.463   9.536 -1.0115  0.1536  1.9847
 6929TIP3   OH244981   3.297   4.561   8.545 -0.1859 -0.1767 -0.5481
 6929TIP3    H144982   3.318   4.488   8.487  0.0518 -0.0769 -0.5882
 6929TIP3    H244983   3.381   4.586   8.583  0.1446  1.6098 -2.3041
 6930TIP3   OH244984   2.469   5.861  11.583 -0.5034  0.6246 -0.3154
 6930TIP3    H144985   2.434   5.944  11.551 -1.3217  0.2596 -0.4060
 6930TIP3    H244986   2.431   5.851  11.670 -0.9502  0.0319 -0.5713
 6931TIP3   OH244987   2.402   3.093  10.301  0.1382  1.4274 -0.2954
 6931TIP3    H144988   2.332   3.105  10.237 -0.4192 -1.2774 -0.3083
 6931TIP3    H244989   2.464   3.033  10.258  0.3362  0.4758  1.2444
 6932TIP3   OH244990   1.465   2.173   9.031 -0.3894 -0.1070  0.3803
 6932TIP3    H144991   1.560   2.163   9.035 -0.5023 -0.8822  1.7711
 6932TIP3    H244992   1.449   2.263   9.059 -0.0614  0.0596  0.0330
 6933TIP3   OH244993   6.494   4.718   8.721 -0.2598 -0.2955 -0.3088
 6933TIP3    H144994   6.555   4.771   8.670 -1.2566 -1.0509 -2.4404
 6933TIP3    H244995   6.547   4.646   8.755  0.4845  0.3406 -0.0954
 6934TIP3   OH244996   3.715   0.969  10.338 -0.2699  0.8176 -0.1188
 6934TIP3    H144997   3.743   0.982  10.248 -1.8105  0.9240 -0.6180
 6934TIP3    H244998   3.627   1.008  10.342 -1.0100 -0.8351  0.9139
 6935TIP3   OH244999   4.070   3.412  10.090 -1.2879  0.0362 -0.4637
 6935TIP3    H145000   4.020   3.344  10.136 -2.2456 -0.8190 -2.6395
 6935TIP3    H245001   4.086   3.478  10.157 -1.3875 -1.7499  1.4402
 6936TIP3   OH245002   4.955   6.738  10.262 -0.0387 -0.9400 -0.1499
 6936TIP3    H145003   5.033   6.713  10.212  1.2629 -1.9489  2.2373
 6936TIP3    H245004   4.890   6.670  10.240 -0.2748 -0.1468 -2.0777
 6937TIP3   OH245005   1.540   2.487   9.592 -0.3338  0.8848 -0.4238
 6937TIP3    H145006   1.631   2.516   9.602 -0.3727  1.1314 -0.7606
 6937TIP3    H245007   1.489   2.568   9.596 -0.8480  0.5713  2.8784
 6938TIP3   OH245008   6.667   0.108   9.605 -0.5538 -0.2570 -0.5317
 6938TIP3    H145009   6.713   0.102   9.689 -0.0866  0.3529 -0.7388
 6938TIP3    H245010   6.610   0.031   9.604  0.0739 -0.7428 -0.0336
 6939TIP3   OH245011   4.039   2.074  10.800 -0.5099 -0.1245  0.0475
 6939TIP3    H145012   4.102   2.089  10.870  0.0337 -0.5484 -0.3438
 6939TIP3    H245013   4.012   2.162  10.772  1.6734  0.1685 -1.3666
 6940TIP3   OH245014   4.161   3.670  11.029 -0.4067 -0.6678 -0.7545
 6940TIP3    H145015   4.248   3.694  10.999 -0.5628 -0.2594 -0.8835
 6940TIP3    H245016   4.110   3.657  10.949 -0.1755 -2.0300 -0.7141
 6941TIP3   OH245017   6.112   3.789  10.002 -0.3976 -0.5852  0.2394
 6941TIP3    H145018   6.070   3.709  10.035 -0.5547 -0.6224 -0.0497
 6941TIP3    H245019   6.174   3.813  10.071  0.6354 -1.7096 -0.2628
 6942TIP3   OH245020   1.599   0.631   9.508 -0.2041  0.0411 -0.0521
 6942TIP3    H145021   1.604   0.631   9.412  0.3891  0.1399 -0.0268
 6942TIP3    H245022   1.617   0.541   9.533  1.7642  0.4106  0.0430
 6943TIP3   OH245023   5.398   0.567   9.475 -0.6251  0.1543 -0.4778
 6943TIP3    H145024   5.470   0.527   9.426 -0.3996  1.4295 -1.2360
 6943TIP3    H245025   5.338   0.494   9.493  0.3319 -0.7243 -0.7737
 6944TIP3   OH245026   0.961   6.400  10.972  0.3379  0.2314  0.6425
 6944TIP3    H145027   0.913   6.438  11.046  1.2300  0.8736  0.9195
 6944TIP3    H245028   1.044   6.447  10.972  0.9724 -0.8595  0.1862
 6945TIP3   OH245029   2.964   3.487   9.379  0.0619 -0.0251 -0.3578
 6945TIP3    H145030   3.003   3.573   9.389  1.0777 -0.6419  1.4519
 6945TIP3    H245031   2.890   3.500   9.320 -1.4361  2.5912  1.8980
 6946TIP3   OH245032   1.098   6.465  12.199  0.4022  0.1348  0.0294
 6946TIP3    H145033   1.005   6.465  12.217  0.3554  1.7035 -0.1203
 6946TIP3    H245034   1.109   6.528  12.127  1.6475  0.4811  0.4945
 6947TIP3   OH245035   1.998   0.419  11.410 -0.5857  0.0758 -0.1705
 6947TIP3    H145036   2.025   0.375  11.329 -1.6369 -0.8918 -0.0208
 6947TIP3    H245037   2.081   0.446  11.451 -0.0359  0.4078 -1.4592
 6948TIP3   OH245038   6.153   4.180  10.147  0.8038  0.2851  0.2851
 6948TIP3    H145039   6.186   4.126  10.075 -1.2134 -0.9697  0.2144
 6948TIP3    H245040   6.157   4.122  10.223 -2.4040 -0.4930  0.0035
 6949TIP3   OH245041   3.831   0.638  10.436 -0.6962  0.4608  0.0426
 6949TIP3    H145042   3.806   0.587  10.359  0.9034 -0.5523  0.1431
 6949TIP3    H245043   3.789   0.593  10.509 -1.7322  1.0760 -0.1601
 6950TIP3   OH245044   1.363   2.677   9.497 -0.0512 -0.5952  0.2814
 6950TIP3    H145045   1.391   2.735   9.427 -0.4278 -0.3648  0.3187
 6950TIP3    H245046   1.310   2.611   9.454 -0.6836 -0.1815  0.4025
 6951TIP3   OH245047   6.570   5.136  11.187 -0.0630 -0.2754  0.0215
 6951TIP3    H145048   6.595   5.059  11.239 -0.0095 -0.9751 -0.9995
 6951TIP3    H245049   6.586   5.109  11.096 -1.9276  0.2186 -0.4999
 6952TIP3   OH245050   2.923   0.899   9.187  0.1750 -1.0642  0.0262
 6952TIP3    H145051   2.915   0.827   9.125 -1.2420  0.1470 -1.2823
 6952TIP3    H245052   3.009   0.937   9.168  0.6107 -1.9140  0.2227
 6953TIP3   OH245053   3.140   3.924   9.195 -0.5090  0.0043 -0.1337
 6953TIP3    H145054   3.234   3.936   9.204 -0.6444  1.1974 -0.1776
 6953TIP3    H245055   3.127   3.898   9.104 -0.2345 -0.0244 -0.1643
 6954TIP3   OH245056   2.590   2.395  10.921 -0.2113  0.3431  0.1252
 6954TIP3    H145057   2.602   2.489  10.907  0.5785  0.0306 -1.7001
 6954TIP3    H245058   2.619   2.355  10.838  0.0204 -1.5425  1.0580
 6955TIP3   OH245059   0.204   5.296  10.665  0.4639 -0.1303  0.2259
 6955TIP3    H145060   0.184   5.369  10.607 -0.4153 -0.2489  0.3713
 6955TIP3    H245061   0.140   5.304  10.736 -1.3018 -2.4563 -0.9769
 6956TIP3   OH245062   1.272   5.867   9.745 -0.5579  0.7496  0.2283
 6956TIP3    H145063   1.290   5.798   9.681 -1.1283  0.0045  0.8560
 6956TIP3    H245064   1.329   5.848   9.819  0.5801  1.9901 -0.3021
 6957TIP3   OH245065   5.784   3.186   9.817  0.0776 -0.3633 -0.1382
 6957TIP3    H145066   5.843   3.210   9.888 -0.8537 -1.4466  1.0385
 6957TIP3    H245067   5.731   3.264   9.802  1.7302  0.6232 -1.1952
 6958TIP3   OH245068   6.480   5.843  11.108  0.1616 -0.1823 -0.3074
 6958TIP3    H145069   6.574   5.830  11.114 -0.0430 -1.7733 -0.0071
 6958TIP3    H245070   6.451   5.779  11.042 -0.8882 -0.9484  0.8336
 6959TIP3   OH245071   6.516   2.016  10.460 -0.0029 -0.3122 -0.8592
 6959TIP3    H145072   6.428   2.049  10.441  0.3892  1.5950  0.3291
 6959TIP3    H245073   6.531   2.040  10.552  1.5197 -1.1670 -0.8521
 6960TIP3   OH245074   2.844   4.653  12.312  0.0266  0.1404  0.3305
 6960TIP3    H145075   2.769   4.679  12.365 -0.8682  1.3191 -1.4461
 6960TIP3    H245076   2.876   4.734  12.274  0.1497 -0.7281 -1.5430
 6961TIP3   OH245077   0.612   3.935   8.605  0.0190 -0.2069 -0.3033
 6961TIP3    H145078   0.592   3.845   8.581  0.3168  0.0989 -1.7820
 6961TIP3    H245079   0.528   3.981   8.600  0.1326 -0.0793 -1.0859
 6962TIP3   OH245080   4.791   0.203  10.674 -0.2297 -0.4623  0.1512
 6962TIP3    H145081   4.783   0.200  10.579 -1.8357  2.5734  0.0498
 6962TIP3    H245082   4.864   0.262  10.691 -0.8742  0.2074  0.7260
 6963TIP3   OH245083   3.309   0.995  11.481 -0.4063  0.0393  0.4289
 6963TIP3    H145084   3.369   0.968  11.550 -0.4261 -0.7702  0.1353
 6963TIP3    H245085   3.270   0.914  11.449  0.7037  0.2292 -1.5421
 6964TIP3   OH245086   3.443   5.181   9.439 -0.3774  0.0891  0.2574
 6964TIP3    H145087   3.415   5.155   9.526  2.0118  1.8098  1.6650
 6964TIP3    H245088   3.391   5.259   9.419 -0.3629  0.1679  0.5203
 6965TIP3   OH245089   5.540   2.325  10.425  0.5943  0.2727  0.5708
 6965TIP3    H145090   5.623   2.351  10.386  1.2031 -1.1894  0.8106
 6965TIP3    H245091   5.491   2.406  10.433  2.6674  1.5139  2.0162
 6966TIP3   OH245092   5.307   5.910   9.428 -0.1186  0.2962 -0.1190
 6966TIP3    H145093   5.373   5.904   9.497 -0.8337  0.5981  0.6135
 6966TIP3    H245094   5.290   5.820   9.402 -0.3279  0.1242  0.5869
 6967TIP3   OH245095   3.465   5.293  10.485 -0.0426  0.0730  0.3559
 6967TIP3    H145096   3.473   5.229  10.555 -0.2825  0.1059  0.4157
 6967TIP3    H245097   3.386   5.342  10.507 -0.2553 -0.0790 -0.0708
 6968TIP3   OH245098   5.406   5.002   9.403 -0.2372  0.0340  0.5883
 6968TIP3    H145099   5.486   5.003   9.455 -0.1987 -0.1547  0.5334
 6968TIP3    H245100   5.396   4.911   9.376  0.3547  0.3291 -0.6803
 6969TIP3   OH245101   3.145   4.463  11.441 -0.1776  0.2501 -0.4763
 6969TIP3    H145102   3.229   4.423  11.463 -0.6971  0.0014  1.1578
 6969TIP3    H245103   3.168   4.547  11.402  0.8470 -0.4237 -1.3899
 6970TIP3   OH245104   2.687   3.856   9.845 -0.3809 -0.6495 -0.3083
 6970TIP3    H145105   2.599   3.873   9.879 -0.9569 -0.3928 -1.8652
 6970TIP3    H245106   2.680   3.774   9.797  0.3581 -0.8969 -0.0145
 6971TIP3   OH245107   4.318   5.487  11.607  0.0447  0.4143 -0.3947
 6971TIP3    H145108   4.287   5.409  11.561  0.0871  0.1092  0.0881
 6971TIP3    H245109   4.407   5.465  11.634 -0.8576 -0.4663  2.1537
 6972TIP3   OH245110   1.947   4.796  10.200  0.4300 -0.1176  0.1531
 6972TIP3    H145111   1.939   4.839  10.115  1.9962 -1.0165 -0.4874
 6972TIP3    H245112   1.913   4.707  10.186 -2.6592  0.7115  1.4300
 6973TIP3   OH245113   4.168   1.990   9.008  0.5847  0.1889  0.3878
 6973TIP3    H145114   4.179   1.975   8.914  1.7336  1.0040  0.3595
 6973TIP3    H245115   4.117   2.071   9.013  2.0535  1.1689  0.4017
 6974TIP3   OH245116   2.747   4.734  10.779 -0.4531  0.1169  0.0265
 6974TIP3    H145117   2.843   4.729  10.775 -0.3348  2.2615 -1.5001
 6974TIP3    H245118   2.729   4.816  10.825 -1.5516  0.1635 -0.4639
 6975TIP3   OH245119   1.361   2.039  10.096  0.5734  0.1858 -0.1397
 6975TIP3    H145120   1.268   2.061  10.102  0.6905  1.1531 -1.2878
 6975TIP3    H245121   1.363   1.953  10.055  0.1781 -0.1964  0.6228
 6976TIP3   OH245122   3.143   3.512  10.608  0.1354  0.0676 -0.3581
 6976TIP3    H145123   3.210   3.471  10.554  1.2499 -0.0637  1.0647
 6976TIP3    H245124   3.093   3.439  10.643  1.3025 -0.0733  1.1310
 6977TIP3   OH245125   4.817   0.894  10.298 -0.3573 -0.4360  0.2943
 6977TIP3    H145126   4.851   0.980  10.273 -0.0693  0.1830  2.5868
 6977TIP3    H245127   4.894   0.838  10.302  0.2231  0.4004  3.2344
 6978TIP3   OH245128   6.629   2.285   9.240 -0.1014 -0.1006 -0.2746
 6978TIP3    H145129   6.549   2.233   9.236  0.0114 -0.5742  2.1097
 6978TIP3    H245130   6.606   2.359   9.296  0.6991  0.6308 -0.8869
 6979TIP3   OH245131   2.414   3.308  11.432 -0.2969 -0.1952  1.1033
 6979TIP3    H145132   2.334   3.285  11.479 -0.8508 -0.0424  0.2481
 6979TIP3    H245133   2.417   3.403  11.433 -1.6815 -0.0475 -1.3409
 6980TIP3   OH245134   2.488   4.755  10.686 -0.2976 -0.7885 -1.0078
 6980TIP3    H145135   2.442   4.719  10.762 -1.8951  1.2635 -0.9136
 6980TIP3    H245136   2.581   4.746  10.707 -0.6073  1.7763  2.3620
 6981TIP3   OH245137   4.474   2.375   8.650  0.6653 -0.4881  0.1789
 6981TIP3    H145138   4.408   2.445   8.647 -1.6942 -2.4135  2.2106
 6981TIP3    H245139   4.542   2.408   8.709  0.3872  0.6794 -0.1311
 6982TIP3   OH245140   4.872   3.681  10.813  0.0173  0.0666 -0.0992
 6982TIP3    H145141   4.940   3.741  10.786  0.5673 -0.7657 -0.6235
 6982TIP3    H245142   4.873   3.684  10.908  0.5183  0.3501 -0.1116
 6983TIP3   OH245143   5.222   5.425   9.215  0.1514 -0.1518  0.1741
 6983TIP3    H145144   5.252   5.340   9.247  0.3292 -0.5532 -1.0134
 6983TIP3    H245145   5.129   5.414   9.200  0.4554 -0.6754 -1.5431
 6984TIP3   OH245146   4.878   4.401  11.427  0.1118 -0.2200  0.2494
 6984TIP3    H145147   4.851   4.441  11.510  0.5176 -1.1453  0.8484
 6984TIP3    H245148   4.824   4.322  11.420  1.1571 -0.9775  0.4263
 6985TIP3   OH245149   0.277   1.580  10.643 -0.5489  0.7840 -0.2261
 6985TIP3    H145150   0.351   1.567  10.702  0.3410  0.0189 -1.4617
 6985TIP3    H245151   0.211   1.517  10.672 -0.3063  0.7361  0.2301
 6986TIP3   OH245152   5.293   4.669   9.712 -0.0846 -0.5407 -0.4961
 6986TIP3    H145153   5.274   4.604   9.644 -1.1747 -1.2006  0.4043
 6986TIP3    H245154   5.233   4.741   9.693 -0.5597 -0.8281 -0.1057
 6987TIP3   OH245155   3.349   5.111   9.132 -0.3451  0.6197  0.2277
 6987TIP3    H145156   3.342   5.023   9.170  0.3524 -0.0681 -1.1437
 6987TIP3    H245157   3.315   5.169   9.199  0.1337 -0.6057  1.5865
 6988TIP3   OH245158   3.380   4.914   9.351  0.1445 -0.1415  0.5468
 6988TIP3    H145159   3.388   4.999   9.394 -2.1990 -0.3806  1.5846
 6988TIP3    H245160   3.416   4.852   9.415  1.5406 -0.0088 -0.0730
 6989TIP3   OH245161   0.184   5.442  10.261  0.5307 -0.1808  0.0383
 6989TIP3    H145162   0.133   5.491  10.325 -0.4634 -0.1722 -0.7458
 6989TIP3    H245163   0.166   5.350  10.282 -1.3998 -0.2043 -1.4108
 6990TIP3   OH245164   1.188   5.531   9.690  0.2296  0.3722  0.2491
 6990TIP3    H145165   1.212   5.442   9.714 -0.3575 -0.3450 -1.6164
 6990TIP3    H245166   1.272   5.576   9.676  0.5756 -0.7387 -1.5565
 6991TIP3   OH245167   2.849   0.069   9.969  0.8812 -0.2484  0.3992
 6991TIP3    H145168   2.760   0.056  10.002  1.0246  1.3587  1.5343
 6991TIP3    H245169   2.856   0.009   9.895 -1.0585 -0.5698  0.4181
 6992TIP3   OH245170   1.277   4.111  10.285 -0.6716  0.1447  0.3748
 6992TIP3    H145171   1.205   4.098  10.224 -0.1941 -2.3259  0.2258
 6992TIP3    H245172   1.353   4.073  10.241  0.7131  2.4403  0.6397
 6993TIP3   OH245173   0.771   3.589  10.445 -0.0801 -0.5850  0.2180
 6993TIP3    H145174   0.824   3.536  10.505 -0.7431 -0.7474  0.6654
 6993TIP3    H245175   0.739   3.526  10.380  0.1137 -0.5212  0.0604
 6994TIP3   OH245176   4.497   5.468  10.471  0.2048  0.3273  0.1075
 6994TIP3    H145177   4.459   5.386  10.503  0.7493  0.7184  1.8676
 6994TIP3    H245178   4.426   5.510  10.423 -0.6007 -0.4309  0.5959
 6995TIP3   OH245179   4.097   6.034  11.675 -0.6802 -0.5322 -0.3876
 6995TIP3    H145180   4.105   5.946  11.639  2.9120 -0.5366  0.0564
 6995TIP3    H245181   4.039   6.025  11.750  0.3909 -2.7436  0.2444
 6996TIP3   OH245182   1.238   2.153  11.029  0.2333  0.1842 -0.2262
 6996TIP3    H145183   1.158   2.104  11.048  0.1054 -0.0161 -1.2568
 6996TIP3    H245184   1.210   2.245  11.025 -0.0402  0.0669 -1.0799
 6997TIP3   OH245185   4.892   2.575   8.656 -0.1738  0.0606 -0.1020
 6997TIP3    H145186   4.962   2.514   8.632  1.8052  1.3926  1.9227
 6997TIP3    H245187   4.914   2.656   8.610  0.2510  0.7888  1.3149
 6998TIP3   OH245188   4.911   3.198  11.479  0.3809 -0.3471  0.0622
 6998TIP3    H145189   4.865   3.152  11.409 -1.1266  1.0592  0.0492
 6998TIP3    H245190   5.000   3.209  11.447 -0.6566  1.8094 -2.5356
 6999TIP3   OH245191   3.196   6.248  12.153 -0.3214 -0.0857 -0.3194
 6999TIP3    H145192   3.268   6.275  12.096 -0.3802 -0.6035 -0.6481
 6999TIP3    H245193   3.177   6.325  12.206 -0.7248  0.6484 -1.4827
 7000TIP3   OH245194   3.962   4.417  10.335  0.5354  0.2305  0.4642
 7000TIP3    H145195   4.050   4.379  10.334  0.9834  1.2068  1.0799
 7000TIP3    H245196   3.976   4.510  10.320 -0.3129  0.5227  1.3636
 7001TIP3   OH245197   0.745   0.397  11.028  0.7360 -0.1253  0.0484
 7001TIP3    H145198   0.695   0.421  11.106  0.7913  0.5730 -0.1209
 7001TIP3    H245199   0.824   0.355  11.062  1.6003  1.7326  0.4645
 7002TIP3   OH245200   2.480   0.883  11.226 -0.2452  0.0375  0.0380
 7002TIP3    H145201   2.533   0.880  11.147 -0.6690  1.7626 -0.3529
 7002TIP3    H245202   2.393   0.908  11.196  0.1812  3.4744  1.2076
 7003TIP3   OH245203   4.570   3.199  11.370  0.2618  0.3980  0.2149
 7003TIP3    H145204   4.635   3.131  11.352 -1.6728 -1.4520 -0.3248
 7003TIP3    H245205   4.559   3.196  11.465  0.4232  0.1619  0.2286
 7004TIP3   OH245206   1.735   1.607  10.967  0.0729 -0.1058 -0.2986
 7004TIP3    H145207   1.671   1.662  10.924  0.0450  0.5808  0.5922
 7004TIP3    H245208   1.685   1.532  11.000 -0.0589 -0.1712 -0.6510
 7005TIP3   OH245209   1.165   1.582   9.890 -0.0739  0.3626  0.2445
 7005TIP3    H145210   1.106   1.625   9.828  0.3599 -1.6939 -1.6947
 7005TIP3    H245211   1.212   1.655   9.931 -0.2082  1.8205 -2.0080
 7006TIP3   OH245212   5.470   4.884   9.710 -0.2204  0.5717 -0.1184
 7006TIP3    H145213   5.403   4.952   9.719 -1.4427 -0.0628 -3.1846
 7006TIP3    H245214   5.420   4.802   9.709  0.6479  0.0239 -1.5112
 7007TIP3   OH245215   4.635   0.742  10.438  0.0511  0.2361 -0.2290
 7007TIP3    H145216   4.660   0.787  10.518 -0.3007 -1.4493  0.8659
 7007TIP3    H245217   4.676   0.793  10.368  2.5727  0.2900  1.1804
 7008TIP3   OH245218   6.274   3.849   9.072  0.4594  0.0509 -1.0502
 7008TIP3    H145219   6.260   3.913   9.142  1.6124 -0.5624 -0.2161
 7008TIP3    H245220   6.226   3.772   9.100  0.5177 -0.0301 -1.1729
 7009TIP3   OH245221   2.292   0.421  11.283  0.4514  0.2043 -0.2854
 7009TIP3    H145222   2.312   0.451  11.371  0.9526  0.3494 -0.4463
 7009TIP3    H245223   2.377   0.416  11.239  0.1111  1.0658 -1.0603
 7010TIP3   OH245224   0.722   4.870   9.337 -0.7659 -0.3530  0.2646
 7010TIP3    H145225   0.721   4.817   9.257 -0.4216  0.8635 -0.5667
 7010TIP3    H245226   0.677   4.815   9.402 -2.5036 -0.7310 -1.1683
 7011TIP3   OH245227   6.185   4.767   8.544 -0.2854  0.1820  0.4058
 7011TIP3    H145228   6.169   4.758   8.638 -1.6198 -1.1303  0.0831
 7011TIP3    H245229   6.175   4.679   8.509 -0.0473  0.6861 -1.0234
 7012TIP3   OH245230   1.064   3.279   9.803 -0.0200 -0.1158 -0.0171
 7012TIP3    H145231   1.080   3.292   9.896 -1.1740  0.4476  0.1308
 7012TIP3    H245232   1.107   3.196   9.782  2.1638  0.8201  0.4897
 7013TIP3   OH245233   6.360   4.668   9.690 -0.2665 -0.3954 -0.0224
 7013TIP3    H145234   6.428   4.707   9.635  0.4251 -0.4885  0.7345
 7013TIP3    H245235   6.279   4.711   9.663  0.2795  0.6244 -0.1054
 7014TIP3   OH245236   0.663   2.167   9.582  0.5527 -0.7381  0.2136
 7014TIP3    H145237   0.582   2.146   9.629 -0.0307  0.1375 -0.3664
 7014TIP3    H245238   0.638   2.235   9.520  1.2581 -2.0396 -1.5684
 7015TIP3   OH245239   4.621   0.073  10.830  0.2431  0.2585 -0.1908
 7015TIP3    H145240   4.586   0.009  10.767 -0.1883  2.0405 -1.8399
 7015TIP3    H245241   4.690   0.119  10.782  1.2266  0.3892  1.2989
 7016TIP3   OH245242   4.649   5.606   9.129 -0.5825  0.2370  0.4384
 7016TIP3    H145243   4.695   5.602   9.213  0.1310 -0.0189  0.0403
 7016TIP3    H245244   4.613   5.695   9.126 -0.7434  0.2039  1.0704
 7017TIP3   OH245245   0.911   5.992  12.079 -0.1970 -0.6667 -0.3265
 7017TIP3    H145246   0.997   6.010  12.118 -0.5969  1.3699 -0.2643
 7017TIP3    H245247   0.923   5.910  12.031  1.6359 -0.7038  0.1214
 7018TIP3   OH245248   2.766   4.478   9.466 -0.6674 -0.5417  0.0495
 7018TIP3    H145249   2.790   4.452   9.377 -0.3595 -0.8902  0.2307
 7018TIP3    H245250   2.690   4.534   9.455 -0.5950 -0.5356 -0.4399
 7019TIP3   OH245251   1.583   5.555  11.884  0.2523  0.1036  0.5983
 7019TIP3    H145252   1.490   5.571  11.895  0.2486  0.3188  0.2603
 7019TIP3    H245253   1.592   5.460  11.886 -0.0383  0.0633  0.1335
 7020TIP3   OH245254   4.198   0.660   9.259 -0.5585 -0.5485  0.0115
 7020TIP3    H145255   4.258   0.637   9.188  0.9757 -0.0859  1.1056
 7020TIP3    H245256   4.184   0.579   9.307 -0.4368 -0.5592  0.0279
 7021TIP3   OH245257   4.619   6.075   9.882 -0.4759  0.2838 -0.1688
 7021TIP3    H145258   4.644   6.009   9.946 -0.2073  0.6880  0.1519
 7021TIP3    H245259   4.525   6.088   9.897 -0.2888  0.8322  0.5832
 7022TIP3   OH245260   4.979   3.877   8.637  0.2147  0.1940 -0.3234
 7022TIP3    H145261   5.060   3.881   8.586  0.4172  2.0304  0.0659
 7022TIP3    H245262   5.007   3.875   8.728 -0.1777 -0.7106 -0.2090
 7023TIP3   OH245263   3.481   0.195  10.331 -0.2337  0.3158 -0.1344
 7023TIP3    H145264   3.495   0.175  10.239  1.2101 -0.0174  0.1456
 7023TIP3    H245265   3.415   0.265  10.330  0.4239  0.9604 -1.4563
 7024TIP3   OH245266   0.028   1.529   9.584  0.3464  0.1611 -0.0265
 7024TIP3    H145267   0.021   1.494   9.673  0.6680 -2.4306 -0.9403
 7024TIP3    H245268  -0.055   1.506   9.543 -0.2090  2.2267 -0.1602
 7025TIP3   OH245269   5.566   5.221   9.062  0.3111 -0.0173  0.3767
 7025TIP3    H145270   5.638   5.159   9.052  0.7147  0.4516  0.3244
 7025TIP3    H245271   5.598   5.287   9.123 -0.2456 -0.0486  0.7153
 7026TIP3   OH245272   6.227   5.870  10.622  0.2471 -0.6692  0.2782
 7026TIP3    H145273   6.249   5.934  10.689 -1.5497 -1.5146  1.7585
 7026TIP3    H245274   6.253   5.786  10.658 -0.7606 -1.1426 -0.0398
 7027TIP3   OH245275   2.491   4.706   9.567 -0.0454 -0.2734 -0.4733
 7027TIP3    H145276   2.461   4.685   9.478  1.1332 -1.4468 -0.6253
 7027TIP3    H245277   2.539   4.788   9.558  2.3857 -1.7115 -1.4864
 7028TIP3   OH245278   2.001   6.290  11.064  0.0178  0.6255 -0.0827
 7028TIP3    H145279   1.922   6.236  11.058  0.4294 -0.0915  0.6065
 7028TIP3    H245280   2.037   6.292  10.976 -0.1390 -0.0417 -0.1655
 7029TIP3   OH245281   2.181   5.940   8.380  0.4358  0.0366  0.7520
 7029TIP3    H145282   2.210   5.984   8.460  0.7100 -0.4172  0.9085
 7029TIP3    H245283   2.259   5.940   8.324  0.9874 -1.8138  1.4483
 7030TIP3   OH245284   6.089   4.848  10.728  1.0054 -0.1470 -1.0080
 7030TIP3    H145285   6.146   4.778  10.761 -0.5599 -0.5930  0.9262
 7030TIP3    H245286   6.046   4.810  10.651 -0.4464 -1.6994  0.4833
 7031TIP3   OH245287   4.896   5.961  10.815  0.0564 -0.0457  0.2781
 7031TIP3    H145288   4.882   6.055  10.829  0.4413  0.2129 -0.9232
 7031TIP3    H245289   4.983   5.956  10.775 -0.9778 -0.6457 -2.0562
 7032TIP3   OH245290   2.431   1.523   9.649  0.2400 -0.4708 -0.4616
 7032TIP3    H145291   2.437   1.559   9.738  2.0111 -0.1125 -0.6708
 7032TIP3    H245292   2.438   1.428   9.661 -2.4272 -0.6805 -0.0516
 7033TIP3   OH245293   3.341   3.662  10.707  0.2913  0.4359  0.2202
 7033TIP3    H145294   3.277   3.593  10.686 -0.5332  1.1003  0.5222
 7033TIP3    H245295   3.302   3.742  10.673  2.3992  0.4616 -2.5279
 7034TIP3   OH245296   4.854   3.925   9.717  0.5556  0.3217  0.4167
 7034TIP3    H145297   4.940   3.884   9.713  0.8533  0.6025  2.7130
 7034TIP3    H245298   4.793   3.855   9.692  1.3291 -0.4478  0.6246
 7035TIP3   OH245299   4.858   4.584  11.167 -0.3253 -0.3187  0.2412
 7035TIP3    H145300   4.856   4.558  11.075  0.9705 -1.2132  0.4383
 7035TIP3    H245301   4.858   4.502  11.215 -0.7183  0.1340  1.0350
 7036TIP3   OH245302   6.725   1.171   9.977 -0.1644  0.0618 -0.2794
 7036TIP3    H145303   6.630   1.175   9.975 -0.1670  0.2941  0.1508
 7036TIP3    H245304   6.747   1.090   9.931 -0.5108  0.5852 -1.3880
 7037TIP3   OH245305   4.469   5.779  10.950  0.0499  0.1500 -0.0427
 7037TIP3    H145306   4.424   5.740  11.025  1.3540 -0.5281  0.4165
 7037TIP3    H245307   4.520   5.707  10.912 -1.1072  0.3278 -2.0054
 7038TIP3   OH245308   0.265   1.791  18.599  0.4728  0.0437 -0.0569
 7038TIP3    H145309   0.298   1.828  18.680  0.7683 -0.2201 -0.0569
 7038TIP3    H245310   0.169   1.793  18.609  0.4921  0.5495  0.0556
 7039TIP3   OH245311   3.077   3.257  10.711 -0.4015 -0.5209  0.2417
 7039TIP3    H145312   2.991   3.226  10.682  0.1488 -0.4646 -1.5972
 7039TIP3    H245313   3.130   3.178  10.715  0.1383 -0.2757 -1.2742
 7040TIP3   OH245314   6.580   5.565   9.682  0.3111 -0.0029 -0.2450
 7040TIP3    H145315   6.519   5.569   9.756 -0.2063 -1.0390 -0.5895
 7040TIP3    H245316   6.667   5.562   9.722  0.1409  1.3089  0.2579
 7041TIP3   OH245317   1.142   5.816   9.370 -0.5556 -0.2342 -0.1502
 7041TIP3    H145318   1.231   5.846   9.352 -0.7574  1.5088  1.3913
 7041TIP3    H245319   1.127   5.745   9.307  1.1874  0.7452 -1.7777
 7042TIP3   OH245320   4.322   4.073   9.484 -0.6165  0.1873 -0.2885
 7042TIP3    H145321   4.296   4.011   9.552 -0.3867  1.7523  1.3007
 7042TIP3    H245322   4.411   4.100   9.509 -0.2806  0.3524 -1.5699
 7043TIP3   OH245323   6.585   4.996   9.520 -0.2339  0.2567  0.0111
 7043TIP3    H145324   6.503   5.045   9.528 -0.2536  0.3344 -0.5578
 7043TIP3    H245325   6.561   4.906   9.539 -0.2319  0.4427  0.9124
 7044TIP3   OH245326   0.176   2.686   9.199 -0.1836  0.6880 -0.7778
 7044TIP3    H145327   0.155   2.775   9.227  2.2993  0.7618  1.0945
 7044TIP3    H245328   0.227   2.697   9.119  1.5497  1.1138  0.3371
 7045TIP3   OH245329   2.560   2.491  10.174 -0.0197  0.4918  0.5766
 7045TIP3    H145330   2.634   2.535  10.134  0.3516  0.0419  0.7605
 7045TIP3    H245331   2.598   2.441  10.247 -0.4711  0.1117  0.5573
 7046TIP3   OH245332   6.191   1.745   9.220  0.2305  0.1203  0.6229
 7046TIP3    H145333   6.167   1.687   9.147 -1.4242  3.1623 -1.4841
 7046TIP3    H245334   6.154   1.703   9.297 -0.4821 -1.8153 -0.6847
 7047TIP3   OH245335   1.160   2.253   8.863  0.6840 -0.0891 -0.0601
 7047TIP3    H145336   1.241   2.282   8.819  0.2811  0.0373 -0.7246
 7047TIP3    H245337   1.190   2.222   8.948  1.2247  1.7174  0.4486
 7048TIP3   OH245338   0.001   0.555   9.305  0.0409  0.0058 -0.4790
 7048TIP3    H145339   0.014   0.483   9.242  1.7772 -0.1947  0.0616
 7048TIP3    H245340  -0.091   0.547   9.331 -0.2120 -1.0631 -1.5907
 7049TIP3   OH245341   1.321   0.248   9.690  0.2910  0.2830  0.1947
 7049TIP3    H145342   1.386   0.228   9.757 -1.5049  1.7150  2.5180
 7049TIP3    H245343   1.300   0.341   9.703 -1.8212  0.0109 -0.8047
 7050TIP3   OH245344   2.132   2.785  10.435 -0.4943 -0.2416 -0.2682
 7050TIP3    H145345   2.183   2.839  10.496 -2.3163 -0.4370  1.5073
 7050TIP3    H245346   2.184   2.785  10.355  3.4815 -2.2666  2.0035
 7051TIP3   OH245347   0.931   6.112  10.788 -0.4590  0.0233 -0.1942
 7051TIP3    H145348   0.913   6.196  10.747 -2.0283  0.7487  1.7890
 7051TIP3    H245349   1.001   6.130  10.850 -1.3188  0.1099  0.7907
 7052TIP3   OH245350   0.227   2.177   9.795  0.7795 -0.4064  0.2085
 7052TIP3    H145351   0.221   2.145   9.885 -0.2306 -1.6820 -0.2762
 7052TIP3    H245352   0.241   2.271   9.803  1.2730 -0.5907  1.6907
 7053TIP3   OH245353   5.619   1.847   9.572 -0.2706  0.4529 -0.0869
 7053TIP3    H145354   5.617   1.837   9.667 -0.2840 -1.2473 -0.2365
 7053TIP3    H245355   5.676   1.922   9.557 -0.1443  0.6490  1.2534
 7054TIP3   OH245356   4.192   2.911   9.761  0.1783  0.0318  0.2088
 7054TIP3    H145357   4.262   2.895   9.698  0.0081 -0.8731  0.2353
 7054TIP3    H245358   4.237   2.914   9.846  0.0940 -1.6225  0.3508
 7055TIP3   OH245359   5.062   4.338  10.899 -0.1775  0.6453  0.2164
 7055TIP3    H145360   5.117   4.326  10.976 -1.2666  0.5622  1.0032
 7055TIP3    H245361   5.022   4.252  10.885 -0.6464  0.8798  0.0923
 7056TIP3   OH245362   4.159   4.882  10.774 -0.2485 -0.5347  0.3369
 7056TIP3    H145363   4.210   4.931  10.709  0.4552  0.2911  1.4836
 7056TIP3    H245364   4.092   4.838  10.722  0.9055 -0.7203 -1.0793
 7057TIP3   OH245365   5.089   0.246  10.878  0.2775 -0.6036  0.4448
 7057TIP3    H145366   5.060   0.298  10.803 -0.7531  1.0766  1.9120
 7057TIP3    H245367   5.183   0.265  10.885  0.2562 -0.2919 -0.0827
 7058TIP3   OH245368   2.676   0.849  11.007 -0.1926  0.9502 -0.4286
 7058TIP3    H145369   2.738   0.807  11.066 -0.2113  1.9104  0.3055
 7058TIP3    H245370   2.713   0.835  10.919  0.7488  0.9907 -0.0508
 7059TIP3   OH245371   5.245   0.936   9.175 -0.0402 -0.3847  0.1448
 7059TIP3    H145372   5.190   0.894   9.109 -0.7050  0.1130  0.3744
 7059TIP3    H245373   5.334   0.909   9.152 -0.3027 -0.5707 -0.6887
 7060TIP3   OH245374   3.406   0.671  10.499 -0.4978 -0.3568  0.1691
 7060TIP3    H145375   3.397   0.667  10.594 -0.2909  1.1033  0.2741
 7060TIP3    H245376   3.326   0.716  10.470  0.8872  2.1235 -0.0106
 7061TIP3   OH245377   5.510   6.527  11.812 -0.0871  0.1844  0.8064
 7061TIP3    H145378   5.442   6.514  11.878  0.6837  0.3989  1.6721
 7061TIP3    H245379   5.565   6.448  11.819 -0.7372 -0.4207 -0.5203
 7062TIP3   OH245380   0.320   0.563   9.938 -0.8611 -0.4628  0.0058
 7062TIP3    H145381   0.388   0.630   9.944 -0.8151 -0.5827  0.9273
 7062TIP3    H245382   0.355   0.488   9.985 -1.4224 -0.7067  0.0458
 7063TIP3   OH245383   6.388   0.803  10.633  0.0611 -0.4684  0.0841
 7063TIP3    H145384   6.324   0.780  10.700 -1.4255 -0.0560 -1.1342
 7063TIP3    H245385   6.403   0.897  10.645 -1.6317  0.0186 -1.2703
 7064TIP3   OH245386   6.720   3.746  10.216 -0.1834 -0.5278 -0.0755
 7064TIP3    H145387   6.630   3.758  10.244  0.3515  0.8023  1.2010
 7064TIP3    H245388   6.773   3.770  10.292  1.2816  0.4645 -1.3327
 7065TIP3   OH245389   3.570   6.453   8.991 -0.0106  0.0434  0.3852
 7065TIP3    H145390   3.510   6.385   9.021  0.0440 -0.9164 -1.5146
 7065TIP3    H245391   3.569   6.445   8.896  0.6156  2.2067  0.1535
 7066TIP3   OH245392   3.095   0.012  11.298  0.1577 -0.2002 -0.2743
 7066TIP3    H145393   3.088   0.034  11.390 -0.6547  0.4069 -0.4736
 7066TIP3    H245394   3.032   0.069  11.254  1.0867  0.0770 -1.3023
 7067TIP3   OH245395   4.746   3.857  11.606 -0.2673  0.3739 -0.0314
 7067TIP3    H145396   4.794   3.919  11.662  0.8278 -1.3984  1.1089
 7067TIP3    H245397   4.705   3.797  11.668 -0.8092 -0.3788 -1.1088
 7068TIP3   OH245398   1.518   1.426  10.999  0.1424  0.3864 -0.7029
 7068TIP3    H145399   1.430   1.460  10.980 -1.7925 -4.1618 -1.3202
 7068TIP3    H245400   1.511   1.388  11.086 -0.2729 -4.1047 -2.3961
 7069TIP3   OH245401   0.421   2.492   9.075 -0.1942  0.1454 -0.6164
 7069TIP3    H145402   0.471   2.574   9.067 -0.7703  0.5764  0.0546
 7069TIP3    H245403   0.398   2.469   8.985  1.0151  0.0548 -0.9187
 7070TIP3   OH245404   3.651   0.750   9.647 -0.3289  0.1153 -0.3134
 7070TIP3    H145405   3.657   0.846   9.644  2.8196  0.2041  2.8790
 7070TIP3    H245406   3.557   0.732   9.652 -0.9665  3.1068  0.2230
 7071TIP3   OH245407   4.177   2.753  11.805  0.2467 -0.4173  0.1794
 7071TIP3    H145408   4.127   2.826  11.841  0.1281 -1.6948  2.8077
 7071TIP3    H245409   4.268   2.785  11.804 -0.1500  0.8390 -1.7826
 7072TIP3   OH245410   4.014   2.212   9.023  0.2181 -0.2831  0.3640
 7072TIP3    H145411   4.066   2.282   8.983  1.1406 -0.4539  1.2085
 7072TIP3    H245412   3.923   2.239   9.011  0.5410  0.6278 -0.0916
 7073TIP3   OH245413   6.077   0.351  11.215  0.0215  0.0416  0.1145
 7073TIP3    H145414   6.031   0.348  11.130  1.3221  0.1025 -0.6109
 7073TIP3    H245415   6.088   0.259  11.239 -1.5238  0.0268  0.9046
 7074TIP3   OH245416   5.528   6.439   9.772 -0.2731  0.5610 -0.3830
 7074TIP3    H145417   5.509   6.434   9.866 -0.6916  3.1501 -0.2549
 7074TIP3    H245418   5.446   6.470   9.733  0.1291  0.2302 -1.5134
 7075TIP3   OH245419   5.888   4.013   8.500  0.3801  0.2037  0.3342
 7075TIP3    H145420   5.920   4.013   8.590  0.0490 -1.0582  0.4748
 7075TIP3    H245421   5.798   3.981   8.507  0.5678 -0.5621 -0.5010
 7076TIP3   OH245422   5.724   6.277   9.671  0.4284  0.7910 -0.6990
 7076TIP3    H145423   5.802   6.334   9.669  1.5639 -0.5625  1.2940
 7076TIP3    H245424   5.652   6.336   9.695  1.4638  1.5598  0.7448
 7077TIP3   OH245425   2.579   2.026   9.663  0.3996 -0.0457 -0.1672
 7077TIP3    H145426   2.597   2.112   9.625 -2.5518  0.3871 -0.7843
 7077TIP3    H245427   2.621   1.964   9.603 -1.7256  0.7629 -2.6713
 7078TIP3   OH245428   3.625   1.570   9.682 -0.0149  0.5833 -0.0562
 7078TIP3    H145429   3.620   1.639   9.747 -0.1274  2.3515 -1.8331
 7078TIP3    H245430   3.584   1.607   9.604  0.9582 -1.0727 -1.4469
 7079TIP3   OH245431   5.129   1.916   9.711 -0.4922 -0.0658  0.6342
 7079TIP3    H145432   5.170   1.970   9.779  0.1833 -1.6577  1.5457
 7079TIP3    H245433   5.075   1.854   9.760 -0.2122 -1.0673 -0.3132
 7080TIP3   OH245434   4.105   5.765  11.635 -0.0860  0.3243  0.7281
 7080TIP3    H145435   4.093   5.709  11.712 -1.1362  0.1471  0.4523
 7080TIP3    H245436   4.166   5.718  11.580  0.7457  0.4922  1.4879
 7081TIP3   OH245437   1.260   3.189  12.362 -0.2214 -0.1134  0.1245
 7081TIP3    H145438   1.279   3.104  12.324 -0.2891 -0.2992  0.5026
 7081TIP3    H245439   1.339   3.241  12.347  0.7007 -0.9286  1.8548
 7082TIP3   OH245440   1.528   6.316  10.996 -1.0179  1.2500 -0.4139
 7082TIP3    H145441   1.472   6.255  11.045  0.1326  1.8804  1.8303
 7082TIP3    H245442   1.504   6.303  10.904 -0.9966 -2.4075 -0.0352
 7083TIP3   OH245443   1.524   5.911   8.359 -0.4592 -0.4855  0.4013
 7083TIP3    H145444   1.553   5.838   8.413 -0.6532 -0.0096  1.1577
 7083TIP3    H245445   1.537   5.881   8.269 -2.1978 -2.1385  0.6496
 7084TIP3   OH245446   5.660   6.250  11.594  0.4434  0.4869  0.1709
 7084TIP3    H145447   5.578   6.230  11.549  0.8385  1.1462 -0.8859
 7084TIP3    H245448   5.633   6.278  11.682 -0.5298  1.3564 -0.3718
 7085TIP3   OH245449   6.104   5.724  10.856 -0.1940 -0.5341  0.3137
 7085TIP3    H145450   6.031   5.724  10.793 -0.4854  0.0205  0.6371
 7085TIP3    H245451   6.144   5.638  10.847 -1.6067 -1.2833  0.9544
 7086TIP3   OH245452   3.602   0.086   8.996 -0.1559  0.1434  0.2873
 7086TIP3    H145453   3.654   0.059   8.920  0.5413  1.8693  0.1206
 7086TIP3    H245454   3.655   0.061   9.072  0.4603  0.9614  0.1357
 7087TIP3   OH245455   4.484   6.674   9.589 -0.4184 -0.5713 -0.1691
 7087TIP3    H145456   4.492   6.705   9.679 -0.6033  0.5212 -0.5096
 7087TIP3    H245457   4.550   6.724   9.540 -0.2484 -1.2280 -0.6215
 7088TIP3   OH245458   2.269   3.051  10.968 -0.2556  0.2461 -0.2986
 7088TIP3    H145459   2.347   3.045  10.912 -1.3588  0.0670 -1.9038
 7088TIP3    H245460   2.277   3.135  11.012  1.1872 -0.0956  0.1274
 7089TIP3   OH245461   5.789   5.249  10.248  0.3899 -0.0084 -0.2177
 7089TIP3    H145462   5.706   5.283  10.283  0.4765  0.6017 -0.6018
 7089TIP3    H245463   5.846   5.326  10.242  0.4128 -0.1117 -1.5967
 7090TIP3   OH245464   0.651   3.983   9.808  0.7337 -0.1166 -0.2094
 7090TIP3    H145465   0.583   3.959   9.871  0.3702  0.1969 -0.4818
 7090TIP3    H245466   0.629   3.933   9.729  2.0660 -1.7186  0.3856
 7091TIP3   OH245467   2.855   0.795  10.799 -0.6501 -0.4169  0.2917
 7091TIP3    H145468   2.905   0.719  10.828 -0.3891 -0.0010  0.9656
 7091TIP3    H245469   2.787   0.759  10.742  0.3304 -0.9999 -0.5285
 7092TIP3   OH245470   0.917   6.721  10.786  0.3681  0.2196 -1.0059
 7092TIP3    H145471   0.917   6.816  10.776 -1.3370  0.3715  0.0946
 7092TIP3    H245472   0.825   6.697  10.795  0.8534 -1.2750  0.8527
 7093TIP3   OH245473   0.012   4.015  12.045  0.7345 -0.1752  0.2546
 7093TIP3    H145474  -0.077   4.041  12.066  0.8262 -1.1950  2.1080
 7093TIP3    H245475   0.067   4.087  12.076  0.6458 -0.1525  0.3560
 7094TIP3   OH245476   5.033   1.219   9.250 -0.0522 -0.3361 -0.9446
 7094TIP3    H145477   5.035   1.128   9.221  1.4643 -0.4320 -0.6058
 7094TIP3    H245478   5.094   1.265   9.192 -1.4928  0.6724 -1.7166
 7095TIP3   OH245479   4.313   5.473   8.568 -0.4726  0.2822 -0.0881
 7095TIP3    H145480   4.372   5.545   8.589 -0.1905 -0.1755  0.7224
 7095TIP3    H245481   4.225   5.510   8.577 -0.3333  0.4395  0.6499
 7096TIP3   OH245482   6.413   5.329  10.068  0.4897  0.4401  0.4122
 7096TIP3    H145483   6.460   5.348  10.149 -0.3654 -1.5521  1.4652
 7096TIP3    H245484   6.336   5.280  10.097 -0.3301  0.4741 -1.5529
 7097TIP3   OH245485   6.743   4.501  11.153  0.0142 -0.1924 -0.3953
 7097TIP3    H145486   6.655   4.534  11.171  0.3997  0.2935  0.6466
 7097TIP3    H245487   6.799   4.578  11.154  0.7612 -0.6996  1.0359
 7098TIP3   OH245488   2.215   0.598  10.516  0.2075  0.0001 -0.3896
 7098TIP3    H145489   2.261   0.678  10.543 -0.6770  0.2790  0.3279
 7098TIP3    H245490   2.269   0.563  10.445  1.6498  0.2088  0.5420
 7099TIP3   OH245491   2.119   0.945  11.636  0.1586  0.0484 -0.1083
 7099TIP3    H145492   2.206   0.908  11.618 -0.0741 -0.4752 -0.1822
 7099TIP3    H245493   2.092   0.904  11.719 -0.2480 -0.2121 -0.3650
 7100TIP3   OH245494   3.056   2.524   9.993  0.0597 -0.2715  0.3817
 7100TIP3    H145495   3.013   2.483  10.068  0.6593  1.0960  1.5070
 7100TIP3    H245496   3.112   2.455   9.957  2.0193 -0.1908  2.9821
 7101TIP3   OH245497   5.320   0.436  12.072  0.4089  0.4679 -0.0348
 7101TIP3    H145498   5.225   0.424  12.063  0.5877 -1.6427  0.4210
 7101TIP3    H245499   5.357   0.351  12.053  2.2073  1.1347  0.2843
 7102TIP3   OH245500   5.113   2.902   8.328 -0.1447 -0.1386 -0.1847
 7102TIP3    H145501   5.168   2.852   8.267  1.7118 -0.0723  1.3326
 7102TIP3    H245502   5.175   2.959   8.374 -1.3795 -0.5137  2.0803
 7103TIP3   OH245503   4.213   0.510   9.638  0.3199  0.5128  0.3523
 7103TIP3    H145504   4.159   0.453   9.584 -1.2801  1.3821  0.9536
 7103TIP3    H245505   4.300   0.470   9.637 -0.1497 -0.5545 -1.2218
 7104TIP3   OH245506   5.057   1.730  10.459 -0.6523 -0.1051 -0.3012
 7104TIP3    H145507   5.006   1.670  10.512 -0.8936  0.4670  0.1288
 7104TIP3    H245508   5.088   1.797  10.520  3.2810 -2.0429  0.1296
 7105TIP3   OH245509   2.051   3.812  10.605 -0.6933 -0.4171  0.2703
 7105TIP3    H145510   2.094   3.853  10.530 -0.1342 -1.0676  0.2308
 7105TIP3    H245511   1.958   3.836  10.595 -0.5946 -0.3377 -0.5147
 7106TIP3   OH245512   0.208   4.020   9.506 -0.0519 -0.1074  0.1768
 7106TIP3    H145513   0.268   4.084   9.543  0.9246 -0.6940 -0.3502
 7106TIP3    H245514   0.205   4.042   9.413 -1.3676  0.4680  0.3312
 7107TIP3   OH245515   5.062   5.188   8.526 -0.5064 -0.5433  0.2981
 7107TIP3    H145516   5.002   5.114   8.515 -0.7971 -0.3508  0.5491
 7107TIP3    H245517   5.056   5.209   8.620 -0.3879 -0.2378  0.2388
 7108TIP3   OH245518   2.635   2.327  10.365 -0.0833 -0.1317 -0.0929
 7108TIP3    H145519   2.584   2.246  10.353 -0.0277 -0.1578 -0.1536
 7108TIP3    H245520   2.599   2.366  10.444  0.0417 -0.3318  0.0633
 7109TIP3   OH245521   5.298   4.557   9.945  0.2025  0.1674 -0.1524
 7109TIP3    H145522   5.205   4.553   9.969  0.5728 -0.1541  1.3324
 7109TIP3    H245523   5.299   4.606   9.863 -1.2136  0.9034  0.2303
 7110TIP3   OH245524   0.317   5.586  10.100 -0.2041  0.5486 -0.0250
 7110TIP3    H145525   0.341   5.658  10.160 -1.1332  0.6845  0.2003
 7110TIP3    H245526   0.273   5.522  10.156  2.3655 -1.1784  0.1773
 7111TIP3   OH245527   1.496   6.393   9.703 -0.1345 -0.4140 -0.1340
 7111TIP3    H145528   1.542   6.446   9.768 -0.2882  0.2001 -0.5203
 7111TIP3    H245529   1.543   6.410   9.621 -0.7683 -0.1378 -0.4439
 7112TIP3   OH245530   4.423   6.629   9.327  0.2783  0.5515  0.7768
 7112TIP3    H145531   4.440   6.630   9.422 -1.5442 -1.3948  1.2114
 7112TIP3    H245532   4.436   6.537   9.302 -0.5600  0.7827 -0.5715
 7113TIP3   OH245533   4.430   4.455   8.973  0.2009  0.6643 -0.2595
 7113TIP3    H145534   4.440   4.391   9.043 -0.3949  0.7463 -0.0902
 7113TIP3    H245535   4.502   4.517   8.986  1.5402 -0.6504 -1.1894
 7114TIP3   OH245536   0.085   4.403  11.879 -0.3947 -0.0015  0.4524
 7114TIP3    H145537   0.128   4.487  11.895  0.3284 -0.4465  0.9001
 7114TIP3    H245538   0.012   4.424  11.820 -1.0974  1.1586  1.6945
 7115TIP3   OH245539   0.485   6.185  10.501 -0.6058  0.4440  0.0525
 7115TIP3    H145540   0.409   6.232  10.467 -0.0707  0.6007 -0.9665
 7115TIP3    H245541   0.448   6.126  10.567 -1.4714  1.2409  0.3112
 7116TIP3   OH245542   6.397   2.016   9.500  0.6221 -0.0736  0.5312
 7116TIP3    H145543   6.431   2.069   9.571 -1.5561  1.2656  0.6684
 7116TIP3    H245544   6.348   2.077   9.445 -0.3932 -1.5948 -0.3546
 7117TIP3   OH245545   2.326   5.593  10.533 -0.4260 -0.4331 -0.1705
 7117TIP3    H145546   2.354   5.634  10.615  1.8593  0.0590 -1.1436
 7117TIP3    H245547   2.350   5.656  10.465 -0.5885 -1.6304 -1.3732
 7118TIP3   OH245548   4.393   0.425  11.151 -0.0507  0.0446  0.6382
 7118TIP3    H145549   4.471   0.392  11.106 -0.5982 -0.2620 -0.1113
 7118TIP3    H245550   4.373   0.360  11.218  1.5616  1.1594  2.3055
 7119TIP3   OH245551   2.875   5.296   9.798 -0.1282 -0.7366  0.0571
 7119TIP3    H145552   2.815   5.370   9.790 -0.1400 -0.3600  2.6875
 7119TIP3    H245553   2.829   5.223   9.757 -1.1484  0.1961 -0.5035
 7120TIP3   OH245554   4.707   2.920   9.591 -0.2843 -0.4680 -0.4148
 7120TIP3    H145555   4.625   2.928   9.639 -1.1322  3.5551 -2.1150
 7120TIP3    H245556   4.680   2.907   9.500  0.6901  2.3293 -1.2340
 7121TIP3   OH245557   1.612   3.711   9.100  0.6156  0.2513 -0.6092
 7121TIP3    H145558   1.608   3.792   9.048  1.3947  0.6012 -0.1389
 7121TIP3    H245559   1.646   3.738   9.185 -0.1005 -0.4154 -0.0966
 7122TIP3   OH245560   1.630   5.411   8.684 -0.2990 -0.5731  0.5537
 7122TIP3    H145561   1.556   5.452   8.728 -0.3371 -0.3545  0.2910
 7122TIP3    H245562   1.662   5.345   8.745 -0.0407  0.0638  1.1133
 7123TIP3   OH245563   5.041   2.054  10.108  0.0517  0.0125  0.0418
 7123TIP3    H145564   5.029   1.963  10.134  1.7917  0.0262  1.0487
 7123TIP3    H245565   5.110   2.051  10.042  0.6300  0.6492  0.6010
 7124TIP3   OH245566   1.532   4.865  10.579  0.4869  0.4729  0.5250
 7124TIP3    H145567   1.568   4.789  10.626 -1.6329 -1.2278 -0.4726
 7124TIP3    H245568   1.468   4.902  10.640 -0.4607 -0.2265 -0.0312
 7125TIP3   OH245569   2.386   0.332  11.867  0.5064 -0.1801 -0.2441
 7125TIP3    H145570   2.373   0.238  11.875 -1.0792 -0.1571 -1.9961
 7125TIP3    H245571   2.463   0.350  11.921  0.1894 -2.2807  1.0179
 7126TIP3   OH245572   5.602   3.358  11.059 -0.2316 -0.1146  0.1757
 7126TIP3    H145573   5.569   3.274  11.093 -2.6941  0.7511  0.1459
 7126TIP3    H245574   5.525   3.414  11.056  1.4728  2.4263  0.8825
 7127TIP3   OH245575   2.525   6.384  11.401  0.1152  0.4062 -0.5622
 7127TIP3    H145576   2.468   6.444  11.352  0.9180  0.2207 -1.7270
 7127TIP3    H245577   2.611   6.425  11.399  0.4701 -0.3283 -0.5527
 7128TIP3   OH245578   3.716   5.349   8.903  0.1975  0.1805  0.4753
 7128TIP3    H145579   3.786   5.407   8.936  0.8268 -0.0261 -0.4545
 7128TIP3    H245580   3.761   5.267   8.883 -0.5926 -0.4648  1.2554
 7129TIP3   OH245581   2.361   5.554   8.748  0.0526 -0.0481 -0.1779
 7129TIP3    H145582   2.293   5.619   8.729 -1.5247  0.0271  4.6476
 7129TIP3    H245583   2.323   5.471   8.721 -0.3266  0.3858 -1.0339
 7130TIP3   OH245584   1.794   4.198   8.872  0.7590  0.3165 -0.1519
 7130TIP3    H145585   1.854   4.212   8.799  0.5317  2.7743  0.0597
 7130TIP3    H245586   1.722   4.259   8.857 -0.5076 -0.8585  0.8806
 7131TIP3   OH245587   5.332   5.770  10.400  0.4453 -0.1497 -0.6356
 7131TIP3    H145588   5.312   5.847  10.346 -0.7672 -0.3158 -0.4540
 7131TIP3    H245589   5.349   5.806  10.487 -2.4467 -0.1726  0.0518
 7132TIP3   OH245590   0.080   4.280  12.115 -0.4336  0.3002 -0.1903
 7132TIP3    H145591   0.047   4.348  12.174 -1.9986  0.2567 -0.9628
 7132TIP3    H245592   0.082   4.321  12.029 -0.7670 -0.4267 -0.5524
 7133TIP3   OH245593   3.178   6.301  11.331  0.3655 -0.0484 -0.0192
 7133TIP3    H145594   3.121   6.367  11.369  2.0244  1.2016  0.3967
 7133TIP3    H245595   3.246   6.351  11.286  1.5135 -1.4719  0.0668
 7134TIP3   OH245596   1.630   1.544   8.843  0.2440  0.8710  0.2085
 7134TIP3    H145597   1.615   1.522   8.752 -2.5140  0.8794  0.5854
 7134TIP3    H245598   1.612   1.638   8.849  0.0043  0.7944  0.8318
 7135TIP3   OH245599   1.331   5.116  10.959 -0.4202  0.5874  0.5311
 7135TIP3    H145600   1.296   5.103  11.047  0.6271 -0.7064  0.7769
 7135TIP3    H245601   1.411   5.064  10.957 -0.8226 -0.0149 -1.4375
 7136TIP3   OH245602   6.569   0.083   8.937  0.1144  0.1580 -0.0126
 7136TIP3    H145603   6.500   0.024   8.969 -1.5328  2.3063  0.6938
 7136TIP3    H245604   6.626   0.096   9.013  0.7396 -0.7907 -0.2939
 7137TIP3   OH245605   1.634   3.493  11.186  0.3259  0.2723  0.6446
 7137TIP3    H145606   1.553   3.443  11.192  0.9391 -0.9423 -0.6530
 7137TIP3    H245607   1.608   3.578  11.150 -0.1002 -0.9868 -2.2595
 7138TIP3   OH245608   0.302   2.084   9.068 -0.2332 -0.0779 -0.2029
 7138TIP3    H145609   0.287   2.115   8.978 -1.3548 -2.8963 -1.1111
 7138TIP3    H245610   0.223   2.110   9.115 -0.8465 -0.8645 -0.7643
 7139TIP3   OH245611   1.514   2.143   8.649  0.7095  0.2060  0.2164
 7139TIP3    H145612   1.570   2.111   8.720 -0.3695 -1.5837  0.3465
 7139TIP3    H245613   1.486   2.063   8.604  0.1518  1.2086 -1.2836
 7140TIP3   OH245614   0.585   5.860   9.068 -0.1736  0.6460 -0.1145
 7140TIP3    H145615   0.632   5.777   9.055 -2.4130 -0.8903  0.9110
 7140TIP3    H245616   0.535   5.871   8.987  0.1657  1.0404 -0.2719
 7141TIP3   OH245617   5.456   6.361  10.056 -0.1417 -0.5362  0.5044
 7141TIP3    H145618   5.480   6.297  10.123 -1.8674 -1.3780  0.3538
 7141TIP3    H245619   5.363   6.379  10.072 -0.4761 -0.4038 -1.3744
 7142TIP3   OH245620   4.267   4.311  11.536  0.4251  0.2187  0.1172
 7142TIP3    H145621   4.252   4.256  11.613  1.5197 -0.5928 -0.2228
 7142TIP3    H245622   4.333   4.374  11.564 -0.0886  0.7339  0.1997
 7143TIP3   OH245623   0.763   1.060  10.024  1.0636 -0.3164  0.6920
 7143TIP3    H145624   0.855   1.040  10.005  1.1059  0.0907  0.4679
 7143TIP3    H245625   0.714   0.992   9.977  1.2086  0.0766 -0.0448
 7144TIP3   OH245626   0.182   4.987   9.127  0.8330  0.2996  0.1194
 7144TIP3    H145627   0.113   4.925   9.152 -0.5898  1.7158 -0.1666
 7144TIP3    H245628   0.258   4.960   9.179  0.2190 -1.5562  0.1335
 7145TIP3   OH245629   6.085   1.239   8.789 -0.6413 -0.2970 -0.4110
 7145TIP3    H145630   6.173   1.255   8.753  0.0369 -0.9039  0.8998
 7145TIP3    H245631   6.045   1.326   8.793  0.4581  0.2072  0.3166
 7146TIP3   OH245632   6.226   6.174  12.156 -0.6374 -0.3055 -0.2676
 7146TIP3    H145633   6.140   6.175  12.198  0.1133  1.9981  1.3688
 7146TIP3    H245634   6.241   6.264  12.128  1.4314 -0.5512 -0.1112
 7147TIP3   OH245635   3.990   5.328  11.718 -0.6970 -0.0913  0.4134
 7147TIP3    H145636   4.073   5.285  11.738 -0.4898 -0.9426 -2.0681
 7147TIP3    H245637   3.925   5.258  11.717 -1.1123  0.2830  0.3802
 7148TIP3   OH245638   2.833   0.018  11.597 -0.1247 -0.5956  0.0125
 7148TIP3    H145639   2.928   0.006  11.608  0.1017  0.4081 -0.7238
 7148TIP3    H245640   2.806   0.063  11.677  0.5947  1.9145 -1.0538
 7149TIP3   OH245641   4.564   2.435  11.694  0.0822  0.7517  0.0817
 7149TIP3    H145642   4.474   2.440  11.662  0.1257  0.5924 -0.0611
 7149TIP3    H245643   4.571   2.510  11.754 -0.7631 -0.3727  1.6783
 7150TIP3   OH245644   5.910   2.630  11.374  0.4339 -0.1422  0.4527
 7150TIP3    H145645   5.967   2.583  11.312  1.4287 -0.2022  1.3758
 7150TIP3    H245646   5.871   2.561  11.427 -1.3425 -0.1762 -0.8200
 7151TIP3   OH245647   1.655   3.336   9.235  0.4187 -0.4152 -0.0912
 7151TIP3    H145648   1.675   3.353   9.143  1.0931 -2.3519 -0.3444
 7151TIP3    H245649   1.739   3.341   9.280  0.1540  0.0952  0.3700
 7152TIP3   OH245650   5.078   4.185  11.928  0.3161  0.0806 -0.3984
 7152TIP3    H145651   5.079   4.270  11.884  0.8923 -0.8451 -2.2892
 7152TIP3    H245652   5.055   4.205  12.019  1.5696  2.3681 -0.5157
 7153TIP3   OH245653   3.480   3.621  10.177  0.3575 -0.1764  0.4548
 7153TIP3    H145654   3.567   3.655  10.198  0.1853 -0.5319  1.8040
 7153TIP3    H245655   3.422   3.660  10.242 -0.3348 -0.6958  0.1606
 7154TIP3   OH245656   1.390   5.248  11.215  0.9934  0.3731  0.2914
 7154TIP3    H145657   1.440   5.227  11.294  0.1410 -1.8685  0.2929
 7154TIP3    H245658   1.457   5.278  11.152  1.8171  1.0881  1.4663
 7155TIP3   OH245659   1.388   1.274   9.282 -0.8360  0.1692  0.4549
 7155TIP3    H145660   1.325   1.239   9.219 -1.1372  1.6481 -0.1194
 7155TIP3    H245661   1.426   1.350   9.237 -1.1206  1.3285  2.0861
 7156TIP3   OH245662   5.716   1.798   8.866 -0.0237 -0.6002  0.2660
 7156TIP3    H145663   5.778   1.869   8.850 -0.0985 -0.4706  0.5405
 7156TIP3    H245664   5.668   1.789   8.784 -1.1576  0.7890  0.7477
 7157TIP3   OH245665   2.316   4.636   9.367 -0.2413  0.1217  0.0803
 7157TIP3    H145666   2.255   4.678   9.428 -0.1975 -0.4683  0.5344
 7157TIP3    H245667   2.290   4.669   9.281 -0.4621  0.7690  0.3869
 7158TIP3   OH245668   2.410   3.646  12.301 -0.1562  0.3159 -0.3331
 7158TIP3    H145669   2.389   3.659  12.393 -0.6588  1.4717 -0.6009
 7158TIP3    H245670   2.325   3.632  12.259  0.1288 -1.0155 -0.5184
 7159TIP3   OH245671   3.141   3.196  13.403 -0.4575  0.4194 -0.1946
 7159TIP3    H145672   3.186   3.199  13.318  1.2708  1.0614  0.6802
 7159TIP3    H245673   3.211   3.211  13.467 -1.6023 -0.7544  1.3968
 7160TIP3   OH245674   5.705   4.734  11.522  0.4299  0.5569  0.0939
 7160TIP3    H145675   5.766   4.807  11.510 -0.1756  0.8947 -1.1913
 7160TIP3    H245676   5.758   4.664  11.560  0.9419  1.7647  1.7043
 7161TIP3   OH245677   1.730   6.292   8.416  0.1646  0.5599 -0.4122
 7161TIP3    H145678   1.793   6.224   8.393  0.8666  1.4495 -1.2250
 7161TIP3    H245679   1.651   6.244   8.440  0.9270 -0.5643 -0.0573
 7162TIP3   OH245680   0.700   4.195   9.970 -0.1038 -0.3703 -0.2546
 7162TIP3    H145681   0.743   4.258   9.911  1.4740  0.4439  1.6614
 7162TIP3    H245682   0.709   4.111   9.926  2.2540  0.0021 -0.5894
 7163TIP3   OH245683   6.480   4.167   8.924 -0.2185  0.2426  0.1471
 7163TIP3    H145684   6.537   4.180   9.000 -0.6157 -0.9160  0.6775
 7163TIP3    H245685   6.392   4.160   8.962 -0.2007 -2.5851 -0.1228
 7164TIP3   OH245686   5.311   2.356  10.058 -0.4736  0.4393 -0.1476
 7164TIP3    H145687   5.339   2.447  10.063 -1.0982  0.6665 -0.7122
 7164TIP3    H245688   5.358   2.321   9.982  0.3271  0.0809  0.4964
 7165TIP3   OH245689   2.905   3.117  12.415 -0.1020  0.1305  0.2393
 7165TIP3    H145690   2.970   3.105  12.484 -1.8610  1.0110  2.1563
 7165TIP3    H245691   2.841   3.048  12.429 -0.0243 -0.2616 -1.1439
 7166TIP3   OH245692   2.263   1.165   9.739  0.4510 -0.0756  0.2707
 7166TIP3    H145693   2.200   1.213   9.792  0.9740  0.7099  0.1923
 7166TIP3    H245694   2.281   1.086   9.791 -0.6367 -0.3528  0.2567
 7167TIP3   OH245695   2.413   4.603  11.023 -0.1730  0.4822  0.4277
 7167TIP3    H145696   2.336   4.616  10.967 -0.6410  0.1399  0.9887
 7167TIP3    H245697   2.407   4.673  11.088  0.3525  0.8572  0.0797
 7168TIP3   OH245698   6.120   1.352  10.429 -0.2176 -0.2551 -0.4342
 7168TIP3    H145699   6.125   1.426  10.490 -0.9330  0.1473 -0.8517
 7168TIP3    H245700   6.166   1.281  10.474  0.9973  0.5988 -0.2672
 7169TIP3   OH245701   5.806   1.994   9.197  0.2802 -0.7033 -0.1938
 7169TIP3    H145702   5.766   2.075   9.228  0.8642 -0.1335 -0.8890
 7169TIP3    H245703   5.749   1.925   9.230 -0.2563 -0.0113  0.3676
 7170TIP3   OH245704   1.902   1.132   9.143 -0.1841  0.5483 -0.1431
 7170TIP3    H145705   1.923   1.174   9.060  0.0904  0.4576 -0.1191
 7170TIP3    H245706   1.873   1.044   9.119 -1.0414  0.8403 -0.2166
 7171TIP3   OH245707   5.791   2.291  10.281 -0.6996 -0.2356 -0.2982
 7171TIP3    H145708   5.776   2.240  10.201 -0.5889 -3.4469  1.5640
 7171TIP3    H245709   5.872   2.255  10.317  2.0499  4.4254 -0.9984
 7172TIP3   OH245710   4.541   6.135  10.234  0.0029 -0.1088  0.1485
 7172TIP3    H145711   4.605   6.078  10.277 -0.4073 -0.8410 -0.2089
 7172TIP3    H245712   4.559   6.222  10.271  0.7426 -0.4300  0.5696
 7173TIP3   OH245713   4.959   5.806   9.559 -0.2018 -0.0315  0.4341
 7173TIP3    H145714   4.909   5.872   9.607  0.5729 -0.5937  2.1305
 7173TIP3    H245715   5.000   5.854   9.487 -1.9905  0.7008 -0.1454
 7174TIP3   OH245716   3.146   5.168   9.329 -0.2472  0.0343 -0.5063
 7174TIP3    H145717   3.146   5.175   9.425 -0.0790 -0.2743 -0.4829
 7174TIP3    H245718   3.062   5.127   9.309 -0.0191 -0.4636 -0.4480
 7175TIP3   OH245719   0.017   5.384   9.760  0.2252  0.0893 -0.3854
 7175TIP3    H145720  -0.053   5.319   9.767 -0.3496  0.7493  0.0857
 7175TIP3    H245721   0.030   5.394   9.665  0.1515 -0.5245 -0.4667
 7176TIP3   OH245722   0.202   3.000  10.138  0.3065  0.5377 -0.3386
 7176TIP3    H145723   0.107   3.002  10.128  0.1617  0.5918  0.9528
 7176TIP3    H245724   0.217   2.934  10.206  1.2234  0.2494 -0.8073
 7177TIP3   OH245725   6.273   4.424   9.424  0.1595  0.3698 -0.3127
 7177TIP3    H145726   6.349   4.391   9.376 -0.2426  1.3950 -1.7121
 7177TIP3    H245727   6.227   4.478   9.361 -2.3324 -1.0682  0.1488
 7178TIP3   OH245728   3.853   6.526  11.093 -0.2534  0.6130  0.5402
 7178TIP3    H145729   3.808   6.444  11.113  0.1208 -0.1000 -1.3019
 7178TIP3    H245730   3.913   6.539  11.166 -0.1793 -0.8695  0.7728
 7179TIP3   OH245731   3.698   6.428   9.671  0.1242 -0.2210 -0.1980
 7179TIP3    H145732   3.672   6.376   9.595 -3.4742  0.2010  0.5534
 7179TIP3    H245733   3.715   6.364   9.740  4.0693 -0.6475 -1.3252
 7180TIP3   OH245734   4.366   5.983  10.773 -0.1030  0.4630  0.2290
 7180TIP3    H145735   4.368   5.903  10.826  1.7798  1.5573  1.9674
 7180TIP3    H245736   4.458   6.004  10.757 -0.5540  2.1735 -0.3581
 7181TIP3   OH245737   4.221   2.179  10.981  0.7639  0.3763  0.0592
 7181TIP3    H145738   4.214   2.267  11.018  2.1258  1.0307 -1.1358
 7181TIP3    H245739   4.245   2.123  11.055  0.1473  1.0390  0.7782
 7182TIP3   OH245740   0.939   5.121   8.785  0.1872  0.0425 -0.1533
 7182TIP3    H145741   1.017   5.067   8.799  1.8405  2.1155 -0.9680
 7182TIP3    H245742   0.874   5.060   8.751  2.0026 -1.4314 -1.1650
 7183TIP3   OH245743   1.390   0.172  11.421  0.2766 -0.4475  0.1817
 7183TIP3    H145744   1.395   0.205  11.511  1.1586  2.8002 -0.9064
 7183TIP3    H245745   1.413   0.079  11.428 -0.9847 -0.6519  3.4117
 7184TIP3   OH245746   3.061   6.537  11.449 -0.1079 -0.2208 -0.1705
 7184TIP3    H145747   3.040   6.624  11.414  1.6343  0.3708  0.1027
 7184TIP3    H245748   3.083   6.554  11.541 -1.3177 -1.2281  0.3298
 7185TIP3   OH245749   2.379   3.218  11.930 -0.2333  0.3626 -0.2057
 7185TIP3    H145750   2.406   3.308  11.911  0.7279 -0.3609 -2.6290
 7185TIP3    H245751   2.352   3.220  12.022  0.1951  3.0066 -0.0599
 7186TIP3   OH245752   1.934   0.760  11.770 -0.1120  0.0972  0.4802
 7186TIP3    H145753   1.884   0.823  11.719  0.3153  0.2925  0.2997
 7186TIP3    H245754   1.958   0.806  11.850  1.7787  0.8077 -0.4354
 7187TIP3   OH245755   5.307   5.449  10.758  0.2804  0.6178 -0.0393
 7187TIP3    H145756   5.297   5.355  10.741 -0.3342  0.7832 -0.6441
 7187TIP3    H245757   5.232   5.471  10.813 -0.7691  1.1376 -1.5828
 7188TIP3   OH245758   5.946   3.577  10.091 -0.3385 -0.3680 -0.1267
 7188TIP3    H145759   6.006   3.570  10.166  0.4144 -1.3988 -0.7834
 7188TIP3    H245760   5.975   3.507  10.032 -2.9411 -1.6772  0.0417
 7189TIP3   OH245761   3.051   4.609  11.138  0.0951 -0.1711  0.1240
 7189TIP3    H145762   3.131   4.558  11.123 -0.4056 -1.1220  0.5737
 7189TIP3    H245763   3.029   4.646  11.053  0.3894 -0.8550 -0.2557
 7190TIP3   OH245764   3.824   2.719  11.597 -0.1159 -0.1658  0.3187
 7190TIP3    H145765   3.911   2.735  11.559 -0.7823  0.3051 -1.0511
 7190TIP3    H245766   3.818   2.624  11.604  0.4271 -0.2101  0.2517
 7191TIP3   OH245767   0.357   1.032   9.325 -0.2701  0.3353  0.1613
 7191TIP3    H145768   0.415   1.034   9.401 -2.5080 -1.6261  2.0784
 7191TIP3    H245769   0.300   1.109   9.337  0.1796  0.7354 -0.2408
 7192TIP3   OH245770   3.157   4.271  12.654  0.0792 -0.4946  0.4445
 7192TIP3    H145771   3.177   4.287  12.746 -0.1130  1.4878  0.1733
 7192TIP3    H245772   3.092   4.200  12.656  0.2619 -0.6521  1.8018
 7193TIP3   OH245773   2.998   1.240  10.981 -0.3455  0.3903 -0.5326
 7193TIP3    H145774   3.001   1.323  11.027  3.7695  2.7092 -4.1801
 7193TIP3    H245775   2.937   1.254  10.909 -1.7514 -0.8494  0.3645
 7194TIP3   OH245776   1.632   3.193  11.352  0.0903 -0.4610 -0.3749
 7194TIP3    H145777   1.618   3.192  11.257 -0.4512  1.1937 -0.3451
 7194TIP3    H245778   1.661   3.104  11.373  0.7063 -0.7267 -2.1572
 7195TIP3   OH245779   6.789   2.434  10.467  0.4560 -0.3690 -0.1098
 7195TIP3    H145780   6.715   2.414  10.524 -0.3888 -0.7170 -1.2872
 7195TIP3    H245781   6.848   2.486  10.522  0.0395 -1.3179  1.2939
 7196TIP3   OH245782   3.860   3.217  11.654  0.2847  0.1288  0.0242
 7196TIP3    H145783   3.862   3.285  11.587  0.2983  0.2348  0.1307
 7196TIP3    H245784   3.899   3.141  11.612  0.0822  0.1273 -0.1611
 7197TIP3   OH245785   4.881   4.771   9.786  0.2794 -1.0065 -0.2714
 7197TIP3    H145786   4.925   4.721   9.855  0.1820  0.2639  0.7545
 7197TIP3    H245787   4.832   4.838   9.833  1.9499  1.3063 -1.6068
 7198TIP3   OH245788   5.448   6.166  10.728  0.8778 -0.0452 -0.1909
 7198TIP3    H145789   5.434   6.255  10.695 -1.0379 -0.4387 -0.6071
 7198TIP3    H245790   5.439   6.174  10.823 -3.3208 -0.2695 -0.3787
 7199TIP3   OH245791   2.359   1.224  10.526  0.1613  0.2757  0.3780
 7199TIP3    H145792   2.403   1.199  10.445  0.4610  0.9935  0.3101
 7199TIP3    H245793   2.266   1.221  10.506  0.2477  1.0732 -0.1898
 7200TIP3   OH245794   4.506   5.134  10.567  0.1080 -0.1762 -0.1991
 7200TIP3    H145795   4.548   5.186  10.635 -1.7728  1.3533 -0.1152
 7200TIP3    H245796   4.549   5.161  10.486  1.0430 -0.6021  0.1356
 7201TIP3   OH245797   2.040   5.132  11.541 -0.0078  0.3030 -0.3725
 7201TIP3    H145798   2.120   5.110  11.588  0.2093  0.8415 -0.4773
 7201TIP3    H245799   1.986   5.177  11.607 -0.1984  0.0003 -0.3191
 7202TIP3   OH245800   6.092   5.348  10.591  0.5117  0.2372 -0.4064
 7202TIP3    H145801   6.066   5.262  10.557  1.5807  0.8122 -2.9376
 7202TIP3    H245802   6.013   5.402  10.584 -0.1435 -0.4626  1.1237
 7203TIP3   OH245803   5.929   5.206   9.165  0.2068  0.2608 -0.0132
 7203TIP3    H145804   5.867   5.267   9.205 -0.9294 -1.5424  1.0904
 7203TIP3    H245805   5.978   5.260   9.103 -0.6471  2.3127  0.9951
 7204TIP3   OH245806   0.384   6.298   9.428  0.3903 -0.3459  0.0184
 7204TIP3    H145807   0.365   6.376   9.480  0.6354 -0.4517  0.2682
 7204TIP3    H245808   0.297   6.260   9.410  0.2672  0.0268 -0.1737
 7205TIP3   OH245809   5.503   5.787  11.096 -0.1719 -0.6882  0.7915
 7205TIP3    H145810   5.433   5.805  11.033  0.9528  1.1935  0.0055
 7205TIP3    H245811   5.458   5.751  11.172 -2.0594  0.8628  0.4766
 7206TIP3   OH245812   3.954   4.661  10.585  0.3142  0.0064 -0.3456
 7206TIP3    H145813   3.987   4.581  10.627 -0.2582 -0.5947 -1.0028
 7206TIP3    H245814   4.003   4.665  10.502 -1.9350 -1.5248 -1.8871
 7207TIP3   OH245815   1.046   2.370  11.279 -0.2735 -0.0308  0.4053
 7207TIP3    H145816   1.126   2.405  11.240  0.1608 -0.8831  0.4818
 7207TIP3    H245817   0.995   2.336  11.205  0.1381 -0.8352  0.4721
 7208TIP3   OH245818   4.251   1.548  10.569  0.2350 -0.2085 -0.4279
 7208TIP3    H145819   4.275   1.550  10.661 -0.0786  1.9892 -0.3441
 7208TIP3    H245820   4.221   1.458  10.554  2.6729 -1.3567  0.9381
 7209TIP3   OH245821   4.082   5.579  11.835 -0.3081  0.0551  0.5085
 7209TIP3    H145822   4.052   5.514  11.772  2.1386  1.2673 -2.1321
 7209TIP3    H245823   4.162   5.541  11.873  1.1146  1.3319 -1.0198
 7210TIP3   OH245824   3.982   4.003  10.171 -0.1609 -0.3071  0.6120
 7210TIP3    H145825   4.058   3.974  10.121 -0.1050 -0.9916  1.0927
 7210TIP3    H245826   4.013   4.012  10.261 -1.0283 -2.2505  1.1524
 7211TIP3   OH245827   4.052   2.823   9.038  0.0098 -0.0185  0.4773
 7211TIP3    H145828   4.001   2.869   9.104  0.7024 -1.5751  2.1673
 7211TIP3    H245829   4.143   2.842   9.060  0.3720 -2.8978  1.8614
 7212TIP3   OH245830   4.237   1.664  11.332 -0.0601 -0.1214 -0.4879
 7212TIP3    H145831   4.196   1.605  11.269 -0.7807  0.9204 -1.0238
 7212TIP3    H245832   4.163   1.703  11.379  0.3852  0.5361 -0.3233
 7213TIP3   OH245833   5.054   5.672  11.888  0.3500 -0.3442  0.7328
 7213TIP3    H145834   5.143   5.703  11.872  0.5575 -0.4498  1.6220
 7213TIP3    H245835   5.064   5.578  11.902 -0.3091 -0.9949 -2.2954
 7214TIP3   OH245836   2.240   4.263  11.864 -0.0951  0.0402 -0.1722
 7214TIP3    H145837   2.272   4.274  11.954  0.9023 -0.1326 -0.4958
 7214TIP3    H245838   2.189   4.182  11.867  0.1845 -0.1281  0.1711
 7215TIP3   OH245839   0.663   2.990   9.606  0.5100  0.9595 -0.8454
 7215TIP3    H145840   0.735   2.948   9.652  2.0366  2.4346 -1.7534
 7215TIP3    H245841   0.621   3.046   9.671  0.4984  0.4649 -0.4271
 7216TIP3   OH245842   5.705   4.891  11.041 -0.0411 -0.3609 -0.0985
 7216TIP3    H145843   5.672   4.980  11.054 -0.6772 -0.4585 -1.0201
 7216TIP3    H245844   5.654   4.838  11.102 -1.8038 -0.5495 -1.6797
 7217TIP3   OH245845   5.044   4.063  11.113 -0.8161  0.6451  0.3259
 7217TIP3    H145846   5.107   4.134  11.123  0.3151  0.1112 -2.2293
 7217TIP3    H245847   4.959   4.106  11.115 -0.3971  1.5133  2.7435
 7218TIP3   OH245848   2.468   0.813   9.657 -0.0657  0.6117 -0.4739
 7218TIP3    H145849   2.420   0.856   9.727 -1.1020 -0.6983 -0.3259
 7218TIP3    H245850   2.405   0.750   9.621  0.9107  0.2662 -1.6279
 7219TIP3   OH245851   6.582   3.491  10.389 -0.3720  0.3995 -0.0127
 7219TIP3    H145852   6.672   3.522  10.377 -0.2675  0.9512  1.9663
 7219TIP3    H245853   6.592   3.399  10.412 -0.3730  0.2687 -0.5177
 7220TIP3   OH245854   5.279   2.010   9.072  0.1873 -0.1117  0.5388
 7220TIP3    H145855   5.306   2.003   9.164  1.8014 -1.6721  0.0219
 7220TIP3    H245856   5.309   1.927   9.033 -1.8215 -0.1440 -1.0679
 7221TIP3   OH245857   2.799   4.489  11.215 -0.3601 -0.3811 -0.2157
 7221TIP3    H145858   2.763   4.470  11.129  0.2076 -0.4970 -0.4347
 7221TIP3    H245859   2.888   4.520  11.197  0.7183 -2.8877  0.4666
 7222TIP3   OH245860   0.065   0.610  10.346 -0.1341 -0.4736 -0.3009
 7222TIP3    H145861   0.038   0.632  10.435 -1.6129 -2.2582 -0.2438
 7222TIP3    H245862   0.155   0.579  10.355 -0.3657 -0.9090  0.6215
 7223TIP3   OH245863   0.332   2.966  11.622  0.1230 -0.3341  0.9692
 7223TIP3    H145864   0.381   2.884  11.624  0.6255 -0.0281  1.3913
 7223TIP3    H245865   0.398   3.034  11.609 -0.3999 -0.0714 -0.4043
 7224TIP3   OH245866   5.835   4.597   9.187  0.0066 -0.4830  0.2977
 7224TIP3    H145867   5.791   4.513   9.175  0.3754 -0.4588 -1.4084
 7224TIP3    H245868   5.875   4.616   9.102  2.2745  0.0953  1.4165
 7225TIP3   OH245869   5.116   5.044  10.003 -0.4631 -0.3410 -0.0065
 7225TIP3    H145870   5.090   5.120   9.951  0.4555  1.1229  1.5540
 7225TIP3    H245871   5.036   5.014  10.044 -0.7146  0.2936 -0.0206
 7226TIP3   OH245872   3.713   5.385   9.930 -0.2861  0.1096 -0.0191
 7226TIP3    H145873   3.690   5.452   9.866  0.7313  0.1657 -0.3504
 7226TIP3    H245874   3.755   5.433  10.001  2.9692 -0.3166 -1.4463
 7227TIP3   OH245875   1.540   0.147  11.205 -0.8990  0.5944  0.5845
 7227TIP3    H145876   1.452   0.133  11.239 -0.4324 -3.9911  0.5137
 7227TIP3    H245877   1.550   0.082  11.135  2.0933  1.9180 -0.4142
 7228TIP3   OH245878   3.456   0.948   9.834 -0.0604  0.2652  0.2101
 7228TIP3    H145879   3.551   0.962   9.829 -0.4118  2.8085 -1.4052
 7228TIP3    H245880   3.418   1.023   9.787 -2.7865 -2.2553 -2.0411
 7229TIP3   OH245881   2.176   3.029   9.167  0.3211  0.2589 -0.8625
 7229TIP3    H145882   2.097   2.992   9.207  0.3441  2.2118  1.2197
 7229TIP3    H245883   2.222   2.954   9.130 -1.2691 -1.2655  0.0981
 7230TIP3   OH245884   1.482   4.325   9.842  0.5409 -0.4541  0.0371
 7230TIP3    H145885   1.439   4.240   9.850 -0.7668  0.3075  1.9319
 7230TIP3    H245886   1.432   4.382   9.900  3.7992  0.6488  2.0405
 7231TIP3   OH245887   3.078   1.933  10.613 -0.1832  0.2740  0.5151
 7231TIP3    H145888   3.084   1.957  10.520  0.7033 -2.0931 -0.1085
 7231TIP3    H245889   2.996   1.885  10.620  1.2783 -2.4905  0.1171
 7232TIP3   OH245890   0.770   4.627  10.522 -0.4995  0.0589  0.8658
 7232TIP3    H145891   0.699   4.564  10.508 -1.2370  0.7038  1.5915
 7232TIP3    H245892   0.770   4.643  10.616 -0.7868  1.6373  0.6387
 7233TIP3   OH245893   4.545   4.849  10.369 -0.6416  0.0714  0.1597
 7233TIP3    H145894   4.454   4.878  10.365  0.1828  2.8828 -0.9381
 7233TIP3    H245895   4.578   4.882  10.452  0.0413  1.4727 -0.6356
 7234TIP3   OH245896   6.444   3.188   9.188  0.3412 -0.3898  0.9562
 7234TIP3    H145897   6.509   3.129   9.149 -0.1700 -1.8472  2.2110
 7234TIP3    H245898   6.367   3.133   9.202 -1.4286  1.4348 -1.0206
 7235TIP3   OH245899   6.063   6.303   9.842 -0.1333 -0.0096 -0.0700
 7235TIP3    H145900   6.150   6.338   9.860  0.4150 -1.4031  0.1003
 7235TIP3    H245901   6.064   6.215   9.879 -1.7325  0.0572  0.2296
 7236TIP3   OH245902   1.338   4.261   8.873 -0.3288  0.0069  0.2313
 7236TIP3    H145903   1.293   4.343   8.854  1.0106  1.2084  1.9933
 7236TIP3    H245904   1.277   4.193   8.843 -1.6558  1.6023 -0.8641
 7237TIP3   OH245905   1.393   0.889  10.810  0.2242 -0.0972 -0.3245
 7237TIP3    H145906   1.372   0.855  10.897 -2.1138  1.2242 -0.2987
 7237TIP3    H245907   1.349   0.830  10.749 -0.1843  0.3618 -0.4809
 7238TIP3   OH245908   2.054   5.356   9.684  0.0376  0.0364 -0.2862
 7238TIP3    H145909   2.143   5.342   9.653 -1.0673 -3.2705 -2.5327
 7238TIP3    H245910   2.055   5.323   9.774  1.2638  1.0721  0.1133
 7239TIP3   OH245911   5.088   5.730  10.628  0.6409 -0.5312  0.0714
 7239TIP3    H145912   5.182   5.736  10.611  0.7287  0.1554  0.7412
 7239TIP3    H245913   5.051   5.693  10.548  1.2599  0.8204 -0.8857
 7240TIP3   OH245914   3.710   0.486  10.634  0.0415  0.2106 -0.1038
 7240TIP3    H145915   3.689   0.399  10.600  0.0986 -0.3046  1.1575
 7240TIP3    H245916   3.625   0.522  10.661  0.0924  0.3147 -0.0799
 7241TIP3   OH245917   5.377   6.271  11.002 -0.0499 -0.1147 -0.2843
 7241TIP3    H145918   5.386   6.211  11.076 -0.9961 -0.5414 -0.5047
 7241TIP3    H245919   5.425   6.349  11.029  1.3808 -1.0228 -0.0692
 7242TIP3   OH245920   6.162   0.377   9.465  0.3432  0.0512 -0.2893
 7242TIP3    H145921   6.225   0.313   9.498 -1.5206 -1.9140 -0.3644
 7242TIP3    H245922   6.196   0.461   9.495  2.8177 -0.9280 -0.0675
 7243TIP3   OH245923   0.710   2.937  11.558 -0.6969 -0.0250  0.1815
 7243TIP3    H145924   0.655   3.003  11.515 -0.6697 -0.3169 -0.3090
 7243TIP3    H245925   0.649   2.867  11.583 -0.7185  0.1573  0.6610
 7244TIP3   OH245926   0.438   6.605   8.503  0.4584  1.0437 -0.2500
 7244TIP3    H145927   0.494   6.605   8.426 -2.2840 -0.1378 -2.4059
 7244TIP3    H245928   0.364   6.661   8.479 -0.1493  1.2452  1.8354
 7245TIP3   OH245929   5.413   5.617  11.345  0.6575 -0.1688 -0.1788
 7245TIP3    H145930   5.461   5.545  11.386 -0.2154 -0.6341  0.0621
 7245TIP3    H245931   5.329   5.618  11.391  0.3816  0.5290 -0.6870
 7246TIP3   OH245932   3.356   0.567  11.175 -0.0666 -0.3092  0.3309
 7246TIP3    H145933   3.423   0.634  11.165 -1.4092  1.3163  1.5710
 7246TIP3    H245934   3.348   0.555  11.270 -0.2677 -1.8074  0.1430
 7247TIP3   OH245935   5.407   3.061   9.180 -0.2027 -0.9502  0.1586
 7247TIP3    H145936   5.375   3.078   9.092  1.1872  1.9957  0.0990
 7247TIP3    H245937   5.471   2.991   9.169 -2.5582 -3.1468 -0.5041
 7248TIP3   OH245938   3.522   1.301  11.581 -0.2941  0.2665 -0.3226
 7248TIP3    H145939   3.552   1.391  11.588  1.2075 -0.2786  0.7413
 7248TIP3    H245940   3.501   1.289  11.488  0.6403  1.3477 -0.6844
 7249TIP3   OH245941   3.258   4.460  11.066 -0.3847  0.1359  0.1273
 7249TIP3    H145942   3.226   4.417  10.987  0.9744 -1.5184  0.4295
 7249TIP3    H245943   3.324   4.401  11.101  2.3827  2.8961  0.0262
 7250TIP3   OH245944   0.904   5.392   9.239 -0.1198  0.3124 -0.3796
 7250TIP3    H145945   0.818   5.432   9.248 -1.8798 -2.9228 -1.2770
 7250TIP3    H245946   0.929   5.368   9.329 -1.2903 -0.7476 -0.3049
 7251TIP3   OH245947   1.695   2.050   8.852  0.9710  0.0076 -0.1650
 7251TIP3    H145948   1.741   1.967   8.844 -0.1473 -0.6155 -0.3192
 7251TIP3    H245949   1.759   2.110   8.891  1.4944 -1.1564  0.7920
 7252TIP3   OH245950   4.506   5.872   9.622 -0.1564  0.1037 -0.4909
 7252TIP3    H145951   4.423   5.854   9.577 -0.2048  0.5385 -0.5816
 7252TIP3    H245952   4.524   5.793   9.672 -1.3660  0.5201  0.6682
 7253TIP3   OH245953   6.445   5.565  10.242  0.0896 -0.3318 -0.2004
 7253TIP3    H145954   6.518   5.516  10.279  1.0777  1.6225  0.5800
 7253TIP3    H245955   6.453   5.653  10.280 -0.4413  1.0363 -2.9689
 7254TIP3   OH245956   1.777   1.244   8.813 -0.1867 -0.1263  0.1029
 7254TIP3    H145957   1.841   1.173   8.820  0.7100  0.8184  2.0658
 7254TIP3    H245958   1.821   1.320   8.850 -0.4963  1.9850 -3.4197
 7255TIP3   OH245959   4.930   6.014  12.197  0.2274 -0.3008  0.4337
 7255TIP3    H145960   4.852   6.048  12.241  0.9398 -1.7946  3.0616
 7255TIP3    H245961   5.000   6.074  12.224  0.4147 -0.3589  0.0789
 7256TIP3   OH245962   6.155   4.562   9.243  0.1199  0.2163 -0.3336
 7256TIP3    H145963   6.069   4.602   9.236 -0.2149 -0.4818 -0.2153
 7256TIP3    H245964   6.181   4.546   9.152 -0.7097 -1.3301 -0.3269
 7257TIP3   OH245965   4.067   6.191   9.217  0.4462  0.2440 -0.1901
 7257TIP3    H145966   4.133   6.124   9.237  1.3528  0.9872 -0.6040
 7257TIP3    H245967   4.090   6.265   9.273 -0.4108  0.3059  0.0983
 7258TIP3   OH245968   6.227   6.440  10.335  0.0202  0.0496  0.0765
 7258TIP3    H145969   6.229   6.526  10.377  0.3218 -0.0182  0.2076
 7258TIP3    H245970   6.244   6.379  10.407  0.5082 -0.0698 -0.1404
 7259TIP3   OH245971   2.053   0.247  11.176  0.3401  0.1069  0.7866
 7259TIP3    H145972   2.120   0.265  11.110  1.4582 -0.2855  1.7813
 7259TIP3    H245973   1.989   0.192  11.130  1.3895 -0.6550  0.1766
 7260TIP3   OH245974   1.850   3.567  10.862  0.0927 -0.7285 -0.2869
 7260TIP3    H145975   1.803   3.496  10.906 -0.1132  0.4745  1.5538
 7260TIP3    H245976   1.899   3.609  10.933  0.5502  0.6914 -1.4218
 7261TIP3   OH245977   0.778   5.020  11.147  0.1844  0.1720  0.4650
 7261TIP3    H145978   0.766   5.060  11.233 -1.7961 -1.6784  1.1203
 7261TIP3    H245979   0.739   4.933  11.155 -1.2083  0.3861 -2.6649
 7262TIP3   OH245980   5.241   0.811   9.738 -0.3930  0.2255  0.2293
 7262TIP3    H145981   5.327   0.768   9.737 -0.1890  0.6053  0.6078
 7262TIP3    H245982   5.227   0.838   9.648  0.9359  2.1560  0.5279
 7263TIP3   OH245983   3.335   1.495  11.157  0.0214 -0.3340  0.2704
 7263TIP3    H145984   3.307   1.403  11.149  0.2470 -0.4950  1.2098
 7263TIP3    H245985   3.429   1.489  11.175 -0.4416 -0.0872  3.3001
 7264TIP3   OH245986   2.636   0.090  11.985 -0.1869 -0.0679  0.0775
 7264TIP3    H145987   2.626   0.139  12.067  0.4823  2.1588 -1.1028
 7264TIP3    H245988   2.546   0.072  11.957 -0.4215 -0.6942  1.1692
 7265TIP3   OH245989   2.179   2.690  18.669 -0.9742  0.0134 -0.0965
 7265TIP3    H145990   2.165   2.712  18.761  2.9718 -1.5667  1.1131
 7265TIP3    H245991   2.170   2.773  18.623 -0.9007  1.2822  2.0377
 7266TIP3   OH245992   1.870   3.941  11.134 -0.2900 -0.2466  0.2028
 7266TIP3    H145993   1.882   3.846  11.139  2.7355  0.0350  0.3387
 7266TIP3    H245994   1.828   3.964  11.217  2.7767 -1.1081  2.1506
 7267TIP3   OH245995   1.266   1.325   8.812 -0.2537  0.8408  0.2634
 7267TIP3    H145996   1.254   1.295   8.902 -1.1068  0.1805 -0.0586
 7267TIP3    H245997   1.275   1.420   8.820 -0.6115  0.8202  1.0163
 7268TIP3   OH245998   3.361   0.005   9.881  0.2995 -0.0299 -0.0748
 7268TIP3    H145999   3.389  -0.077   9.841  1.5092  0.5993 -0.5737
 7268TIP3    H246000   3.347   0.065   9.808  1.6076  0.8447  0.3417
 7269TIP3   OH246001   5.650   3.053  10.825 -0.0425  0.0158 -0.0053
 7269TIP3    H146002   5.599   3.080  10.902 -0.1436 -1.2066  0.3742
 7269TIP3    H246003   5.608   3.099  10.752  0.8051  2.1560  0.7750
 7270TIP3   OH246004   4.894   2.882  11.763  0.7046 -0.7277 -0.1729
 7270TIP3    H146005   4.941   2.839  11.834  0.6751 -0.6731 -0.1197
 7270TIP3    H246006   4.824   2.931  11.807  2.2312  1.4054 -0.0031
 7271TIP3   OH246007   2.203   3.658  10.780  0.0242 -0.0599 -0.5230
 7271TIP3    H146008   2.179   3.568  10.758  0.0995  0.1459 -1.4989
 7271TIP3    H246009   2.164   3.711  10.710  0.3494  0.6181 -0.1974
 7272TIP3   OH246010   2.124   0.541  11.790 -0.3951  0.4816  0.0184
 7272TIP3    H146011   2.111   0.520  11.882 -2.4380 -3.3004 -0.9175
 7272TIP3    H246012   2.082   0.626  11.778 -0.4341  0.8712  2.4487
 7273TIP3   OH246013   0.209   1.278   9.651 -0.2075 -0.3448  0.1883
 7273TIP3    H146014   0.303   1.297   9.658 -0.4437  1.0772 -0.3781
 7273TIP3    H246015   0.194   1.266   9.557 -0.5437 -0.9233  0.3089
 7274TIP3   OH246016   6.749   2.874   8.867 -0.2273  0.3115 -0.0699
 7274TIP3    H146017   6.806   2.819   8.813 -0.0076  0.5565 -0.0907
 7274TIP3    H246018   6.749   2.959   8.823  1.1622  0.9620  1.1103
 7275TIP3   OH246019   2.565   2.175  10.692  0.0205 -0.2694 -0.2441
 7275TIP3    H146020   2.517   2.158  10.611 -1.6580 -0.9088  0.8290
 7275TIP3    H246021   2.501   2.162  10.762  1.3151  0.6139  1.1950
 7276TIP3   OH246022   1.443   3.468   9.625 -0.2668 -0.0687  0.0223
 7276TIP3    H146023   1.365   3.476   9.569  0.5331  1.4896 -0.9363
 7276TIP3    H246024   1.415   3.503   9.710 -0.5222  0.8094 -0.4157
 7277TIP3   OH246025   4.387   5.216  11.191  0.1339 -0.2201  0.6238
 7277TIP3    H146026   4.390   5.311  11.198 -0.7520 -0.2899  2.6558
 7277TIP3    H246027   4.294   5.194  11.190  0.3050 -1.0147 -1.4539
 7278TIP3   OH246028   2.768   5.164   9.495 -0.2154  0.4449 -0.4693
 7278TIP3    H146029   2.711   5.242   9.499  1.1230  1.4729 -0.7599
 7278TIP3    H246030   2.801   5.164   9.405 -0.0019 -0.3314 -0.3915
 7279TIP3   OH246031   2.669   6.682  10.707 -0.7665 -0.0996  0.4075
 7279TIP3    H146032   2.704   6.594  10.721  0.6128  0.6332  1.8186
 7279TIP3    H246033   2.708   6.710  10.625 -2.4694 -1.3491 -0.9166
 7280TIP3   OH246034   2.490   0.275  10.763  0.8256 -0.7085  0.1161
 7280TIP3    H146035   2.514   0.184  10.743 -1.0346 -1.5361  1.3388
 7280TIP3    H246036   2.537   0.294  10.844  2.2809 -0.0437 -0.8266
 7281TIP3   OH246037   5.379   0.999  10.655 -0.3047 -0.7053  0.3054
 7281TIP3    H146038   5.426   0.919  10.677  0.1008 -0.2454  1.1305
 7281TIP3    H246039   5.291   0.970  10.633  0.2861 -1.5539 -1.0455
 7282TIP3   OH246040   4.459   3.880  11.357 -0.1395  0.4417 -0.2076
 7282TIP3    H146041   4.377   3.849  11.319 -0.3476  0.7903 -0.0510
 7282TIP3    H246042   4.513   3.802  11.366 -1.3316 -0.2039  1.9141
 7283TIP3   OH246043   2.622   0.464   8.780 -0.7522  0.1435  0.6608
 7283TIP3    H146044   2.635   0.402   8.851  2.0556  0.2980  0.4154
 7283TIP3    H246045   2.606   0.409   8.703 -0.8015 -0.1727  0.8951
 7284TIP3   OH246046   1.394   4.797  11.155  0.3990  0.0707 -0.4894
 7284TIP3    H146047   1.411   4.891  11.161  0.9153  0.0068 -0.8800
 7284TIP3    H246048   1.480   4.758  11.139  0.2031 -0.4783 -0.2282
 7285TIP3   OH246049   3.020   3.527   8.766  0.4469 -0.3187 -0.0919
 7285TIP3    H146050   3.045   3.436   8.749 -0.0554 -0.8387  1.7006
 7285TIP3    H246051   3.005   3.530   8.861 -0.3535  1.4300 -0.2410
 7286TIP3   OH246052   4.091   2.627  11.604 -0.1074 -0.1976 -0.4669
 7286TIP3    H146053   4.118   2.661  11.689  3.6107 -1.0408 -1.1046
 7286TIP3    H246054   4.048   2.544  11.624  1.3628 -0.7465  0.6429
 7287TIP3   OH246055   0.891   3.260  11.018  0.4178 -0.1843  0.2589
 7287TIP3    H146056   0.967   3.315  10.998  0.2109  0.4854  1.2344
 7287TIP3    H246057   0.822   3.294  10.960  0.2568  0.6978  0.9386
 7288TIP3   OH246058   4.099   5.192   9.421  0.1266  0.2622 -0.2552
 7288TIP3    H146059   4.155   5.120   9.452 -0.6526 -0.5101 -0.6028
 7288TIP3    H246060   4.141   5.222   9.340 -0.8745 -1.5168 -1.5124
 7289TIP3   OH246061   1.592   2.043  10.711 -0.1781  0.0945 -0.5386
 7289TIP3    H146062   1.533   2.067  10.640  0.1552 -0.6446 -1.0716
 7289TIP3    H246063   1.558   2.090  10.787 -1.7151 -0.6461 -0.7221
 7290TIP3   OH246064   0.785   1.280   9.003 -0.0603  0.0174  0.0865
 7290TIP3    H146065   0.796   1.317   8.916 -0.7585  0.8258  0.3309
 7290TIP3    H246066   0.691   1.282   9.019  0.1400  0.8480  1.2650
 7291TIP3   OH246067   6.208   2.807  10.297 -0.0229  0.7464 -0.0888
 7291TIP3    H146068   6.204   2.764  10.212  0.3427 -0.4076  0.4601
 7291TIP3    H246069   6.266   2.882  10.283  0.7689  0.0395 -0.6288
 7292TIP3   OH246070   3.156   4.620   9.296 -0.1846  0.2505 -0.0670
 7292TIP3    H146071   3.091   4.571   9.346  0.1375  0.6462  0.7434
 7292TIP3    H246072   3.132   4.712   9.308  0.0656  0.3624 -0.4046
 7293TIP3   OH246073   4.334   1.633  10.326  0.3029 -0.5625  0.1006
 7293TIP3    H146074   4.330   1.608  10.419  0.1301 -0.0802  0.2265
 7293TIP3    H246075   4.338   1.550  10.279 -2.2239 -0.9209  0.3952
 7294TIP3   OH246076   2.731   3.884   9.251  0.1335  0.3259 -0.1651
 7294TIP3    H146077   2.814   3.929   9.265  1.5380 -1.6717 -1.4613
 7294TIP3    H246078   2.744   3.836   9.169 -2.4129  0.1303 -0.5333
 7295TIP3   OH246079   4.152   6.169  10.617  0.9664  0.0598 -0.9158
 7295TIP3    H146080   4.212   6.183  10.690 -0.2947  0.2533  0.1066
 7295TIP3    H246081   4.206   6.126  10.550  1.7910 -1.6318  0.7299
 7296TIP3   OH246082   4.183   0.884  10.964 -0.1592  0.1740  0.0595
 7296TIP3    H146083   4.134   0.843  10.893  0.1466 -1.0773  0.5444
 7296TIP3    H246084   4.257   0.927  10.920 -1.2429  1.4397 -0.5960
 7297TIP3   OH246085   1.237   4.382  10.288 -0.5246 -0.4051  0.8356
 7297TIP3    H146086   1.326   4.368  10.256 -1.1274 -1.3134 -0.5489
 7297TIP3    H246087   1.191   4.300  10.269 -1.8391  0.2838  0.8908
 7298TIP3   OH246088   0.222   1.271  10.658 -0.0867  0.5845 -0.1485
 7298TIP3    H146089   0.182   1.251  10.574  0.3586  0.4882 -0.3420
 7298TIP3    H246090   0.316   1.259  10.643 -0.0397  0.1387  0.4789
 7299TIP3   OH246091   4.686   3.705   9.647 -0.1018  0.2550 -0.3828
 7299TIP3    H146092   4.705   3.638   9.581 -3.1893 -1.0740 -0.0707
 7299TIP3    H246093   4.623   3.763   9.606  0.7279  1.6139  0.1913
 7300TIP3   OH246094   0.346   2.103  10.473  0.4222  0.5363  0.3258
 7300TIP3    H146095   0.322   2.046  10.546  1.0684  2.1629  1.8730
 7300TIP3    H246096   0.266   2.107  10.419 -0.2840 -0.1730  1.2825
 7301TIP3   OH246097   4.242   4.536  10.065  0.4483 -0.1394  0.1280
 7301TIP3    H146098   4.224   4.471  10.133 -0.5230  0.9418  0.9419
 7301TIP3    H246099   4.216   4.494   9.984 -1.4880 -0.2840  0.7879
 7302TIP3   OH246100   1.235   0.697  10.629 -0.0220  0.0803 -0.1194
 7302TIP3    H146101   1.187   0.636  10.685 -1.6726  1.1689 -0.2946
 7302TIP3    H246102   1.241   0.652  10.544  0.0692 -0.4301  0.1528
 7303TIP3   OH246103   2.963   4.972  10.622 -0.0661 -0.0809  0.1648
 7303TIP3    H146104   2.884   4.947  10.575 -1.0778  0.8168  1.3019
 7303TIP3    H246105   2.983   5.059  10.590  1.1240 -0.7106 -0.8932
 7304TIP3   OH246106   0.144   3.775  10.427 -0.2875 -0.2235 -0.1216
 7304TIP3    H146107   0.222   3.803  10.474 -1.7072  0.3839  2.0458
 7304TIP3    H246108   0.143   3.680  10.435  0.3673 -0.2544 -0.3940
 7305TIP3   OH246109   0.953   1.076   9.060 -0.0007 -0.1508 -0.4344
 7305TIP3    H146110   0.930   0.991   9.022  1.0300 -0.2054 -0.9869
 7305TIP3    H246111   0.876   1.130   9.046 -0.3390 -0.7328 -0.8944
 7306TIP3   OH246112   1.514   0.845  10.465 -0.3894 -0.0681  0.1269
 7306TIP3    H146113   1.564   0.924  10.443 -2.5578  1.0424 -1.1865
 7306TIP3    H246114   1.444   0.877  10.522 -0.4900 -1.3088  0.7188
 7307TIP3   OH246115   4.115   0.906   9.349 -0.3713  0.5680  0.1718
 7307TIP3    H146116   4.121   0.814   9.327  1.9015  1.0562 -1.6030
 7307TIP3    H246117   4.174   0.950   9.287 -2.7287  3.4356 -0.2750
 7308TIP3   OH246118   2.608   3.353   9.635  0.1333 -0.3438  0.0476
 7308TIP3    H146119   2.526   3.382   9.675 -0.7752 -2.0043 -0.5442
 7308TIP3    H246120   2.595   3.367   9.541  1.4549  1.5488  0.0777
 7309TIP3   OH246121   5.460   4.943  10.571  0.7146 -0.0678  0.1267
 7309TIP3    H146122   5.537   4.912  10.617  0.5147  0.0946  0.5758
 7309TIP3    H246123   5.494   4.975  10.487  1.3093  1.0783  0.7738
 7310TIP3   OH246124   5.186   2.101   8.550 -0.0191  0.0921 -0.7260
 7310TIP3    H146125   5.164   2.012   8.523  0.3463 -0.1410 -0.2655
 7310TIP3    H246126   5.237   2.090   8.630 -1.0807  0.7607  0.0843
 7311TIP3   OH246127   1.116   4.445   9.240  1.2494 -0.0733  0.2306
 7311TIP3    H146128   1.087   4.373   9.297  1.4566  0.6601  1.2998
 7311TIP3    H246129   1.203   4.417   9.211  0.9798 -0.6385 -0.0515
 7312TIP3   OH246130   1.295   5.807  10.997 -0.5150  0.7490 -0.6999
 7312TIP3    H146131   1.355   5.734  10.979  0.2210  1.5841 -1.7059
 7312TIP3    H246132   1.347   5.886  10.981 -1.1461  1.5230  0.8686
 7313TIP3   OH246133   4.994   3.222   8.643 -0.3516 -0.1395  0.5026
 7313TIP3    H146134   4.962   3.306   8.675  2.0398  1.0529  0.0370
 7313TIP3    H246135   5.023   3.240   8.554 -1.1183 -1.8589 -0.1438
 7314TIP3   OH246136   6.507   6.418   9.654 -0.2288 -0.0318 -0.2066
 7314TIP3    H146137   6.517   6.507   9.619 -1.0539 -0.4208 -1.4961
 7314TIP3    H246138   6.444   6.376   9.596 -0.4097 -1.2461  0.8223
 7315TIP3   OH246139   6.774   3.570   9.407 -0.7458 -0.4995 -0.6483
 7315TIP3    H146140   6.820   3.548   9.487 -0.1550 -0.2944 -0.9267
 7315TIP3    H246141   6.689   3.527   9.416 -0.8254 -0.1673  0.2454
 7316TIP3   OH246142   5.637   4.702  11.251 -0.0464  0.2351  0.4558
 7316TIP3    H146143   5.652   4.695  11.345  1.0613 -0.6900  0.2374
 7316TIP3    H246144   5.604   4.616  11.226 -0.0550  0.3808 -0.0416
 7317TIP3   OH246145   0.330   4.204  11.804 -0.8820  0.5269 -0.5832
 7317TIP3    H146146   0.236   4.221  11.808 -1.3715 -1.7225  4.1949
 7317TIP3    H246147   0.365   4.246  11.882  0.9536 -3.2851  0.8831
 7318TIP3   OH246148   5.311   4.205   9.648 -0.2824 -0.2069 -0.1492
 7318TIP3    H146149   5.322   4.286   9.598  0.1691 -0.1660  0.0124
 7318TIP3    H246150   5.349   4.224   9.734  2.1107 -1.3445 -0.8703
 7319TIP3   OH246151   3.391   6.266  10.547 -0.4291 -0.6141 -0.2728
 7319TIP3    H146152   3.379   6.308  10.463  0.8591 -0.3078 -0.3295
 7319TIP3    H246153   3.368   6.332  10.612  1.3709  0.1636 -0.3645
 7320TIP3   OH246154   0.430   4.286  12.058  0.3982  0.3151 -0.0702
 7320TIP3    H146155   0.503   4.262  12.115  0.1102 -0.5414 -0.0447
 7320TIP3    H246156   0.356   4.300  12.118 -0.5697 -2.9724 -0.2769
 7321TIP3   OH246157   5.490   1.815   9.037  0.0511 -0.4809 -0.1848
 7321TIP3    H146158   5.505   1.817   9.131  0.0088 -1.1799 -0.1580
 7321TIP3    H246159   5.578   1.822   8.999 -0.0285  1.2403 -0.1324
 7322TIP3   OH246160   6.636   3.020   9.081 -0.0633 -0.8189 -0.2846
 7322TIP3    H146161   6.731   3.015   9.076 -0.0543  0.2869 -1.8076
 7322TIP3    H246162   6.605   2.948   9.025 -0.0523  0.8120 -2.5224
 7323TIP3   OH246163   2.469   0.552  10.938  0.1872 -0.3289  0.3013
 7323TIP3    H146164   2.444   0.639  10.907 -1.2061 -0.2173  1.6447
 7323TIP3    H246165   2.523   0.516  10.868 -2.0554  0.2509 -1.8567
 7324TIP3   OH246166   3.883   6.389  10.233  0.1413  0.5555 -0.2283
 7324TIP3    H146167   3.843   6.413  10.317 -0.8344 -3.5128  0.6430
 7324TIP3    H246168   3.810   6.359  10.179  1.3157 -2.9126 -0.1352
 7325TIP3   OH246169   5.950   4.810  12.100 -0.5380  0.3167  0.4020
 7325TIP3    H146170   5.964   4.740  12.035 -2.1102  0.8018 -0.5177
 7325TIP3    H246171   5.974   4.890  12.054  0.1786  0.5109  1.0878
 7326TIP3   OH246172   1.070   0.349   9.246  0.2117  0.3097  0.5629
 7326TIP3    H146173   0.992   0.349   9.300 -0.4701 -0.1740 -0.3916
 7326TIP3    H246174   1.055   0.280   9.181  0.3303  1.7853 -1.1351
 7327TIP3   OH246175   1.327   1.132  11.114  0.8479  0.0461  0.6879
 7327TIP3    H146176   1.395   1.186  11.154  1.6264 -0.5998  0.2661
 7327TIP3    H246177   1.283   1.190  11.052  1.7400  0.1664  0.1661
 7328TIP3   OH246178   3.875   4.638  11.387  0.3300  0.1097  0.4657
 7328TIP3    H146179   3.963   4.601  11.375 -0.0740 -1.2487  1.4718
 7328TIP3    H246180   3.851   4.670  11.300  1.1122 -1.1585 -0.2593
 7329TIP3   OH246181   3.061   6.252  11.631  0.0755 -0.0997 -0.7384
 7329TIP3    H146182   3.074   6.307  11.708 -0.4774  2.4211 -2.3331
 7329TIP3    H246183   3.145   6.253  11.585 -0.3222  0.5809 -1.4717
 7330TIP3   OH246184   2.082   1.097  10.050  0.2304 -0.0717  0.5155
 7330TIP3    H146185   2.150   1.157  10.082  0.4346  0.2854 -0.5759
 7330TIP3    H246186   2.109   1.011  10.084  1.1769  0.0843  0.1850
 7331TIP3   OH246187   0.190   6.100  11.723  0.3597  0.0551 -0.1022
 7331TIP3    H146188   0.211   6.184  11.763  1.4588  0.5865 -1.6708
 7331TIP3    H246189   0.275   6.065  11.695 -0.1957 -1.0501 -0.4686
 7332TIP3   OH246190   4.762   2.545  10.617  0.0708 -0.1796  0.0665
 7332TIP3    H146191   4.700   2.548  10.544 -0.4220  2.1147  0.5111
 7332TIP3    H246192   4.802   2.632  10.618  1.7430 -0.9089  1.1491
 7333TIP3   OH246193   0.933   5.886  10.616 -0.3627  0.5810 -0.1451
 7333TIP3    H146194   0.971   5.800  10.601 -0.9503  0.2369  0.3197
 7333TIP3    H246195   0.966   5.913  10.702 -1.0344  0.3489  0.1896
 7334TIP3   OH246196   6.177   2.755  10.012  0.0288  0.4285 -0.3397
 7334TIP3    H146197   6.269   2.728  10.019  0.3898  1.8096  0.8094
 7334TIP3    H246198   6.165   2.776   9.919 -0.3296 -3.5466 -1.3704
 7335TIP3   OH246199   4.293   1.797   9.161 -0.2761 -0.0822 -0.3729
 7335TIP3    H146200   4.228   1.852   9.119 -0.8849  0.4067  1.1387
 7335TIP3    H246201   4.374   1.815   9.114 -1.0471 -0.0300 -1.7076
 7336TIP3   OH246202   2.430   5.700  11.366  0.1483 -0.1796 -0.4365
 7336TIP3    H146203   2.336   5.718  11.364 -0.0322 -0.9496  0.4884
 7336TIP3    H246204   2.466   5.764  11.428  0.1426 -0.2265 -0.3840
 7337TIP3   OH246205   6.473   6.196   8.793 -0.1655  0.4584 -0.2928
 7337TIP3    H146206   6.562   6.196   8.827 -1.1864  1.8524  2.7329
 7337TIP3    H246207   6.436   6.111   8.818  0.2812 -0.1695 -1.6550
 7338TIP3   OH246208   4.290   5.546  10.228 -0.4523  0.4855  0.1499
 7338TIP3    H146209   4.267   5.476  10.167 -0.7824  0.9998 -0.3281
 7338TIP3    H246210   4.227   5.537  10.300  0.9330 -1.1181  1.2358
 7339TIP3   OH246211   0.739   0.017   9.865 -0.1112  0.1333 -0.2558
 7339TIP3    H146212   0.814  -0.016   9.915 -0.0992 -2.3391 -1.7396
 7339TIP3    H246213   0.778   0.069   9.795  0.0248  1.0916  0.5056
 7340TIP3   OH246214   6.156   2.984   9.020 -0.2776 -0.1225 -0.2794
 7340TIP3    H146215   6.108   2.906   9.049 -0.8395  0.4404  0.3156
 7340TIP3    H246216   6.097   3.026   8.957  1.0278 -1.4772 -2.5837
 7341TIP3   OH246217   6.183   4.068  10.386  0.1371  0.0469 -0.0435
 7341TIP3    H146218   6.227   3.991  10.350  3.4288  2.0287 -0.6466
 7341TIP3    H246219   6.244   4.103  10.451 -1.1020  2.2874  0.0197
 7342TIP3   OH246220   1.830   5.481   9.951 -0.5827  0.1268 -0.6583
 7342TIP3    H146221   1.905   5.498   9.894  0.5957  1.0749  1.0799
 7342TIP3    H246222   1.868   5.470  10.038 -2.4827  1.1612  0.3721
 7343TIP3   OH246223   4.502   1.517  10.072 -0.2299 -0.1808 -0.3916
 7343TIP3    H146224   4.542   1.577  10.009  0.6432 -0.4659 -0.1144
 7343TIP3    H246225   4.568   1.505  10.140 -1.3255  0.4820  0.8437
 7344TIP3   OH246226   0.794   2.520  10.700  0.6144  0.3292  0.0317
 7344TIP3    H146227   0.841   2.507  10.617 -2.0299  0.2694 -1.5808
 7344TIP3    H246228   0.799   2.614  10.717  0.6788  0.4331 -0.5487
 7345TIP3   OH246229   3.636   3.723  12.887  0.0775 -0.1795 -0.2786
 7345TIP3    H146230   3.707   3.673  12.845  0.8504  0.9429 -0.3480
 7345TIP3    H246231   3.680   3.798  12.926 -0.8993 -0.1945  0.9061
 7346TIP3   OH246232   3.196   2.922  10.413 -0.2697  0.0083 -0.0336
 7346TIP3    H146233   3.198   2.975  10.334 -0.4619 -0.0872 -0.1029
 7346TIP3    H246234   3.196   2.832  10.381  0.9324 -0.0500  0.0960
 7347TIP3   OH246235   4.537   0.960  11.898  0.3421 -0.0269  0.5247
 7347TIP3    H146236   4.537   1.017  11.975 -0.0086 -0.7232  1.0553
 7347TIP3    H246237   4.609   0.899  11.913  0.7670  0.3146 -0.0783
 7348TIP3   OH246238   4.049   1.356   9.247 -0.1414  0.1880 -0.0743
 7348TIP3    H146239   4.019   1.269   9.221  0.8437 -0.3810  0.6233
 7348TIP3    H246240   4.061   1.403   9.164  0.8309 -0.8620 -0.5477
 7349TIP3   OH246241   0.853   2.271   9.247  0.5530  0.9086  0.0741
 7349TIP3    H146242   0.850   2.354   9.200  1.5733  0.3886 -0.9311
 7349TIP3    H246243   0.937   2.272   9.293  1.3150 -0.2433 -1.2410
 7350TIP3   OH246244   0.693   4.487  11.242  0.5181  0.3266 -0.5737
 7350TIP3    H146245   0.757   4.417  11.253  0.8081  0.8638  1.7732
 7350TIP3    H246246   0.629   4.473  11.312  0.4120  2.1778 -0.2402
 7351TIP3   OH246247   5.332   5.191  11.282  0.3847  0.0247 -0.1286
 7351TIP3    H146248   5.262   5.247  11.248 -0.0248 -0.2778  0.1937
 7351TIP3    H246249   5.289   5.107  11.299  0.8785 -0.2317 -0.1272
 7352TIP3   OH246250   3.696   0.846  10.056  0.2492 -0.4049 -0.0985
 7352TIP3    H146251   3.630   0.916  10.053 -0.4776 -1.0618  0.1793
 7352TIP3    H246252   3.663   0.786  10.123  0.6615 -1.2117 -0.6108
 7353TIP3   OH246253   5.031   3.295  11.871  0.0300  0.2846 -0.5157
 7353TIP3    H146254   5.084   3.228  11.829 -0.2621 -0.9052  0.9414
 7353TIP3    H246255   5.026   3.366  11.806  0.0310 -1.2319 -2.2394
 7354TIP3   OH246256   1.548   2.481  10.607 -0.3200 -0.6330 -0.4308
 7354TIP3    H146257   1.473   2.441  10.564 -1.1542  0.1811  0.2134
 7354TIP3    H246258   1.579   2.548  10.546 -2.8615  2.0565  0.9805
 7355TIP3   OH246259   5.463   5.233   8.822  0.6755 -0.1661  0.4104
 7355TIP3    H146260   5.410   5.312   8.838  0.6761  0.0289 -0.4865
 7355TIP3    H246261   5.507   5.217   8.905  0.8672  0.9338  0.5363
 7356TIP3   OH246262   5.328   4.804  10.336 -0.5239 -0.4442 -0.1249
 7356TIP3    H146263   5.313   4.798  10.430 -1.6022 -0.1078 -0.2625
 7356TIP3    H246264   5.280   4.882  10.309  1.8525  0.9864 -0.5711
 7357TIP3   OH246265   2.044   2.290   8.957  0.6361 -0.3434  0.4423
 7357TIP3    H146266   2.047   2.196   8.970 -3.9670 -1.0022 -1.1996
 7357TIP3    H246267   2.029   2.326   9.045 -0.9300 -1.5830  0.7337
 7358TIP3   OH246268   0.510   3.601  10.920 -0.0249 -0.1176 -0.0525
 7358TIP3    H146269   0.539   3.682  10.879  0.4095 -0.6512 -0.8245
 7358TIP3    H246270   0.422   3.621  10.953 -0.0477  0.5680 -0.5117
 7359TIP3   OH246271   5.558   1.546   9.451 -0.1838  0.0507  0.2115
 7359TIP3    H146272   5.512   1.624   9.484 -1.4899 -0.7449  0.3576
 7359TIP3    H246273   5.519   1.531   9.365  1.1610  0.4275 -0.4905
 7360TIP3   OH246274   3.292   2.620  11.184 -0.0842  0.5909 -1.1698
 7360TIP3    H146275   3.222   2.584  11.239 -0.6926  1.9980 -0.9774
 7360TIP3    H246276   3.268   2.594  11.095 -0.2283  0.0909 -0.9917
 7361TIP3   OH246277   4.367   5.834   8.679 -0.6084  0.2454 -1.2066
 7361TIP3    H146278   4.398   5.925   8.682 -0.8167  0.2896  0.3063
 7361TIP3    H246279   4.282   5.836   8.722 -0.7209 -0.6318 -1.3706
 7362TIP3   OH246280   0.517   4.176  11.581  0.1641  0.3225 -0.3005
 7362TIP3    H146281   0.558   4.212  11.659 -0.9275 -0.3694  0.6205
 7362TIP3    H246282   0.432   4.143  11.611  0.6372 -2.0208 -1.2940
 7363TIP3   OH246283   4.104   4.873  11.337 -0.9694  0.0710 -0.4038
 7363TIP3    H146284   4.033   4.891  11.398 -0.1973  0.2752  0.4537
 7363TIP3    H246285   4.158   4.808  11.381  0.3514  1.2231 -0.2403
 7364TIP3   OH246286   5.586   2.783  10.564 -0.5682  0.2318 -0.2849
 7364TIP3    H146287   5.603   2.813  10.475 -1.1887  1.8278  0.1007
 7364TIP3    H246288   5.502   2.824  10.587  0.0963  0.6956  1.4009
 7365TIP3   OH246289   5.936   4.652  11.876  0.0399  0.4978 -0.8835
 7365TIP3    H146290   5.883   4.629  11.799  0.0481  0.8072 -0.9820
 7365TIP3    H246291   6.025   4.625  11.853  0.1169  0.9689 -1.1505
 7366TIP3   OH246292   6.210   6.695   8.563 -0.4772 -0.2067 -0.5448
 7366TIP3    H146293   6.240   6.785   8.578 -1.4770 -0.2084  1.8608
 7366TIP3    H246294   6.284   6.641   8.588 -0.0137 -0.0920 -1.6138
 7367TIP3   OH246295   4.567   0.769   9.731 -0.1169 -0.2464  0.0619
 7367TIP3    H146296   4.590   0.856   9.764 -2.2205 -0.0778  1.1993
 7367TIP3    H246297   4.557   0.715   9.809 -0.3961 -1.0996 -0.5504
 7368TIP3   OH246298   1.906   3.215  11.720 -0.3916  0.2190 -0.1843
 7368TIP3    H146299   1.930   3.149  11.655  1.9818  0.9953 -0.1996
 7368TIP3    H246300   1.890   3.294  11.669 -2.1072 -0.0272 -0.0731
 7369TIP3   OH246301   1.511   3.886  11.175 -0.4556 -0.8816  0.6773
 7369TIP3    H146302   1.474   3.974  11.190 -1.3007 -0.6969 -1.9787
 7369TIP3    H246303   1.497   3.841  11.258  1.1635  1.8202  2.5884
 7370TIP3   OH246304   5.646   2.625  10.221 -0.6021 -0.4196  0.5837
 7370TIP3    H146305   5.737   2.624  10.251 -0.7344  3.3033  1.6768
 7370TIP3    H246306   5.646   2.683  10.145 -2.0292 -0.5654  0.4466
 7371TIP3   OH246307   0.927   3.098  10.720  0.4730 -0.6549  0.9754
 7371TIP3    H146308   0.894   3.081  10.632  0.7729 -0.8295  0.8936
 7371TIP3    H246309   0.858   3.069  10.779 -0.6227  1.3639  0.7677
 7372TIP3   OH246310   4.356   3.559  10.299  0.4522 -0.1207  0.0463
 7372TIP3    H146311   4.280   3.528  10.250  0.2310  0.5851 -0.0681
 7372TIP3    H246312   4.418   3.486  10.296 -0.6933 -1.1949  1.1967
 7373TIP3   OH246313   6.208   4.100   9.668  0.0882  0.0886 -0.7451
 7373TIP3    H146314   6.181   4.032   9.607 -2.1576 -0.1804  0.4659
 7373TIP3    H246315   6.155   4.176   9.645  0.2295  0.4159 -0.0238
 7374TIP3   OH246316   3.081   6.492  12.221  0.4542 -0.1953  0.7737
 7374TIP3    H146317   3.105   6.558  12.156 -0.2272 -1.1948 -0.5593
 7374TIP3    H246318   3.046   6.542  12.295  1.1563  0.9736  0.3369
 7375TIP3   OH246319   0.184   2.862  10.619 -0.0105 -0.4893 -0.1574
 7375TIP3    H146320   0.238   2.912  10.681 -0.4266  0.7612 -0.7627
 7375TIP3    H246321   0.096   2.899  10.629 -0.3481 -1.1472 -0.5955
 7376TIP3   OH246322   5.259   2.206  10.745  0.1563 -0.3674 -0.3623
 7376TIP3    H146323   5.191   2.247  10.798 -0.2674 -1.6116  0.0978
 7376TIP3    H246324   5.240   2.234  10.655 -1.2369 -1.0461 -0.3012
 7377TIP3   OH246325   3.381   6.272   9.050 -0.5477  0.3491 -0.4810
 7377TIP3    H146326   3.446   6.202   9.047 -0.2620  0.5118  1.0794
 7377TIP3    H246327   3.298   6.228   9.029 -0.4776 -0.6370  1.0999
 7378TIP3   OH246328   5.967   2.774   9.090  0.4284  0.2128 -0.4284
 7378TIP3    H146329   5.886   2.814   9.122 -0.0446 -1.0088 -0.0316
 7378TIP3    H246330   5.942   2.684   9.069  1.5843 -0.0429 -0.7526
 7379TIP3   OH246331   4.401   3.490   9.518  0.3989  0.0090  0.2083
 7379TIP3    H146332   4.332   3.475   9.454  2.1139  0.1453 -1.7532
 7379TIP3    H246333   4.396   3.414   9.576 -0.1339 -0.9843 -1.0926
 7380TIP3   OH246334   5.129   5.666  10.160 -0.1689  0.0092  0.3679
 7380TIP3    H146335   5.188   5.590  10.154 -0.2257 -0.0120  0.0621
 7380TIP3    H246336   5.128   5.702  10.071 -0.2494  0.2880  0.4812
 7381TIP3   OH246337   1.681   4.003  10.847 -0.0782 -0.2046 -0.6259
 7381TIP3    H146338   1.716   4.064  10.912  0.9313 -1.0962 -0.3137
 7381TIP3    H246339   1.586   4.008  10.859  0.0663  0.0297  0.5663
 7382TIP3   OH246340   4.285   0.425   9.364 -0.9234 -0.1711 -0.1317
 7382TIP3    H146341   4.306   0.336   9.336 -1.4786 -0.1163 -0.7370
 7382TIP3    H246342   4.368   0.461   9.394 -0.6236 -0.7655 -0.2328
 7383TIP3   OH246343   1.646   6.745  10.095  0.1011  0.0712  0.2287
 7383TIP3    H146344   1.650   6.734  10.190 -0.0479  1.8668  0.4799
 7383TIP3    H246345   1.731   6.783  10.072 -1.2961  3.7456  0.3517
 7384TIP3   OH246346   3.071   3.094   8.944 -0.4411  0.2335  0.3271
 7384TIP3    H146347   3.090   3.025   8.881 -0.1511  0.0227  0.6422
 7384TIP3    H246348   3.054   3.048   9.026 -0.8028  0.5062  0.4087
 7385TIP3   OH246349   1.556   1.601  10.683  0.4147  0.6940  0.5126
 7385TIP3    H146350   1.639   1.562  10.656  0.6413  0.3633  1.6136
 7385TIP3    H246351   1.520   1.639  10.603  0.5893 -1.0177 -0.4228
 7386TIP3   OH246352   3.881   2.010  11.143  0.6804 -0.2439  0.0440
 7386TIP3    H146353   3.859   2.060  11.064 -0.2775  0.0007  0.4499
 7386TIP3    H246354   3.911   2.076  11.206 -0.3658 -0.1847  0.5030
 7387TIP3   OH246355   2.729   1.394  11.556 -0.3212  0.1143  0.2280
 7387TIP3    H146356   2.704   1.340  11.480  0.2988  0.2308 -0.0645
 7387TIP3    H246357   2.653   1.451  11.570 -0.0857  0.7242 -0.8871
 7388TIP3   OH246358   1.833   1.894  10.892  0.8318  0.2033  0.1586
 7388TIP3    H146359   1.841   1.812  10.941  0.1870 -1.1277 -1.8307
 7388TIP3    H246360   1.900   1.888  10.824  0.5106  1.1557 -0.2573
 7389TIP3   OH246361   4.322   5.719  11.447 -0.5439 -0.2176  0.5844
 7389TIP3    H146362   4.410   5.748  11.424 -0.6998  1.0569  1.4738
 7389TIP3    H246363   4.334   5.634  11.488 -0.0077 -1.2579 -1.5832
 7390TIP3   OH246364   4.681   5.876  10.090 -0.0809  0.1103  0.4261
 7390TIP3    H146365   4.656   5.916  10.173 -0.7107 -0.4861  0.5299
 7390TIP3    H246366   4.673   5.782  10.105  0.0418 -0.0118 -0.2357
 7391TIP3   OH246367   2.011   0.110  10.799 -0.0587  0.1890  0.3811
 7391TIP3    H146368   1.916   0.099  10.791 -0.3152  1.6946  1.0594
 7391TIP3    H246369   2.038   0.146  10.715  0.0605 -0.9992 -0.1102
 7392TIP3   OH246370   0.821   5.335  11.045 -0.1413  0.2192 -0.4130
 7392TIP3    H146371   0.764   5.313  11.119  0.6133  0.8103  0.3614
 7392TIP3    H246372   0.907   5.302  11.070 -0.0642 -0.4273 -1.4570
 7393TIP3   OH246373   1.451   5.797   8.679 -0.0393 -0.4335 -0.0041
 7393TIP3    H146374   1.543   5.822   8.675  0.0489 -0.8402 -0.7901
 7393TIP3    H246375   1.403   5.880   8.676  0.3067 -0.1681  1.3484
 7394TIP3   OH246376   3.310   2.878   9.670 -0.6093 -0.1313  0.3935
 7394TIP3    H146377   3.219   2.864   9.642 -0.7959  0.8649  0.4723
 7394TIP3    H246378   3.313   2.970   9.695  1.1619  0.6545 -2.3159
 7395TIP3   OH246379   0.563   1.028   9.143  0.3106 -0.0175 -0.1677
 7395TIP3    H146380   0.496   1.033   9.211  1.3971 -0.5647  0.9866
 7395TIP3    H246381   0.560   1.112   9.099 -1.2886 -0.1177 -0.3025
 7396TIP3   OH246382   2.027   6.050   9.315  0.5360  0.0171 -0.0790
 7396TIP3    H146383   2.081   5.994   9.371 -0.4237  1.2679  2.2501
 7396TIP3    H246384   1.939   6.016   9.325  0.2160  0.8245 -0.0704
 7397TIP3   OH246385   3.717   0.443   9.265  0.0462 -0.7127  0.4922
 7397TIP3    H146386   3.644   0.415   9.210  0.7053 -0.0100 -0.7692
 7397TIP3    H246387   3.776   0.367   9.268 -0.1933 -0.8947  0.5906
 7398TIP3   OH246388   1.027   5.176  10.739 -0.4277  0.3626  0.2622
 7398TIP3    H146389   1.014   5.088  10.774 -1.7364 -0.1598 -1.3610
 7398TIP3    H246390   0.958   5.185  10.673 -1.0515  3.0428  1.1723
 7399TIP3   OH246391   3.772   1.987   8.765 -0.3427 -0.0563 -0.6917
 7399TIP3    H146392   3.789   1.905   8.720 -0.0964 -1.1868  1.3653
 7399TIP3    H246393   3.771   1.965   8.858 -0.9890  2.1411 -0.0988
 7400TIP3   OH246394   0.242   5.753  11.950 -0.4808  0.1330 -0.0496
 7400TIP3    H146395   0.321   5.798  11.980 -0.1117 -0.3054 -0.3385
 7400TIP3    H246396   0.173   5.819  11.956 -0.3237  0.2201  1.2460
 7401TIP3   OH246397   2.345   4.277  12.120  0.5323  0.2760  0.4649
 7401TIP3    H146398   2.434   4.261  12.089 -0.0103 -1.8359 -0.1256
 7401TIP3    H246399   2.332   4.215  12.192 -0.4878  0.4922  0.4850
 7402TIP3   OH246400   6.459   3.499   9.534 -0.7318 -0.2004  0.2844
 7402TIP3    H146401   6.498   3.429   9.482  0.6313  0.8710 -0.1940
 7402TIP3    H246402   6.383   3.527   9.483 -0.0206  0.1226 -0.6302
 7403TIP3   OH246403   2.650   3.185   8.722  0.5214 -0.7426  0.0906
 7403TIP3    H146404   2.577   3.235   8.688 -0.9125 -1.9839  1.2030
 7403TIP3    H246405   2.728   3.227   8.684 -0.7609  0.2812 -1.5456
 7404TIP3   OH246406   1.678   2.678   9.261  0.0306 -0.1863 -0.0927
 7404TIP3    H146407   1.634   2.704   9.180 -1.3772 -1.8752  0.0854
 7404TIP3    H246408   1.635   2.730   9.329 -0.1666 -0.2353 -0.1805
 7405TIP3   OH246409   2.641   3.868   8.844 -0.5515 -0.0535 -0.0572
 7405TIP3    H146410   2.692   3.813   8.903  0.8147  0.7008 -0.4826
 7405TIP3    H246411   2.573   3.907   8.900  0.3873  0.2381  0.9112
 7406TIP3   OH246412   5.181   6.774   9.002  0.5776  0.2513  0.2618
 7406TIP3    H146413   5.265   6.819   9.003 -0.7941  3.3263 -2.8227
 7406TIP3    H246414   5.117   6.843   8.989 -2.3132 -2.1288  0.8149
 7407TIP3   OH246415   1.343   6.734   9.675 -0.8229 -0.2450  0.2241
 7407TIP3    H146416   1.327   6.723   9.769 -0.0381 -2.3119  0.1720
 7407TIP3    H246417   1.286   6.669   9.634  0.7611 -1.2376 -0.5172
 7408TIP3   OH246418   0.223   3.234  10.303 -0.1198  0.4785 -0.3014
 7408TIP3    H146419   0.252   3.170  10.238 -1.1497  0.8721 -1.1696
 7408TIP3    H246420   0.233   3.189  10.387 -2.5999 -1.6076 -0.9913
 7409TIP3   OH246421   6.702   6.620  10.972  0.1094  0.5373 -0.7633
 7409TIP3    H146422   6.667   6.671  11.045  0.7573 -3.5672  2.8407
 7409TIP3    H246423   6.631   6.619  10.907 -2.0452  1.4669  1.4144
 7410TIP3   OH246424   5.008   5.278   9.560  0.7057  0.0975  0.1848
 7410TIP3    H146425   4.966   5.364   9.553  0.6883  0.0499 -0.2981
 7410TIP3    H246426   4.961   5.224   9.497  0.1982 -0.4825  1.0367
 7411TIP3   OH246427   4.189   2.959  11.501 -0.0917 -0.5358 -0.3675
 7411TIP3    H146428   4.269   2.914  11.529 -0.6893 -0.8961  0.8453
 7411TIP3    H246429   4.152   2.901  11.434  0.5279 -0.4905 -0.7573
 7412TIP3   OH246430   1.359   0.190  10.188  0.1913  0.4388 -0.6267
 7412TIP3    H146431   1.338   0.099  10.168 -1.2679 -0.0833  2.7171
 7412TIP3    H246432   1.451   0.188  10.215  0.3616  0.1101 -1.2152
 7413TIP3   OH246433   0.887   2.531   9.194  0.4718  0.3554  0.2475
 7413TIP3    H146434   0.868   2.610   9.245  0.6704  0.3023  0.4062
 7413TIP3    H246435   0.939   2.561   9.120 -0.0721  0.4771 -0.0965
 7414TIP3   OH246436   4.328   3.766   8.815 -0.1937 -0.2726  0.0210
 7414TIP3    H146437   4.298   3.796   8.900  1.5999  0.0969  0.5673
 7414TIP3    H246438   4.248   3.754   8.764 -1.1749  2.9084  0.6039
 7415TIP3   OH246439   0.611   1.932  10.178  0.3291 -0.1921 -0.5465
 7415TIP3    H146440   0.694   1.905  10.218 -0.1605 -0.7989  0.0882
 7415TIP3    H246441   0.600   2.023  10.204  1.3344  0.2396 -1.5614
 7416TIP3   OH246442   2.329   5.807  11.833 -0.3619  0.0733  0.0382
 7416TIP3    H146443   2.349   5.828  11.925  0.7660 -0.5129 -0.0593
 7416TIP3    H246444   2.256   5.746  11.838  0.1471 -0.5079  0.5969
 7417TIP3   OH246445   3.060   6.647  11.057  0.1382  0.3482  0.1546
 7417TIP3    H146446   2.967   6.626  11.071  0.4914 -1.0918  0.4702
 7417TIP3    H246447   3.086   6.693  11.137 -0.5412  1.7357 -0.3752
 7418TIP3   OH246448   1.719   4.014  11.842  0.8073  0.5482  0.4394
 7418TIP3    H146449   1.630   4.020  11.806  0.8864  2.5130  0.4641
 7418TIP3    H246450   1.721   4.078  11.913  2.3579  0.8055  0.2038
 7419TIP3   OH246451   6.142   3.415  11.679  0.2730  0.0772 -0.3037
 7419TIP3    H146452   6.217   3.474  11.676  1.8942 -1.7964  0.8862
 7419TIP3    H246453   6.069   3.467  11.647  1.6686  2.6130  0.3908
 7420TIP3   OH246454   4.945   0.811   9.563 -0.2618  0.4042 -0.3581
 7420TIP3    H146455   4.952   0.852   9.649 -2.4607 -0.6890  0.3965
 7420TIP3    H246456   5.027   0.836   9.518  0.5194  1.7487  1.6762
 7421TIP3   OH246457   4.412   1.350  10.715  0.0567  0.4821  0.7865
 7421TIP3    H146458   4.385   1.326  10.627  1.5395  1.5691 -0.0030
 7421TIP3    H246459   4.420   1.266  10.762 -0.1412 -0.1511 -0.2876
 7422TIP3   OH246460   0.174   5.014  10.837 -0.1275  0.5380  0.0171
 7422TIP3    H146461   0.262   4.979  10.849 -1.1523 -2.0342  0.7747
 7422TIP3    H246462   0.167   5.031  10.743  0.4082 -1.6512 -0.4810
 7423TIP3   OH246463   1.739   0.010  10.815  0.7726 -0.0571 -0.5012
 7423TIP3    H146464   1.681  -0.002  10.890 -0.3149  0.6325 -1.1908
 7423TIP3    H246465   1.807  -0.056  10.825  0.8291  0.2370  1.2442
 7424TIP3   OH246466   4.369   1.999   8.505  0.2108 -0.5716  0.2267
 7424TIP3    H146467   4.458   2.032   8.495 -0.4285  0.9884 -0.7731
 7424TIP3    H246468   4.364   1.971   8.597  1.4997  0.0318  0.5031
 7425TIP3   OH246469   3.908   1.484   9.700 -0.1466 -0.0046 -0.2591
 7425TIP3    H146470   3.904   1.554   9.765 -2.8027 -1.3480  1.1984
 7425TIP3    H246471   3.832   1.500   9.643 -0.8750 -1.7208  0.1792
 7426TIP3   OH246472   4.346   2.385   9.452 -0.7952  0.5551  0.5531
 7426TIP3    H146473   4.338   2.406   9.359 -0.7464  0.4450  0.5251
 7426TIP3    H246474   4.440   2.374   9.467 -0.5542  2.8026  1.0842
 7427TIP3   OH246475   5.359   4.809   9.123  0.5832 -0.0638  0.1447
 7427TIP3    H146476   5.425   4.797   9.191  0.7267  0.1462  0.0452
 7427TIP3    H246477   5.315   4.891   9.147  1.3183  0.5596 -0.5669
 7428TIP3   OH246478   1.613   5.476   9.770 -0.2700 -0.1932  0.3966
 7428TIP3    H146479   1.685   5.494   9.831 -0.4927 -1.4584  1.0718
 7428TIP3    H246480   1.550   5.546   9.786 -0.3309 -0.5096  1.6646
 7429TIP3   OH246481   5.619   5.653  10.384  0.1165  0.0694 -0.4475
 7429TIP3    H146482   5.682   5.695  10.325 -0.7353  1.7666 -0.2286
 7429TIP3    H246483   5.546   5.715  10.389 -0.2071 -0.3997  1.7474
 7430TIP3   OH246484   1.909   0.329   9.616  0.6827  0.1120  0.3155
 7430TIP3    H146485   1.941   0.365   9.534 -0.9233  1.2448  0.1383
 7430TIP3    H246486   1.880   0.241   9.594  2.1501 -0.3666  0.1562
 7431TIP3   OH246487   3.654   1.431  10.266  0.1197 -0.1410 -0.3830
 7431TIP3    H146488   3.559   1.430  10.254  0.1402 -0.0058 -0.5569
 7431TIP3    H246489   3.670   1.362  10.331 -0.4938  2.2753  2.6091
 7432TIP3   OH246490   4.609   2.149   8.545 -0.5971 -0.3882 -0.2360
 7432TIP3    H146491   4.569   2.228   8.582 -1.2361 -0.2143 -1.2582
 7432TIP3    H246492   4.702   2.170   8.538 -0.8853  0.6846 -1.4171
 7433TIP3   OH246493   4.213   0.804   9.807  0.4668  0.4359 -0.5448
 7433TIP3    H146494   4.238   0.805   9.899  0.3429  2.5676 -0.4839
 7433TIP3    H246495   4.208   0.711   9.785  0.8468 -0.1260  1.4856
 7434TIP3   OH246496   6.775   0.712   9.776 -0.2677 -0.2999 -0.3972
 7434TIP3    H146497   6.698   0.711   9.832 -1.1281  0.5893 -1.5101
 7434TIP3    H246498   6.803   0.620   9.773 -1.4633 -0.6977 -0.1958
 7435TIP3   OH246499   6.545   0.661   9.917  0.1047 -0.2158 -0.4231
 7435TIP3    H146500   6.576   0.601   9.984  1.0706 -0.4086 -1.0281
 7435TIP3    H246501   6.472   0.615   9.875 -1.0983  0.2779  1.0627
 7436TIP3   OH246502   2.342   1.060  11.935 -0.5649 -0.2482 -0.0963
 7436TIP3    H146503   2.393   1.098  12.006  2.9547 -2.6002 -1.0930
 7436TIP3    H246504   2.352   0.965  11.947 -1.9630 -0.7433 -2.3023
 7437TIP3   OH246505   4.462   4.496  11.645  0.7107  0.1145 -0.1151
 7437TIP3    H146506   4.404   4.562  11.684  0.4310  0.5247 -1.1872
 7437TIP3    H246507   4.513   4.463  11.718 -1.0023 -0.4028  0.9160
 7438TIP3   OH246508   6.003   2.117  10.354  0.8421 -0.2485  0.0016
 7438TIP3    H146509   6.013   2.023  10.340 -0.2558 -0.1761 -1.4753
 7438TIP3    H246510   6.076   2.141  10.411  1.6694 -1.8245 -0.3606
 7439TIP3   OH246511   0.242   4.690  10.856 -0.1645  0.0731 -0.1888
 7439TIP3    H146512   0.281   4.696  10.768  0.8695  0.8766  0.2912
 7439TIP3    H246513   0.153   4.660  10.841 -0.3806  1.3170 -1.6218
 7440TIP3   OH246514   6.699   3.926   9.128 -0.4325 -0.1852 -0.0941
 7440TIP3    H146515   6.702   3.985   9.203 -0.6533 -1.2471  0.7752
 7440TIP3    H246516   6.692   3.984   9.052 -0.9056  0.8893  0.7468
 7441TIP3   OH246517   4.284   1.541   9.881 -0.3858 -0.4491  0.5258
 7441TIP3    H146518   4.247   1.464   9.923 -0.2441 -0.7992  0.0109
 7441TIP3    H246519   4.346   1.576   9.946  0.8603 -1.7761  0.0942
 7442TIP3   OH246520   4.630   3.860  10.203 -0.6877 -0.1449  0.3685
 7442TIP3    H146521   4.566   3.809  10.154  0.0513 -1.4448  0.6995
 7442TIP3    H246522   4.595   3.948  10.205 -1.7576 -0.5300 -0.6802
 7443TIP3   OH246523   0.823   6.083  10.455  0.6718  0.6241 -0.0119
 7443TIP3    H146524   0.845   6.006  10.507  0.5735  1.4762  1.3428
 7443TIP3    H246525   0.859   6.157  10.504  0.4708  1.4825 -1.1034
 7444TIP3   OH246526   5.290   3.109  10.917  0.5235  0.4903 -0.0571
 7444TIP3    H146527   5.226   3.044  10.891  0.5220  0.1916  0.6632
 7444TIP3    H246528   5.309   3.158  10.837  0.8037 -0.6257 -0.6982
 7445TIP3   OH246529   4.201   4.043  10.373  0.2709 -0.6799  0.2334
 7445TIP3    H146530   4.254   3.978  10.327  0.7905 -0.4983  0.5621
 7445TIP3    H246531   4.165   3.996  10.448  0.3374 -0.6815  0.2635
 7446TIP3   OH246532   4.609   0.272  11.038  0.1470 -0.4441  0.2564
 7446TIP3    H146533   4.701   0.295  11.053 -0.1886  1.5346 -0.3790
 7446TIP3    H246534   4.613   0.197  10.978  1.3979  1.0980 -1.7268
 7447TIP3   OH246535   6.222   2.623  10.528  0.1136  0.3613 -0.4352
 7447TIP3    H146536   6.253   2.678  10.456 -0.7662 -0.0355 -1.1355
 7447TIP3    H246537   6.285   2.638  10.598  2.4125 -1.0199 -2.0594
 7448TIP3   OH246538   5.518   5.160  11.823 -0.2983  0.1695 -0.4658
 7448TIP3    H146539   5.497   5.246  11.786 -0.4666 -0.3438 -1.6086
 7448TIP3    H246540   5.580   5.179  11.894  2.5054  1.0065 -2.9493
 7449TIP3   OH246541   6.139   3.580  10.290  0.3222  0.0909 -0.0794
 7449TIP3    H146542   6.199   3.652  10.271  1.2530 -0.3666  1.0161
 7449TIP3    H246543   6.183   3.530  10.359 -0.8319 -0.8750 -0.0199
 7450TIP3   OH246544   0.657   1.616   9.204  0.2843 -0.0740 -0.1288
 7450TIP3    H146545   0.610   1.554   9.259  0.7705 -1.0652 -0.8005
 7450TIP3    H246546   0.616   1.701   9.223 -2.4881 -1.0031 -1.4130
 7451TIP3   OH246547   6.585   2.010  10.966 -0.3379  0.5782  0.2750
 7451TIP3    H146548   6.666   1.975  11.002 -1.0940 -0.6428  0.8470
 7451TIP3    H246549   6.539   2.046  11.041 -0.3446  1.2680 -0.0474
 7452TIP3   OH246550   5.284   5.010   8.827  0.1460  0.6675  0.3224
 7452TIP3    H146551   5.212   5.072   8.816  0.7967  1.8059  2.1272
 7452TIP3    H246552   5.362   5.064   8.835  1.3390 -0.5526 -1.9803
 7453TIP3   OH246553   6.772   2.871   8.546  0.4128 -0.2898 -0.2481
 7453TIP3    H146554   6.863   2.893   8.565  1.2183 -1.4220 -2.3840
 7453TIP3    H246555   6.744   2.938   8.484 -0.0089 -0.2763 -0.0442
 7454TIP3   OH246556   0.249   6.313  10.410 -0.2682 -0.1159  0.0367
 7454TIP3    H146557   0.187   6.377  10.444 -1.3666 -0.5777 -1.0148
 7454TIP3    H246558   0.195   6.250  10.363  0.9733 -0.7411 -0.6111
 7455TIP3   OH246559   2.925   0.649   9.076 -0.1837  0.6889 -0.3338
 7455TIP3    H146560   2.927   0.594   8.997 -0.8766 -1.5917  1.1685
 7455TIP3    H246561   2.986   0.607   9.136 -0.9522  1.3962  0.9789
 7456TIP3   OH246562   1.870   3.660  11.119 -0.1242 -0.1522  0.0591
 7456TIP3    H146563   1.795   3.635  11.173  0.7266 -2.3944  0.2890
 7456TIP3    H246564   1.937   3.594  11.138  0.4400 -0.7234 -3.2384
 7457TIP3   OH246565   5.266   1.879  10.624 -0.7802 -1.2444 -0.1824
 7457TIP3    H146566   5.289   1.823  10.699 -1.2703 -2.1016 -0.6580
 7457TIP3    H246567   5.349   1.917  10.596 -0.9922  2.5587  3.4192
 7458TIP3   OH246568   3.227   2.196  10.621  0.0158  0.4716 -0.2475
 7458TIP3    H146569   3.227   2.278  10.671  0.2116  0.7232 -0.6571
 7458TIP3    H246570   3.168   2.139  10.670 -0.7719  1.1318 -0.3951
 7459TIP3   OH246571   3.805   3.542  10.787  0.2099  0.1112 -0.7346
 7459TIP3    H146572   3.720   3.570  10.754 -0.4439 -1.2895 -0.3260
 7459TIP3    H246573   3.799   3.553  10.882  0.2183 -0.6349 -0.6417
 7460TIP3   OH246574   2.257   6.579  10.107 -0.5814 -0.2640  0.4509
 7460TIP3    H146575   2.168   6.573  10.072 -0.5717 -1.0952  0.5526
 7460TIP3    H246576   2.247   6.624  10.191 -1.0547 -1.2457  0.9394
 7461TIP3   OH246577   3.850   6.679  10.868 -0.0793 -0.0669 -0.0804
 7461TIP3    H146578   3.829   6.617  10.937  2.1980 -0.7100  0.1188
 7461TIP3    H246579   3.863   6.626  10.790 -2.5934  0.6503 -1.0958
 7462TIP3   OH246580   5.850   1.140  11.385  0.2384 -0.1695  0.3225
 7462TIP3    H146581   5.825   1.108  11.471 -0.3649 -0.8822 -0.0970
 7462TIP3    H246582   5.798   1.087  11.324 -1.0097  1.7920 -0.4084
 7463TIP3   OH246583   4.643   0.360   9.184  0.2026  0.9114 -0.1580
 7463TIP3    H146584   4.580   0.300   9.225 -0.0374  0.9985 -0.3938
 7463TIP3    H246585   4.727   0.338   9.223  0.6458 -1.5093 -2.2491
 7464TIP3   OH246586   0.801   0.965   8.517 -0.4148  0.1115 -0.0524
 7464TIP3    H146587   0.799   0.873   8.545 -0.2847 -0.2351 -1.1386
 7464TIP3    H246588   0.849   0.964   8.434  1.1500  1.4133  0.7785
 7465TIP3   OH246589   1.544   4.655  11.435 -0.4830  0.3679 -0.0166
 7465TIP3    H146590   1.507   4.740  11.458 -0.0185  0.3257  0.9125
 7465TIP3    H246591   1.607   4.637  11.504 -1.1374 -1.0927  0.2229
 7466TIP3   OH246592   4.548   3.295  11.107  0.4206 -0.1989 -0.2590
 7466TIP3    H146593   4.553   3.255  11.194  0.3903 -0.0138 -0.1726
 7466TIP3    H246594   4.498   3.375  11.119  1.4759  0.4774 -0.2017
 7467TIP3   OH246595   3.576   4.106   9.492  0.0248  0.3799  0.5613
 7467TIP3    H146596   3.497   4.153   9.517 -0.4237  0.8179 -1.4930
 7467TIP3    H246597   3.546   4.017   9.474 -0.5548  1.0547 -2.4221
 7468TIP3   OH246598   0.098   5.619   9.878 -0.5295  0.1316 -0.6916
 7468TIP3    H146599   0.167   5.613   9.945 -1.3220  0.5807  0.1820
 7468TIP3    H246600   0.087   5.529   9.847  0.4298  0.0490 -0.8265
 7469TIP3   OH246601   1.292   1.962   8.961 -0.6546 -0.7974  0.5790
 7469TIP3    H146602   1.242   1.953   9.042  0.2976 -0.3898  1.2305
 7469TIP3    H246603   1.351   2.036   8.976  0.2480 -1.3463 -0.1008
 7470TIP3   OH246604   1.982   2.907  12.426 -0.4371  0.7316 -0.4910
 7470TIP3    H146605   2.038   2.976  12.391 -0.5987  0.4953 -1.2423
 7470TIP3    H246606   1.954   2.858  12.348  0.2397 -0.6006  0.0700
 7471TIP3   OH246607   1.881   6.675  10.539  0.2130 -0.3180  0.7980
 7471TIP3    H146608   1.938   6.752  10.549  0.5423 -0.5404  0.6439
 7471TIP3    H246609   1.895   6.625  10.620  1.5205 -1.2159  0.0640
 7472TIP3   OH246610   2.823   2.298   8.505  0.1881  0.4264  0.5318
 7472TIP3    H146611   2.863   2.287   8.419 -1.9070 -1.6753 -0.2996
 7472TIP3    H246612   2.834   2.214   8.548 -3.0552 -0.2834  0.2675
 7473TIP3   OH246613   2.890   6.316  11.423  0.1335 -0.0552  0.1662
 7473TIP3    H146614   2.880   6.411  11.413  2.0468  0.1869  0.3214
 7473TIP3    H246615   2.951   6.306  11.495 -0.3282 -1.4406  0.3865
 7474TIP3   OH246616   6.196   0.407   9.907 -0.4439  0.2489  0.4545
 7474TIP3    H146617   6.155   0.488   9.938 -1.1398  0.1902 -0.2773
 7474TIP3    H246618   6.124   0.353   9.876  0.1755  0.3188 -1.2732
 7475TIP3   OH246619   3.565   0.120  10.073 -0.2481  0.1729 -0.3419
 7475TIP3    H146620   3.525   0.193  10.027 -0.9449  0.8843  1.2936
 7475TIP3    H246621   3.511   0.044  10.050  0.5469  0.1126 -2.1325
 7476TIP3   OH246622   5.635   4.217   8.750  0.2907  0.0417 -0.1030
 7476TIP3    H146623   5.652   4.233   8.657  2.4588  1.4980  0.4607
 7476TIP3    H246624   5.577   4.289   8.777  0.8795  0.4890 -0.0173
 7477TIP3   OH246625   4.061   3.666  10.504  0.2951  0.4929 -0.0968
 7477TIP3    H146626   4.065   3.749  10.551  0.1960 -0.1238  1.0190
 7477TIP3    H246627   3.979   3.671  10.455 -0.2757  0.6008  0.8426
 7478TIP3   OH246628   1.730   2.922  10.111 -0.1698  0.7048 -0.1678
 7478TIP3    H146629   1.790   2.852  10.087 -0.5085  1.1386 -2.4362
 7478TIP3    H246630   1.784   2.984  10.161  0.8755  0.3011 -0.7752
 7479TIP3   OH246631   0.759   6.074  18.761  0.5617 -0.2854  0.3590
 7479TIP3    H146632   0.821   6.145  18.779 -1.4610  1.4604  0.7617
 7479TIP3    H246633   0.707   6.066  18.841 -0.8180 -0.5609 -0.5248
 7480TIP3   OH246634   2.738   3.495   8.687 -0.9621  0.0958  0.1988
 7480TIP3    H146635   2.719   3.583   8.655 -1.4881  0.3736  1.2482
 7480TIP3    H246636   2.827   3.501   8.723 -1.1536  0.3029  0.6394
 7481TIP3   OH246637   6.787   3.549   9.734  0.3308  0.1446 -0.4372
 7481TIP3    H146638   6.875   3.527   9.763 -0.0716 -1.1181 -0.1107
 7481TIP3    H246639   6.730   3.521   9.806 -0.3507  0.8708 -0.6756
 7482TIP3   OH246640   5.963   5.078  10.736  0.1201  0.3965 -0.3629
 7482TIP3    H146641   6.006   4.993  10.740 -0.5145  0.1001  0.6230
 7482TIP3    H246642   5.924   5.081  10.648 -3.1721 -2.0651  0.7873
 7483TIP3   OH246643   0.903   4.070   9.738 -0.1450 -0.0590  0.4961
 7483TIP3    H146644   0.829   4.030   9.784  0.3877  0.2059  1.6159
 7483TIP3    H246645   0.906   4.025   9.654 -2.2722  0.7002 -0.0547
 7484TIP3   OH246646   5.253   5.645  11.596 -0.1380  0.5135  0.2269
 7484TIP3    H146647   5.165   5.662  11.564 -0.3117 -1.4592 -0.4823
 7484TIP3    H246648   5.270   5.716  11.658 -2.1948  0.9575  0.3601
 7485TIP3   OH246649   5.498   0.821  10.334 -0.3714 -0.2055 -0.2931
 7485TIP3    H146650   5.578   0.797  10.285 -0.4897 -0.5113 -0.3415
 7485TIP3    H246651   5.491   0.915  10.323 -0.0017 -0.1713 -0.2719
 7486TIP3   OH246652   2.649   2.368  11.431  0.1373  0.2031  0.2593
 7486TIP3    H146653   2.611   2.351  11.517  0.5019  0.2555  0.4283
 7486TIP3    H246654   2.590   2.433  11.392  0.6880  1.1397  0.9680
 7487TIP3   OH246655   0.459   4.633  10.643  0.5395 -0.3773 -0.3272
 7487TIP3    H146656   0.460   4.563  10.578 -1.0471  0.5859 -1.4594
 7487TIP3    H246657   0.527   4.694  10.615  0.4222 -0.3770 -0.6095
 7488TIP3   OH246658   4.127   1.780   9.790  0.2662  0.6742  0.0914
 7488TIP3    H146659   4.034   1.775   9.813  0.3477  1.2657  0.5592
 7488TIP3    H246660   4.163   1.695   9.816 -0.6019 -0.5204 -2.2670
 7489TIP3   OH246661   1.949   2.591  10.428 -0.2305 -0.3448 -0.3660
 7489TIP3    H146662   1.973   2.532  10.356  1.0469  0.3258 -0.5227
 7489TIP3    H246663   2.014   2.661  10.425 -1.8438  1.2326 -0.3357
 7490TIP3   OH246664   4.091   5.153  12.390 -0.2129  0.6685  0.0030
 7490TIP3    H146665   4.027   5.092  12.353  1.1301  0.1141 -1.5904
 7490TIP3    H246666   4.086   5.139  12.484 -0.3361 -1.5731 -0.2678
 7491TIP3   OH246667   2.277   2.668   9.693 -0.0379 -0.4186 -0.6905
 7491TIP3    H146668   2.233   2.586   9.717  0.4085 -0.8909 -1.4625
 7491TIP3    H246669   2.351   2.674   9.753  2.8957 -3.1445 -3.6534
 7492TIP3   OH246670   4.592   2.909  10.657 -0.3329  0.2558  0.3332
 7492TIP3    H146671   4.540   2.855  10.717  1.8879  0.7800  2.9666
 7492TIP3    H246672   4.557   2.890  10.571 -1.9634 -2.7040  1.4945
 7493TIP3   OH246673   0.349   5.335  10.964 -0.5279  0.3331 -0.0912
 7493TIP3    H146674   0.269   5.340  10.911 -1.1983  0.1049  0.8694
 7493TIP3    H246675   0.340   5.254  11.013  0.6079 -0.0116 -0.4342
 7494TIP3   OH246676   0.776   3.953  10.980 -0.1180 -0.1442  0.0691
 7494TIP3    H146677   0.784   4.048  10.989 -0.4630 -0.1202  0.1435
 7494TIP3    H246678   0.866   3.920  10.986  0.3101  0.3695 -2.4580
 7495TIP3   OH246679   5.420   5.527   9.928 -0.4633  0.5180  0.6775
 7495TIP3    H146680   5.495   5.585   9.939 -1.4235  1.6130  1.8269
 7495TIP3    H246681   5.422   5.470  10.005 -0.1962 -0.1926  0.1524
 7496TIP3   OH246682   3.477   2.137   8.957  0.3333  0.1232  0.2620
 7496TIP3    H146683   3.449   2.228   8.966  0.1555  0.0464  0.5127
 7496TIP3    H246684   3.532   2.120   9.033  0.0246 -0.1003  0.4397
 7497TIP3   OH246685   1.865   3.527  11.939 -0.0729  0.4725  0.2714
 7497TIP3    H146686   1.909   3.525  12.024  0.1832  1.2993  0.1747
 7497TIP3    H246687   1.931   3.564  11.880 -1.1466  2.6148  0.3041
 7498TIP3   OH246688   2.230   2.458   9.405  0.4572  1.0545 -0.5675
 7498TIP3    H146689   2.196   2.519   9.471  0.6246  0.1209  0.4151
 7498TIP3    H246690   2.302   2.412   9.450  0.8776  0.7233 -1.5566
 7499TIP3   OH246691   5.943   5.883  12.192  0.4358  0.2238 -0.1336
 7499TIP3    H146692   5.859   5.838  12.185  1.9994 -2.8353 -1.1754
 7499TIP3    H246693   5.982   5.848  12.272  1.6907 -0.3280 -0.9477
 7500TIP3   OH246694   6.792   4.125  10.565  0.0434 -0.4618 -0.5835
 7500TIP3    H146695   6.807   4.194  10.501 -0.3402  0.4056  0.2303
 7500TIP3    H246696   6.728   4.068  10.525 -1.0693  0.7146 -0.5340
 7501TIP3   OH246697   6.756   3.397  10.622 -0.1713  0.0713 -0.0155
 7501TIP3    H146698   6.697   3.389  10.697  0.5704  1.3200  0.7362
 7501TIP3    H246699   6.729   3.326  10.563 -0.0674 -1.6648  1.8931
 7502TIP3   OH246700   4.728   4.461  12.110  0.2394  0.6029  0.8406
 7502TIP3    H146701   4.689   4.463  12.198  0.6066 -0.9521  1.0628
 7502TIP3    H246702   4.815   4.424  12.123  0.3766  0.5557 -0.1529
 7503TIP3   OH246703   3.443   1.402   9.885 -0.1127  0.1442 -0.1224
 7503TIP3    H146704   3.494   1.391   9.805  1.0585 -1.1804  0.7496
 7503TIP3    H246705   3.403   1.316   9.900  0.2844  0.1448  1.0829
 7504TIP3   OH246706   3.953   3.787   9.501 -0.3337  0.8642 -0.3394
 7504TIP3    H146707   3.878   3.756   9.550  0.3609  0.8633  0.7653
 7504TIP3    H246708   3.923   3.867   9.458 -1.2814  0.2435 -0.8573
 7505TIP3   OH246709   3.745   2.796   9.124  0.2040  0.2904 -0.2950
 7505TIP3    H146710   3.722   2.843   9.044 -0.5909 -1.3610 -1.0856
 7505TIP3    H246711   3.809   2.853   9.168  0.1894  1.5181 -1.7809
 7506TIP3   OH246712   4.323   6.401  11.553  0.1688  0.6595 -0.1318
 7506TIP3    H146713   4.386   6.430  11.619 -0.1188 -1.6317  1.2853
 7506TIP3    H246714   4.369   6.332  11.505 -0.5056  0.5280 -0.5944
 7507TIP3   OH246715   0.892   2.161   8.947 -0.6501  0.2561 -0.1457
 7507TIP3    H146716   0.985   2.153   8.923  0.0522 -2.2336  2.7541
 7507TIP3    H246717   0.893   2.185   9.040 -2.8996 -0.5647  0.1538
 7508TIP3   OH246718   5.099   2.397   8.605  0.0163 -0.1662  0.0018
 7508TIP3    H146719   5.103   2.304   8.581 -0.2767 -0.3837  0.7715
 7508TIP3    H246720   5.157   2.405   8.681  0.3608  0.3663 -0.3105
 7509TIP3   OH246721   1.823   3.961   9.718  0.0400 -0.7093  0.5467
 7509TIP3    H146722   1.870   3.941   9.636  0.7319 -2.3564  1.2912
 7509TIP3    H246723   1.812   4.056   9.717  0.1530 -0.6672 -1.3872
 7510TIP3   OH246724   0.591   4.983  10.157  0.2066  0.2629 -0.0676
 7510TIP3    H146725   0.529   4.913  10.136 -1.0517  1.6038 -0.9966
 7510TIP3    H246726   0.660   4.939  10.207 -0.6525 -1.5862 -0.4116
 7511TIP3   OH246727   2.980   5.716  11.354  0.3297 -0.3906  0.6725
 7511TIP3    H146728   3.057   5.674  11.391  2.0189 -0.2115 -2.3189
 7511TIP3    H246729   2.959   5.663  11.276 -1.9774  0.1543  0.8485
 7512TIP3   OH246730   6.123   1.570   9.470  0.2225  0.5191  0.6895
 7512TIP3    H146731   6.028   1.565   9.460  0.1273 -0.6203  1.9781
 7512TIP3    H246732   6.142   1.526   9.552  1.9074  0.4772  0.3279
 7513TIP3   OH246733   5.724   0.673  10.469 -0.4918  0.5887  0.4327
 7513TIP3    H146734   5.762   0.593  10.505 -0.2623  0.6245  0.2742
 7513TIP3    H246735   5.709   0.652  10.377  2.1640  1.6050 -0.3301
 7514TIP3   OH246736   5.033   2.241   8.932 -0.4748  0.3836 -0.3526
 7514TIP3    H146737   5.061   2.152   8.951 -0.7398  0.4519  0.3795
 7514TIP3    H246738   5.114   2.293   8.938 -0.5851  0.4527  0.9646
 7515TIP3   OH246739   5.182   0.260  10.425 -0.2989  0.0408  0.4877
 7515TIP3    H146740   5.147   0.171  10.414  0.0913 -0.2446  1.4222
 7515TIP3    H246741   5.235   0.275  10.346  0.1328 -0.8049  0.6053
 7516TIP3   OH246742   5.916   1.742  11.140  0.0365  1.0768 -0.0256
 7516TIP3    H146743   5.825   1.773  11.145 -0.5756 -0.2692 -1.7442
 7516TIP3    H246744   5.957   1.801  11.077  0.1392  1.2065  0.1632
 7517TIP3   OH246745   0.906   6.360  10.713  0.0665 -0.5055 -0.0737
 7517TIP3    H146746   0.825   6.374  10.664  0.6218  1.4173 -0.5720
 7517TIP3    H246747   0.884   6.382  10.803 -0.1753 -0.8663 -0.0435
 7518TIP3   OH246748   5.456   0.330   9.230  0.1145 -0.1104  0.9566
 7518TIP3    H146749   5.485   0.246   9.265  2.3457  0.0008 -0.4146
 7518TIP3    H246750   5.364   0.316   9.206  0.9351 -2.8562 -1.0536
 7519TIP3   OH246751   0.828   2.223  10.256  0.8749  0.1228 -0.4745
 7519TIP3    H146752   0.788   2.306  10.283  2.4235  0.2268  1.6965
 7519TIP3    H246753   0.796   2.160  10.321 -0.3814 -1.0848 -2.1696
 7520TIP3   OH246754   5.335   2.798  10.700 -0.3361  0.1622  0.2684
 7520TIP3    H146755   5.394   2.805  10.775 -0.1505  1.0764  0.0467
 7520TIP3    H246756   5.253   2.837  10.730 -0.2686  0.5083  0.0037
 7521TIP3   OH246757   0.192   2.888   8.691 -0.4897 -0.5699  0.2876
 7521TIP3    H146758   0.283   2.866   8.669 -0.6721 -0.0115 -1.0918
 7521TIP3    H246759   0.199   2.949   8.764  0.2002 -1.2259  0.7896
 7522TIP3   OH246760   5.196   3.281   8.844  0.2624 -0.0250 -0.0454
 7522TIP3    H146761   5.108   3.248   8.826 -0.2780  1.2708  0.1455
 7522TIP3    H246762   5.182   3.360   8.896  1.5894 -0.4673  1.0556
 7523TIP3   OH246763   0.807   1.612   8.876 -0.2169 -0.1179  0.0627
 7523TIP3    H146764   0.722   1.615   8.920 -0.2081 -1.7076  0.2515
 7523TIP3    H246765   0.843   1.700   8.888 -1.0279  0.0509  1.5854
 7524TIP3   OH246766   4.428   4.047   9.824 -0.7125 -0.5349 -0.0034
 7524TIP3    H146767   4.341   4.008   9.817 -0.8560 -0.5609  1.6389
 7524TIP3    H246768   4.416   4.125   9.877  0.5233 -1.5192  1.8486
 7525TIP3   OH246769   3.433   5.879   8.804  0.1223 -0.3583  0.5463
 7525TIP3    H146770   3.436   5.783   8.803  1.4511 -0.3644 -1.2606
 7525TIP3    H246771   3.517   5.905   8.842  0.4594  0.0501 -0.4435
 7526TIP3   OH246772   1.475   5.650  10.529  0.1709  0.3306  0.2673
 7526TIP3    H146773   1.506   5.595  10.600 -0.0473 -1.9859 -1.3136
 7526TIP3    H246774   1.504   5.739  10.552  4.4215 -1.0180  0.8756
 7527TIP3   OH246775   3.808   5.634  11.086  0.7216  0.3807 -0.1895
 7527TIP3    H146776   3.877   5.603  11.145  3.1124  2.3768 -1.7490
 7527TIP3    H246777   3.775   5.714  11.129  1.2209  0.8500 -0.6648
 7528TIP3   OH246778   3.004   4.508  10.664  0.2834 -0.0777  0.0775
 7528TIP3    H146779   3.038   4.461  10.588 -1.3871  0.3721 -0.9985
 7528TIP3    H246780   2.988   4.440  10.729  0.3599 -0.6622 -0.5089
 7529TIP3   OH246781   0.008   0.818   9.193  0.7268 -0.1583 -0.0345
 7529TIP3    H146782   0.096   0.824   9.230  1.7163 -2.6650 -1.7009
 7529TIP3    H246783  -0.019   0.728   9.210 -0.6587 -0.0298 -1.3518
 7530TIP3   OH246784   5.302   2.724   9.222  0.1352  0.3378  0.5740
 7530TIP3    H146785   5.364   2.793   9.243  1.7155 -1.1431  1.0437
 7530TIP3    H246786   5.296   2.724   9.127 -0.2441  1.3990  0.5887
 7531TIP3   OH246787   4.805   2.156   9.332  0.0083 -0.0919 -0.6126
 7531TIP3    H146788   4.860   2.111   9.396 -1.3030 -0.5361  0.2373
 7531TIP3    H246789   4.778   2.087   9.271  0.0158  0.0302 -0.7541
 7532TIP3   OH246790   3.945   6.758  10.500  0.6881  0.1019  0.3302
 7532TIP3    H146791   3.951   6.830  10.563 -1.1865  1.6790 -1.1966
 7532TIP3    H246792   3.914   6.798  10.419  2.7050 -1.9040 -1.5983
 7533TIP3   OH246793   4.721   3.192  10.069 -0.1689 -0.3529  0.1176
 7533TIP3    H146794   4.775   3.181  10.148 -0.6596 -0.0047  0.5114
 7533TIP3    H246795   4.713   3.104  10.033 -1.0901 -0.7586  1.2297
 7534TIP3   OH246796   2.151   6.496   8.694 -0.9734  0.2399 -0.3921
 7534TIP3    H146797   2.130   6.499   8.787  0.4389  0.1684 -0.0559
 7534TIP3    H246798   2.135   6.585   8.663 -2.4150  0.0341 -0.3345
 7535TIP3   OH246799   0.299   2.743  11.025 -0.0485 -0.0177  0.2332
 7535TIP3    H146800   0.260   2.667  10.983  1.9695 -1.8752  1.4801
 7535TIP3    H246801   0.393   2.735  11.007  0.2160  2.2420  0.3391
 7536TIP3   OH246802   0.247   0.023   9.805 -0.3570  0.1105 -0.3615
 7536TIP3    H146803   0.304   0.097   9.783 -1.2026  1.3053  1.2348
 7536TIP3    H246804   0.302  -0.035   9.857  0.2460 -0.2968 -1.4230
 7537TIP3   OH246805   6.515   6.163   9.144  0.1517  0.4882 -0.3625
 7537TIP3    H146806   6.520   6.072   9.175 -2.2358 -0.2587 -1.8947
 7537TIP3    H246807   6.603   6.182   9.111  1.6062 -0.0956  2.8025
 7538TIP3   OH246808   0.591   3.392  11.132 -0.1569  0.2108 -0.0464
 7538TIP3    H146809   0.628   3.403  11.220 -1.8033  1.0114  0.5822
 7538TIP3    H246810   0.586   3.481  11.097 -0.4558  0.0024 -0.5434
 7539TIP3   OH246811   2.601   5.932  11.237  0.4136 -0.0111 -0.0291
 7539TIP3    H146812   2.554   5.903  11.315  1.1914 -0.9044  0.1276
 7539TIP3    H246813   2.584   5.864  11.172 -0.2122  0.7172 -0.6494
 7540TIP3   OH246814   3.417   4.760  12.336  0.6388  0.4610  0.2984
 7540TIP3    H146815   3.384   4.820  12.403 -3.2435 -0.5665 -0.4031
 7540TIP3    H246816   3.511   4.775  12.334  0.3312  3.8714  2.6468
 7541TIP3   OH246817   0.369   0.429  10.321 -0.0059 -0.1513  0.0186
 7541TIP3    H146818   0.416   0.351  10.290 -0.0708 -0.5372  0.8639
 7541TIP3    H246819   0.337   0.405  10.408 -3.0080 -0.4261 -1.0418
 7542TIP3   OH246820   5.199   4.930   8.549 -0.2854  0.0889  0.0095
 7542TIP3    H146821   5.147   5.006   8.526 -1.8298 -1.0253 -0.3735
 7542TIP3    H246822   5.153   4.890   8.622  0.9501 -0.0545  0.7420
 7543TIP3   OH246823   0.089   0.756   8.934  0.0743 -0.6181  1.1534
 7543TIP3    H146824   0.039   0.751   9.015  1.1882  0.8271  1.9832
 7543TIP3    H246825   0.030   0.796   8.871 -0.9587 -2.1820  1.0676
 7544TIP3   OH246826   0.323   2.262  11.522 -0.0109 -0.0905  0.1089
 7544TIP3    H146827   0.329   2.345  11.474 -0.7848  0.0349  0.2191
 7544TIP3    H246828   0.369   2.199  11.466  0.4266  0.3672 -0.0643
 7545TIP3   OH246829   3.955   2.744  11.046  0.4959  0.1736 -0.6135
 7545TIP3    H146830   3.936   2.827  11.001  2.8218  1.2726  0.2552
 7545TIP3    H246831   3.912   2.752  11.131 -1.1276 -0.4971 -1.3376
 7546TIP3   OH246832   6.661   4.378  10.586  0.0536  0.2369 -0.1205
 7546TIP3    H146833   6.711   4.324  10.648 -0.5870  1.0751  1.1776
 7546TIP3    H246834   6.722   4.396  10.515  1.6473  1.2671  1.4243
 7547TIP3   OH246835   4.648   4.723   9.364 -0.2102 -1.2620 -0.2842
 7547TIP3    H146836   4.592   4.779   9.417 -2.3901 -1.7658 -1.8835
 7547TIP3    H246837   4.712   4.687   9.425 -2.5576 -1.7991  2.0302
 7548TIP3   OH246838   6.672   6.202  10.355  0.1119  0.1983 -0.4019
 7548TIP3    H146839   6.628   6.287  10.351  1.7203  1.0524 -1.1136
 7548TIP3    H246840   6.626   6.147  10.291 -0.7378  0.6432 -0.1717
 7549TIP3   OH246841   5.171   6.519  11.348 -0.2065 -0.1992 -0.3924
 7549TIP3    H146842   5.265   6.522  11.330 -0.2774 -0.0154 -0.7209
 7549TIP3    H246843   5.166   6.501  11.442  0.1569 -1.6829 -0.6199
 7550TIP3   OH246844   5.141   1.492  10.248  0.0743  0.0585  0.0677
 7550TIP3    H146845   5.227   1.466  10.216  0.7476  2.1311  0.0706
 7550TIP3    H246846   5.152   1.506  10.342 -1.2107 -3.1658  0.8535
 7551TIP3   OH246847   4.295   4.691  11.435  0.8220 -0.4387 -0.4171
 7551TIP3    H146848   4.378   4.647  11.451  0.0965 -1.8968 -0.5287
 7551TIP3    H246849   4.235   4.621  11.410 -0.7844  0.4125  0.8857
 7552TIP3   OH246850   3.197   3.513  10.918  0.0556  0.1637  0.6350
 7552TIP3    H146851   3.279   3.551  10.888 -0.3454  0.5315 -0.0246
 7552TIP3    H246852   3.210   3.418  10.910  0.7397  0.1815  1.4307
 7553TIP3   OH246853   2.750   4.492  10.510  0.2483  0.3717  0.2654
 7553TIP3    H146854   2.820   4.532  10.561 -0.1880  0.7165  0.6074
 7553TIP3    H246855   2.765   4.398  10.518  1.4469  0.4560 -0.7776
 7554TIP3   OH246856   4.622   1.517   9.340  0.3361 -0.1702 -0.4573
 7554TIP3    H146857   4.546   1.510   9.282 -1.4217 -1.0969  1.8116
 7554TIP3    H246858   4.636   1.428   9.372  2.0488  0.0889 -0.3881
 7555TIP3   OH246859   1.874   2.880   8.906 -0.5738  0.7546  0.0443
 7555TIP3    H146860   1.877   2.898   8.812 -0.4249  0.2035 -0.0568
 7555TIP3    H246861   1.963   2.857   8.930 -0.8952 -0.6120  0.0108
 7556TIP3   OH246862   1.348   1.997  11.243 -1.0521 -0.1167  0.5818
 7556TIP3    H146863   1.304   2.050  11.176 -0.5294 -0.6799 -0.2333
 7556TIP3    H246864   1.333   1.907  11.216 -0.2186 -0.3367  0.8130
 7557TIP3   OH246865   4.512   2.681  10.892  0.7130  0.0624  0.4377
 7557TIP3    H146866   4.438   2.736  10.867 -0.9646 -2.4109 -0.5547
 7557TIP3    H246867   4.555   2.727  10.964 -2.2375  1.2838  1.5550
 7558TIP3   OH246868   5.389   2.926   8.490 -0.4670 -0.0645  0.0911
 7558TIP3    H146869   5.326   2.939   8.561 -0.9774 -1.2406 -0.1263
 7558TIP3    H246870   5.455   2.868   8.528 -0.5596 -0.4191 -0.2818
 7559TIP3   OH246871   0.399   1.492   8.821 -0.2949 -0.1700 -0.4124
 7559TIP3    H146872   0.431   1.581   8.805 -0.2373  0.4607  2.5326
 7559TIP3    H246873   0.451   1.437   8.764  0.7975  1.5439 -1.1573
 7560TIP3   OH246874   1.998   4.795  10.752  0.4616  0.1720 -0.0063
 7560TIP3    H146875   2.023   4.881  10.719 -0.6367  0.8617  0.8818
 7560TIP3    H246876   1.973   4.745  10.674 -0.3987  1.1888 -0.4096
 7561TIP3   OH246877   2.338   1.794   8.689  0.5819 -0.1091 -0.2803
 7561TIP3    H146878   2.411   1.768   8.633  1.5033  1.5263  0.0909
 7561TIP3    H246879   2.298   1.867   8.642  0.6935  0.5693  0.6547
 7562TIP3   OH246880   5.719   2.954  10.321  0.0782 -0.6496 -0.3693
 7562TIP3    H146881   5.733   2.952  10.227 -0.8884 -0.8788 -0.5182
 7562TIP3    H246882   5.802   2.926  10.359  0.0238 -1.9878 -1.1962
 7563TIP3   OH246883   3.174   2.681  10.287  0.1927  0.1000 -0.1573
 7563TIP3    H146884   3.135   2.615  10.344  0.4513  0.6245  0.6422
 7563TIP3    H246885   3.225   2.630  10.224  0.7292 -0.4565  0.7036
 7564TIP3   OH246886   1.157   0.926  11.059  0.6273  0.3570  0.3105
 7564TIP3    H146887   1.216   0.851  11.066  0.9153  0.4535 -0.8552
 7564TIP3    H246888   1.213   1.002  11.072  0.3386  0.3990  1.4731
 7565TIP3   OH246889   3.590   6.077   9.285  0.2150 -0.1334 -0.0795
 7565TIP3    H146890   3.607   6.002   9.342  0.0500 -0.8433 -0.9402
 7565TIP3    H246891   3.672   6.088   9.235  0.3210  0.4098  0.2086
 7566TIP3   OH246892   5.594   1.273   9.432  0.4203 -0.1643  0.1958
 7566TIP3    H146893   5.544   1.307   9.357  0.5113 -0.0443  0.1912
 7566TIP3    H246894   5.616   1.350   9.483  1.8553 -0.0481 -0.5539
 7567TIP3   OH246895   2.523   6.170  11.112 -0.1110  0.3142  0.8077
 7567TIP3    H146896   2.439   6.193  11.152 -0.4291 -0.8213  0.8311
 7567TIP3    H246897   2.562   6.107  11.173  0.1079 -0.2420  0.1114
 7568TIP3   OH246898   4.440   1.279   8.821 -0.3850  0.5015 -0.1592
 7568TIP3    H146899   4.481   1.237   8.896  2.1617  1.9525 -0.6238
 7568TIP3    H246900   4.347   1.259   8.830 -0.0032 -0.4556  2.6327
 7569TIP3   OH246901   1.904   4.358  11.548 -0.3086  0.1398 -0.4422
 7569TIP3    H146902   1.905   4.332  11.640 -1.2137  0.3747 -0.3595
 7569TIP3    H246903   1.993   4.387  11.530  0.6722 -2.5008 -0.3906
 7570TIP3   OH246904   5.515   1.028   9.471  0.1122 -0.6898 -0.2294
 7570TIP3    H146905   5.552   1.104   9.427 -0.3315 -1.0372 -1.2216
 7570TIP3    H246906   5.444   1.063   9.524 -0.2476 -0.4390 -0.8713
 7571TIP3   OH246907   6.091   6.320  12.478 -0.0743  0.4586  0.3136
 7571TIP3    H146908   6.095   6.391  12.414 -0.5416  0.4406  0.2573
 7571TIP3    H246909   6.067   6.243  12.426  1.2345  0.0838  0.2435
 7572TIP3   OH246910   4.523   0.094  12.068 -0.2951 -0.1397 -0.0715
 7572TIP3    H146911   4.509   0.173  12.015 -1.0952  0.4225  0.9568
 7572TIP3    H246912   4.445   0.086  12.122  0.2887 -0.9828  0.6847
 7573TIP3   OH246913   1.107   3.702  11.190  0.3816  0.0771  0.1598
 7573TIP3    H146914   1.173   3.727  11.255 -0.4265 -0.3319  1.1780
 7573TIP3    H246915   1.100   3.607  11.198 -0.8251  0.1823  0.5965
 7574TIP3   OH246916   3.522   5.635  11.579  0.6737 -0.1833 -0.0072
 7574TIP3    H146917   3.589   5.690  11.619 -0.0957  0.8573 -0.1276
 7574TIP3    H246918   3.549   5.545  11.601  1.7935  0.2401  0.4136
 7575TIP3   OH246919   0.937   6.353   9.162  0.6934 -0.1715  0.1680
 7575TIP3    H146920   0.962   6.317   9.077 -0.2447  0.0307 -0.2020
 7575TIP3    H246921   1.020   6.381   9.201  1.1475 -0.3803 -0.6182
 7576TIP3   OH246922   0.634   0.442  10.730 -0.0915  0.2486  0.5991
 7576TIP3    H146923   0.632   0.458  10.824 -2.0548  0.7189  0.5200
 7576TIP3    H246924   0.634   0.530  10.691 -0.2283  0.0617  0.1691
 7577TIP3   OH246925   4.245   3.538  11.523  0.4822  0.3942  0.0093
 7577TIP3    H146926   4.276   3.449  11.540  2.7037  1.2267  0.6070
 7577TIP3    H246927   4.257   3.584  11.606 -1.2482  1.1302 -0.1101
 7578TIP3   OH246928   0.569   2.672  10.994  0.2516  0.2923  0.0815
 7578TIP3    H146929   0.618   2.688  11.075 -0.9011  1.4434  0.5769
 7578TIP3    H246930   0.597   2.585  10.966  0.3881 -0.2927  1.9283
 7579TIP3   OH246931   4.557   1.632   9.807 -0.3542  0.1166  0.2169
 7579TIP3    H146932   4.542   1.582   9.727  0.5467 -2.2922  1.4547
 7579TIP3    H246933   4.623   1.697   9.782 -0.8650  0.1118 -1.2326
 7580TIP3   OH246934   2.709   0.831   8.826  0.2025  0.0718  0.1279
 7580TIP3    H146935   2.736   0.922   8.839 -1.9164  1.1409 -2.1296
 7580TIP3    H246936   2.622   0.827   8.865 -0.1239 -0.7148 -0.6799
 7581TIP3   OH246937   1.660   3.463   8.988 -0.6041 -0.4306 -0.1653
 7581TIP3    H146938   1.612   3.457   8.905 -0.2502  1.8824 -0.6117
 7581TIP3    H246939   1.648   3.554   9.015  0.8132 -0.6700  1.3923
 7582TIP3   OH246940   0.525   3.522   9.393 -0.6270 -0.2984 -0.2078
 7582TIP3    H146941   0.451   3.556   9.443 -0.9355 -0.9487 -0.2170
 7582TIP3    H246942   0.594   3.510   9.459 -1.0323 -1.1504  0.0834
 7583TIP3   OH246943   2.329   1.851   9.183 -0.3116 -0.1434  0.0687
 7583TIP3    H146944   2.389   1.835   9.110 -0.2777  0.2221  0.0139
 7583TIP3    H246945   2.319   1.946   9.185 -2.2716 -0.2853 -1.0155
 7584TIP3   OH246946   1.095   3.448  10.927  0.5446  0.2703 -0.4009
 7584TIP3    H146947   1.186   3.448  10.898  0.7247  0.7619  0.1563
 7584TIP3    H246948   1.050   3.506  10.866  0.4228 -0.6556 -1.2130
 7585TIP3   OH246949   5.224   6.123   9.247  0.1318 -0.3787 -0.4447
 7585TIP3    H146950   5.281   6.075   9.306 -0.2952  2.0703  2.1650
 7585TIP3    H246951   5.135   6.105   9.279 -0.4710 -1.6772 -2.5506
 7586TIP3   OH246952   1.226   6.481  10.999  0.3047  0.2411  0.0374
 7586TIP3    H146953   1.307   6.498  10.951  1.1057  0.1147  1.2923
 7586TIP3    H246954   1.252   6.422  11.070 -0.5364  1.4803  1.4457
 7587TIP3   OH246955   6.557   3.810   8.929 -0.6735 -0.1725  0.0895
 7587TIP3    H146956   6.485   3.830   8.989 -0.2776  1.2521  0.1134
 7587TIP3    H246957   6.605   3.740   8.972 -2.1650 -1.3449 -0.0427
 7588TIP3   OH246958   4.734   3.808   9.099  0.1332  0.1447 -0.4686
 7588TIP3    H146959   4.647   3.847   9.112 -1.5033 -3.2143 -0.2337
 7588TIP3    H246960   4.764   3.788   9.188  1.8403  2.3957 -0.4445
 7589TIP3   OH246961   4.353   4.609  10.863  0.4990  0.0181 -0.8896
 7589TIP3    H146962   4.392   4.523  10.847  2.1074  0.4015  0.6633
 7589TIP3    H246963   4.415   4.671  10.825  1.1989  0.6135  1.1025
 7590TIP3   OH246964   6.083   4.763   9.625  0.1628 -0.4596 -0.2808
 7590TIP3    H146965   5.991   4.782   9.643  0.6285  1.0524  0.7575
 7590TIP3    H246966   6.087   4.754   9.530 -0.9689 -0.0395 -0.3902
 7591TIP3   OH246967   5.528   0.130  10.275 -0.1453 -0.6168 -0.1341
 7591TIP3    H146968   5.472   0.207  10.262  2.7998  1.8610  0.6630
 7591TIP3    H246969   5.556   0.136  10.366  3.2188 -0.2791 -1.0693
 7592TIP3   OH246970   0.373   3.742   9.197 -0.1299 -0.4295 -0.0059
 7592TIP3    H146971   0.411   3.750   9.284 -2.5862 -0.9425  1.1887
 7592TIP3    H246972   0.280   3.728   9.212 -0.5091 -1.4794 -2.7006
 7593TIP3   OH246973   5.305   4.375  10.206 -0.0874  0.4368 -0.2985
 7593TIP3    H146974   5.224   4.326  10.215 -0.0794  0.5617  0.6187
 7593TIP3    H246975   5.367   4.329  10.264  0.3177  0.6911 -0.5268
 7594TIP3   OH246976   4.674   6.795  11.303  0.2068 -0.1111  0.2579
 7594TIP3    H146977   4.587   6.773  11.339  0.1785 -0.9224 -0.2651
 7594TIP3    H246978   4.668   6.769  11.211  0.9079  0.1222  0.1457
 7595TIP3   OH246979   1.979   1.342  10.647 -0.6871  0.4932  0.3266
 7595TIP3    H146980   2.033   1.331  10.568 -0.2401  1.0504  0.5450
 7595TIP3    H246981   1.906   1.281  10.635 -0.5715  0.5009 -0.4698
 7596TIP3   OH246982   0.609   0.139  10.241  0.3416  0.3976  0.0710
 7596TIP3    H146983   0.593   0.055  10.285  0.3311 -0.4143 -1.4212
 7596TIP3    H246984   0.530   0.155  10.190  0.7904  0.7444 -0.5334
 7597TIP3   OH246985   2.509   4.877   8.614  0.5696 -0.5177  0.0808
 7597TIP3    H146986   2.596   4.844   8.638  0.3736 -1.9256 -1.0544
 7597TIP3    H246987   2.527   4.949   8.554  0.9600  0.5396  1.3953
 7598TIP3   OH246988   5.432   2.569  10.460  0.2599 -0.1394 -0.0554
 7598TIP3    H146989   5.479   2.584  10.377  0.2597 -2.0240 -0.4424
 7598TIP3    H246990   5.476   2.626  10.523  0.4614  1.1083 -1.2731
 7599TIP3   OH246991   6.408   2.895   8.915 -0.1587 -0.5732  0.7531
 7599TIP3    H146992   6.322   2.924   8.948  0.4751 -0.2410  2.2331
 7599TIP3    H246993   6.416   2.937   8.830 -1.9771 -1.6077  0.0200
 7600TIP3   OH246994   1.918   6.609  10.807  0.1627  0.4054  0.0552
 7600TIP3    H146995   1.900   6.543  10.875 -1.0827 -1.1155 -1.6609
 7600TIP3    H246996   2.013   6.606  10.796  0.2115 -0.5352  0.5784
 7601TIP3   OH246997   6.483   0.299   8.780  0.2138  0.2395  0.3143
 7601TIP3    H146998   6.517   0.231   8.838 -0.0482  0.0615  0.2593
 7601TIP3    H246999   6.559   0.325   8.727  0.2314 -0.2621  0.0861
 7602TIP3   OH247000   0.868   4.202  10.954  0.1190  0.0575 -0.3716
 7602TIP3    H147001   0.943   4.174  11.005 -1.4794 -1.5064  1.2539
 7602TIP3    H247002   0.860   4.296  10.972  0.7107 -0.0938  0.7181
 7603TIP3   OH247003   3.981   3.417  11.467 -0.2195 -0.3739 -0.0767
 7603TIP3    H147004   4.065   3.457  11.490 -0.1834 -1.0763  1.0504
 7603TIP3    H247005   3.981   3.416  11.371  1.2949 -0.8719 -0.0916
 7604TIP3   OH247006   0.744   1.978   9.183 -0.1681  0.3202 -0.3765
 7604TIP3    H147007   0.749   1.944   9.273  2.6689 -1.0198 -0.9373
 7604TIP3    H247008   0.764   2.071   9.192  1.0594  0.0097  0.3253
 7605TIP3   OH247009   4.571   2.978  10.987  0.8049  0.0029  0.1135
 7605TIP3    H147010   4.638   3.002  10.923  0.9813  1.7722  0.9124
 7605TIP3    H247011   4.611   2.995  11.072 -0.5481  0.8064  0.6158
 7606TIP3   OH247012   1.089   2.246   9.536  0.4608 -0.0704  0.5051
 7606TIP3    H147013   1.016   2.246   9.598 -1.5603 -0.3535 -1.7539
 7606TIP3    H247014   1.108   2.154   9.520 -0.4258 -0.0468 -0.8065
 7607TIP3   OH247015   6.541   6.670   9.476  0.3927  0.1203  0.0639
 7607TIP3    H147016   6.550   6.645   9.384  2.1917  2.0453 -0.3684
 7607TIP3    H247017   6.451   6.699   9.485 -0.2904 -1.6461 -0.6273
 7608TIP3   OH247018   0.655   6.480   9.786  0.2680 -0.2737 -0.1437
 7608TIP3    H147019   0.743   6.448   9.808  1.0648 -0.4450 -3.0639
 7608TIP3    H247020   0.671   6.561   9.737 -1.2757  0.1877  0.0586
 7609TIP3   OH247021   6.459   5.685   8.998  0.3760  0.1560  0.3038
 7609TIP3    H147022   6.483   5.593   8.985 -0.6710  0.1873 -2.6410
 7609TIP3    H247023   6.534   5.735   8.966  0.1237  0.2972 -0.0760
 7610TIP3   OH247024   0.685   4.508  11.941 -0.0071  0.1827  0.2439
 7610TIP3    H147025   0.685   4.599  11.970  0.7176 -0.3957  2.2491
 7610TIP3    H247026   0.682   4.457  12.022  3.4146 -1.5789 -0.5399
 7611TIP3   OH247027   6.123   1.231   9.084 -0.2660 -0.5899 -0.0080
 7611TIP3    H147028   6.156   1.229   8.994 -0.5097 -2.4080 -0.0960
 7611TIP3    H247029   6.201   1.221   9.138 -0.1854 -0.1367 -0.0400
 7612TIP3   OH247030   4.526   5.814  12.122  1.1765  0.1898 -0.2524
 7612TIP3    H147031   4.556   5.724  12.128 -0.1419 -0.2763 -0.4646
 7612TIP3    H247032   4.431   5.808  12.115  0.9938  1.6225  0.4983
 7613TIP3   OH247033   4.935   4.753   8.802  0.0325 -0.1680 -0.1154
 7613TIP3    H147034   4.905   4.662   8.795 -0.9106 -0.3021  3.6164
 7613TIP3    H247035   5.017   4.747   8.851  0.1248  0.9790 -0.1093
 7614TIP3   OH247036   3.436   2.141   9.877  0.3901  0.1911 -0.2807
 7614TIP3    H147037   3.359   2.120   9.823  0.0763 -0.3377  0.3567
 7614TIP3    H247038   3.435   2.075   9.946 -0.0666  1.7332  1.2440
 7615TIP3   OH247039   6.216   4.662  10.039 -0.0190 -0.4706  0.1622
 7615TIP3    H147040   6.254   4.599   9.978  1.8686  1.4419 -0.7470
 7615TIP3    H247041   6.257   4.641  10.123 -0.4984 -1.3317  0.1939
 7616TIP3   OH247042   5.855   2.443   9.435  0.0685  0.4571  0.0215
 7616TIP3    H147043   5.921   2.460   9.502  0.8182  2.0578 -1.0638
 7616TIP3    H247044   5.898   2.384   9.373 -0.0565  0.2875  0.0945
 7617TIP3   OH247045   0.295   0.534  10.649 -0.1033 -0.1441  0.7562
 7617TIP3    H147046   0.372   0.548  10.704  1.7779 -1.6867 -1.3182
 7617TIP3    H247047   0.271   0.443  10.662  0.0313 -0.3803 -0.5459
 7618TIP3   OH247048   0.868   2.725  10.833 -0.3663  0.1312  0.1922
 7618TIP3    H147049   0.814   2.803  10.845 -1.3024 -0.6222  1.0001
 7618TIP3    H247050   0.922   2.745  10.757 -0.3922  1.6715  0.5556
 7619TIP3   OH247051   5.449   3.737   9.212 -0.5449 -0.0031  0.0741
 7619TIP3    H147052   5.363   3.757   9.175 -0.3171  0.4621 -0.2207
 7619TIP3    H247053   5.458   3.797   9.286 -0.0469  0.6933 -0.5353
 7620TIP3   OH247054   3.392   2.661   9.808  0.0083 -0.5447 -0.5756
 7620TIP3    H147055   3.366   2.744   9.767 -0.0770 -1.1275 -1.7308
 7620TIP3    H247056   3.487   2.656   9.793 -0.3160 -1.7721 -2.7065
 7621TIP3   OH247057   1.136   4.777  11.834 -0.1270 -0.0335 -0.1547
 7621TIP3    H147058   1.197   4.850  11.822 -1.1299  1.0206  0.8655
 7621TIP3    H247059   1.050   4.813  11.810 -0.6055 -0.9450  0.1481
 7622TIP3   OH247060   4.870   6.460  10.476  0.3184 -0.3282  0.3091
 7622TIP3    H147061   4.893   6.376  10.435  1.3900 -0.2100  0.6488
 7622TIP3    H247062   4.916   6.459  10.560  0.4374  0.6506  0.2617
 7623TIP3   OH247063   5.691   0.623  10.215  0.1282 -0.8992 -0.0200
 7623TIP3    H147064   5.625   0.624  10.145 -0.3088 -0.0273  0.3977
 7623TIP3    H247065   5.766   0.578  10.176 -0.5882 -1.6068 -0.6131
 7624TIP3   OH247066   1.347   3.801   9.777  0.0149  0.1698 -0.5895
 7624TIP3    H147067   1.434   3.794   9.737 -0.8057 -0.3949 -2.3679
 7624TIP3    H247068   1.328   3.713   9.809  1.0812  0.8182  2.1326
 7625TIP3   OH247069   3.601   3.981   8.797  0.0440 -0.5158 -0.6020
 7625TIP3    H147070   3.518   3.951   8.758 -0.4252 -0.9734  0.6854
 7625TIP3    H247071   3.599   4.076   8.788 -1.1856 -0.4101  0.4113
 7626TIP3   OH247072   2.096   5.767  10.345  0.2322  0.2863 -0.3356
 7626TIP3    H147073   2.192   5.763  10.344  0.2888  1.4143 -0.6820
 7626TIP3    H247074   2.072   5.739  10.433  0.9703  1.4597  0.2624
 7627TIP3   OH247075   6.274   0.505  10.971  0.0926 -0.4917 -0.4403
 7627TIP3    H147076   6.229   0.422  10.985 -2.8105  1.1071  0.5776
 7627TIP3    H247077   6.327   0.517  11.050 -0.5400 -0.7938  0.0422
 7628TIP3   OH247078   5.674   5.520   9.649 -0.2166  0.0504  0.0542
 7628TIP3    H147079   5.658   5.436   9.693  0.6987  0.5934  1.4743
 7628TIP3    H247080   5.689   5.582   9.719 -0.7240  1.3977 -0.9897
 7629TIP3   OH247081   1.209   4.086  11.512 -0.2571 -0.7557 -0.2725
 7629TIP3    H147082   1.281   4.049  11.462 -0.1717 -0.3939 -0.4212
 7629TIP3    H247083   1.250   4.146  11.574 -0.1831 -2.5388  1.5226
 7630TIP3   OH247084   4.897   1.744  11.020  0.0130 -0.7888 -0.3190
 7630TIP3    H147085   4.867   1.781  11.103  0.2240 -0.7232 -0.2693
 7630TIP3    H247086   4.914   1.819  10.964 -0.7889 -0.8574 -0.6605
 7631TIP3   OH247087   4.510   4.436  11.927  0.5545  0.3099  0.0229
 7631TIP3    H147088   4.474   4.375  11.991  1.0566 -0.7634 -0.6796
 7631TIP3    H247089   4.600   4.452  11.957  0.7432 -0.0806 -0.3199
 7632TIP3   OH247090   5.685   0.499   9.432 -0.3098  0.0414 -0.8620
 7632TIP3    H147091   5.746   0.469   9.500 -1.6206 -0.0195  0.3462
 7632TIP3    H247092   5.737   0.556   9.376  0.5951  0.9646  0.8251
 7633TIP3   OH247093   0.314   2.733   8.963 -0.5152 -0.0742 -0.0591
 7633TIP3    H147094   0.324   2.800   8.895 -2.5768  0.3922  0.0277
 7633TIP3    H247095   0.314   2.650   8.915  2.7599 -0.1712 -0.1029
 7634TIP3   OH247096   2.317   6.397  10.923  0.6927 -0.0459 -0.2834
 7634TIP3    H147097   2.261   6.320  10.908  0.9893 -0.4460  0.5568
 7634TIP3    H247098   2.334   6.395  11.018  0.2488  1.3715 -0.1555
 7635TIP3   OH247099   4.096   0.386   9.857 -0.3593  0.2624 -0.2578
 7635TIP3    H147100   4.119   0.440   9.781  3.9324  1.3928  1.5395
 7635TIP3    H247101   4.132   0.300   9.837 -0.1227  0.2913  0.0271
 7636TIP3   OH247102   6.473   0.369   9.595  0.3734 -0.5158 -0.1884
 7636TIP3    H147103   6.424   0.298   9.554  0.1313  0.5143 -1.7814
 7636TIP3    H247104   6.565   0.343   9.587  0.2352 -1.1232  0.1811
 7637TIP3   OH247105   6.649   4.404  11.755  0.5905  0.0596 -0.1987
 7637TIP3    H147106   6.559   4.382  11.731 -0.7958 -0.1376  4.1778
 7637TIP3    H247107   6.696   4.322  11.746  0.2323 -0.0001 -1.8966
 7638TIP3   OH247108   3.894   2.531  10.064  0.1479  0.6064 -0.5393
 7638TIP3    H147109   3.824   2.513  10.126 -0.9846  0.5058 -1.7951
 7638TIP3    H247110   3.952   2.455  10.071 -1.2925 -0.6217 -1.3461
 7639TIP3   OH247111   5.582   5.807  11.500 -0.2499 -0.3520  0.4336
 7639TIP3    H147112   5.638   5.748  11.550  0.1870 -0.0805  0.2596
 7639TIP3    H247113   5.535   5.749  11.440  1.2803 -0.3902 -0.7950
 7640TIP3   OH247114   0.915   2.940  11.734 -0.6900  0.2371  0.4755
 7640TIP3    H147115   0.847   2.948  11.667  0.8249  0.4727 -1.0736
 7640TIP3    H247116   0.882   2.870  11.792 -1.4468 -0.8907 -1.2289
 7641TIP3   OH247117   3.440   6.566   9.771 -0.0916 -0.7741 -0.0287
 7641TIP3    H147118   3.517   6.538   9.722  0.5537 -0.9026  1.0372
 7641TIP3    H247119   3.366   6.534   9.720  0.5089  0.2595 -1.6256
 7642TIP3   OH247120   4.001   4.002   9.113  0.0472  0.3723  0.2824
 7642TIP3    H147121   3.940   3.982   9.043 -0.0961 -0.9945  0.7695
 7642TIP3    H247122   3.952   3.986   9.194  0.7456  0.1837  0.6830
 7643TIP3   OH247123   5.646   2.599   9.342 -0.5047  0.2977  0.2419
 7643TIP3    H147124   5.632   2.649   9.422  3.3712  1.2800  0.5110
 7643TIP3    H247125   5.725   2.547   9.360 -1.5527 -2.2381 -1.7678
 7644TIP3   OH247126   6.624   4.199   9.199 -0.4094 -0.7855 -0.0419
 7644TIP3    H147127   6.679   4.194   9.278 -1.2198 -0.9998  0.5261
 7644TIP3    H247128   6.555   4.262   9.223  0.0932  0.1798 -1.0664
 7645TIP3   OH247129   6.331   4.446   9.844  0.0184 -0.5582 -0.2008
 7645TIP3    H147130   6.299   4.505   9.775 -1.1605 -0.7839  0.1210
 7645TIP3    H247131   6.376   4.376   9.796 -1.5152 -1.1615 -0.8330
 7646TIP3   OH247132   0.969   4.364  11.257 -0.0985 -0.3883  0.2857
 7646TIP3    H147133   1.003   4.284  11.218  1.3878  0.9383 -1.2913
 7646TIP3    H247134   1.005   4.363  11.346 -1.0637 -1.9954  0.7017
 7647TIP3   OH247135   4.389   0.306  10.244 -0.2661  0.1276 -0.2279
 7647TIP3    H147136   4.383   0.399  10.221 -1.3381  0.5404  1.4953
 7647TIP3    H247137   4.311   0.290  10.297 -0.7675 -2.0968 -1.5269
 7648TIP3   OH247138   1.315   0.527   9.667 -0.6408 -0.0942  0.2453
 7648TIP3    H147139   1.303   0.531   9.573 -1.0327 -1.0285  0.2420
 7648TIP3    H247140   1.351   0.613   9.691  0.7251 -0.3045 -0.9203
 7649TIP3   OH247141   2.198   0.253  10.945  0.4034 -0.0722 -0.1701
 7649TIP3    H147142   2.146   0.194  10.892  0.5412 -1.3633  1.0621
 7649TIP3    H247143   2.262   0.290  10.884 -0.1170 -0.6706 -1.1041
 7650TIP3   OH247144   1.011   1.003   9.969 -0.3792  0.3910 -0.2146
 7650TIP3    H147145   1.054   1.032  10.050  0.2223 -0.1426 -0.3422
 7650TIP3    H247146   1.071   1.029   9.899 -0.3541 -0.1874 -0.4080
 7651TIP3   OH247147   4.901   4.076  10.786  0.5923  0.5406 -0.2317
 7651TIP3    H147148   4.956   3.999  10.801 -1.0664 -1.1707 -2.2087
 7651TIP3    H247149   4.818   4.056  10.830  0.7890  2.1550  0.9599
 7652TIP3   OH247150   3.413   4.680  10.999  0.0202 -0.0377 -0.8655
 7652TIP3    H147151   3.357   4.623  11.052 -0.5289  1.8858  0.7503
 7652TIP3    H247152   3.387   4.662  10.909 -2.0658 -0.3519 -0.2555
 7653TIP3   OH247153   3.521   3.366  11.497 -0.2010  0.4242 -0.2546
 7653TIP3    H147154   3.552   3.279  11.471 -1.9409  0.2795 -2.1889
 7653TIP3    H247155   3.554   3.424  11.428 -0.6612  0.9511 -0.0344
 7654TIP3   OH247156   6.131   2.720  11.154  0.5139  0.2964 -0.6719
 7654TIP3    H147157   6.222   2.749  11.159  0.2003  1.5653 -1.6667
 7654TIP3    H247158   6.134   2.626  11.173  1.8052  0.6443  1.0215
 7655TIP3   OH247159   5.450   6.578  11.299  0.0224 -0.1478 -0.3043
 7655TIP3    H147160   5.498   6.556  11.219  0.8282 -3.9104  0.9815
 7655TIP3    H247161   5.517   6.600  11.363 -0.6600  3.8462 -0.7447
 7656TIP3   OH247162   3.536   6.570  10.027  0.1139  0.1066 -0.1017
 7656TIP3    H147163   3.477   6.631  10.072  2.1950  1.6431  0.6784
 7656TIP3    H247164   3.499   6.564   9.938 -1.6061  0.4179  0.5392
 7657TIP3   OH247165   5.832   4.664  10.959 -0.4788 -0.2195  0.2464
 7657TIP3    H147166   5.802   4.750  10.987  0.0521  0.3384 -0.8519
 7657TIP3    H247167   5.794   4.653  10.871 -0.4609 -1.0677  0.3353
 7658TIP3   OH247168   6.582   5.918   9.304 -0.5988  0.2859 -0.1804
 7658TIP3    H147169   6.545   5.834   9.276 -1.7648  0.3916  0.9442
 7658TIP3    H247170   6.600   5.906   9.398 -0.1836  1.0883 -0.1483
 7659TIP3   OH247171   2.392   3.465  10.214  0.2451  0.2432  0.0485
 7659TIP3    H147172   2.442   3.449  10.294  0.6721 -0.1994 -0.2987
 7659TIP3    H247173   2.383   3.560  10.209 -0.3612  0.2396  0.9683
 7660TIP3   OH247174   6.360   0.990   8.839  0.0121 -0.0528 -0.1379
 7660TIP3    H147175   6.353   1.044   8.917  0.5800  1.6124 -1.1831
 7660TIP3    H247176   6.269   0.971   8.814 -0.2697  1.6605 -0.5429
 7661TIP3   OH247177   1.641   3.576   9.944  0.5883  0.5068 -0.5203
 7661TIP3    H147178   1.724   3.551   9.902  1.0509  0.1503  0.5751
 7661TIP3    H247179   1.667   3.617  10.026 -0.3686 -1.5244  0.8600
 7662TIP3   OH247180   4.237   4.110   8.609 -0.1232  0.2736  0.5343
 7662TIP3    H147181   4.301   4.045   8.579  0.8717  1.2360  0.4887
 7662TIP3    H247182   4.154   4.063   8.614  0.1812 -0.5353 -1.3487
 7663TIP3   OH247183   2.857   6.535  10.141 -0.8789  1.0907  0.1459
 7663TIP3    H147184   2.877   6.594  10.214 -1.4941  2.3111 -0.6430
 7663TIP3    H247185   2.792   6.582  10.090 -3.3448 -1.3283  0.8405
 7664TIP3   OH247186   3.732   4.653   8.960 -0.0847 -0.1377  0.4169
 7664TIP3    H147187   3.819   4.684   8.936 -0.3527 -0.8064 -1.5729
 7664TIP3    H247188   3.678   4.733   8.961  0.4728  0.2444  1.4309
 7665TIP3   OH247189   6.138   0.328  10.666  0.3399 -0.1555 -0.3179
 7665TIP3    H147190   6.139   0.399  10.602 -0.9950  1.0987  0.9863
 7665TIP3    H247191   6.219   0.341  10.717 -0.2688  0.9573  0.4130
 7666TIP3   OH247192   6.252   6.611  11.240  0.0914 -0.4059  0.1381
 7666TIP3    H147193   6.318   6.680  11.233  0.1565 -0.4355  0.4495
 7666TIP3    H247194   6.279   6.558  11.315 -1.0850  0.4456  1.2008
 7667TIP3   OH247195   3.206   1.258   9.368 -0.4885  1.5784  0.1381
 7667TIP3    H147196   3.123   1.283   9.408 -0.6635 -0.1451  0.9305
 7667TIP3    H247197   3.256   1.339   9.364 -2.4095  2.8054 -0.9416
 7668TIP3   OH247198   1.676   1.325  10.726 -0.2251 -0.1393 -0.4241
 7668TIP3    H147199   1.652   1.387  10.794  0.0400 -1.2156  0.6914
 7668TIP3    H247200   1.662   1.239  10.766  2.4574 -0.8236 -0.7791
 7669TIP3   OH247201   5.325   1.798  10.873  0.0616  0.1534 -0.3673
 7669TIP3    H147202   5.316   1.861  10.944 -0.8000  1.4850 -1.6121
 7669TIP3    H247203   5.248   1.741  10.881  0.1799  0.0410 -0.0075
 7670TIP3   OH247204   2.359   4.689  12.293 -0.1869 -0.2665  0.1665
 7670TIP3    H147205   2.305   4.675  12.371 -0.8362 -3.1562 -0.6969
 7670TIP3    H247206   2.296   4.712  12.224 -0.0223 -1.0569 -0.2537
 7671TIP3   OH247207   0.597   0.845   8.948  0.3405  0.4729 -1.1679
 7671TIP3    H147208   0.574   0.892   8.868  3.2602  0.8676 -1.8542
 7671TIP3    H247209   0.567   0.903   9.019  0.4321  1.5454 -1.9850
 7672TIP3   OH247210   3.076   4.850  11.890 -0.3988 -0.3610 -0.6859
 7672TIP3    H147211   3.159   4.838  11.936  1.0899  0.2890 -3.0199
 7672TIP3    H247212   3.040   4.932  11.925 -0.1976 -0.7566  0.4898
 7673TIP3   OH247213   4.297   4.585   9.329  0.2798  0.4539 -0.4310
 7673TIP3    H147214   4.372   4.587   9.269 -0.2843  1.2244 -1.1324
 7673TIP3    H247215   4.312   4.508   9.384  3.0884  2.1521  1.4182
 7674TIP3   OH247216   3.760   5.785   9.945 -0.3758  0.4380  0.4331
 7674TIP3    H147217   3.839   5.764   9.996  0.0237 -0.2619 -0.4545
 7674TIP3    H247218   3.783   5.865   9.898  0.9762 -1.3458 -2.1655
 7675TIP3   OH247219   0.488   4.422  11.467  0.1291  0.0984  0.3314
 7675TIP3    H147220   0.489   4.331  11.497  2.6864  0.0954  0.5023
 7675TIP3    H247221   0.444   4.470  11.538 -2.0088 -1.0449 -0.1344
 7676TIP3   OH247222   5.822   5.852   9.531  0.1962 -0.2828 -0.0828
 7676TIP3    H147223   5.768   5.788   9.484  1.7186 -3.2009  1.7864
 7676TIP3    H247224   5.911   5.818   9.522  1.0323  1.4215  1.2919
 7677TIP3   OH247225   2.302   3.605   8.378  0.4936  0.0137  0.3331
 7677TIP3    H147226   2.274   3.624   8.289  2.4878 -0.4666 -0.4638
 7677TIP3    H247227   2.395   3.630   8.380  0.6077 -0.3918  2.1410
 7678TIP3   OH247228   6.453   3.735   8.688 -0.1948  0.2911  0.1331
 7678TIP3    H147229   6.478   3.798   8.756  0.0979  1.1239 -0.7337
 7678TIP3    H247230   6.498   3.654   8.712 -2.0277 -0.1913  2.3038
 7679TIP3   OH247231   1.397   1.861   8.575 -0.1223  0.2794  0.5020
 7679TIP3    H147232   1.464   1.880   8.509  1.1788 -1.6916  1.1455
 7679TIP3    H247233   1.368   1.772   8.554 -0.9105  0.2657  1.5862
 7680TIP3   OH247234   4.672   0.889  10.707  0.1733  0.6206  0.2985
 7680TIP3    H147235   4.705   0.963  10.759  0.4888  0.1366  0.8032
 7680TIP3    H247236   4.577   0.895  10.715  0.2132  0.6668  0.7832
 7681TIP3   OH247237   6.753   2.436   8.719 -0.8836 -0.2126  0.1272
 7681TIP3    H147238   6.703   2.382   8.658 -1.8858  1.1082 -0.2462
 7681TIP3    H247239   6.817   2.481   8.664 -0.7084 -0.2631  0.2900
 7682TIP3   OH247240   5.455   6.132  11.223 -0.0198 -0.1669 -0.5006
 7682TIP3    H147241   5.403   6.052  11.220 -0.1234 -0.0645 -2.4446
 7682TIP3    H247242   5.428   6.175  11.305 -0.6126 -1.6531  0.1209
 7683TIP3   OH247243   2.103   5.187  10.195 -0.2318 -0.3384  0.0905
 7683TIP3    H147244   2.047   5.256  10.229  1.2062  0.7566  0.3261
 7683TIP3    H247245   2.109   5.123  10.266 -0.3882  0.0213  0.4293
 7684TIP3   OH247246   5.797   0.934   9.954  0.1669 -0.2790  0.0693
 7684TIP3    H147247   5.843   0.974  10.028  0.0743 -0.9489  0.4936
 7684TIP3    H247248   5.851   0.957   9.878 -0.8734  2.3029 -0.0064
 7685TIP3   OH247249   1.726   1.784   9.121 -0.2844 -0.7005  0.2127
 7685TIP3    H147250   1.747   1.766   9.029  1.8818  0.9196  0.3069
 7685TIP3    H247251   1.634   1.808   9.120  0.0162  0.6053 -1.7933
 7686TIP3   OH247252   6.760   5.818   9.136 -0.0290  0.6770 -0.1114
 7686TIP3    H147253   6.707   5.859   9.205  1.2052  2.9317 -0.4121
 7686TIP3    H247254   6.839   5.873   9.130  0.0818  0.3684 -3.0529
 7687TIP3   OH247255   5.068   6.276   9.067 -0.4657 -0.0883  0.3416
 7687TIP3    H147256   5.129   6.346   9.046 -1.9527  1.3454  0.5515
 7687TIP3    H247257   5.114   6.222   9.132  0.7001  0.7139  0.2065
 7688TIP3   OH247258   5.329   5.123   9.168 -0.0040 -0.9665 -0.5071
 7688TIP3    H147259   5.404   5.148   9.115  1.8987 -3.9640  0.5274
 7688TIP3    H247260   5.364   5.116   9.257 -1.7612 -1.4471  0.1919
 7689TIP3   OH247261   1.042   3.685  10.786  0.4299  0.3133  0.5664
 7689TIP3    H147262   0.951   3.709  10.773  0.5371  0.2507 -0.3145
 7689TIP3    H247263   1.074   3.660  10.700  0.9741 -0.7617  1.0535
 7690TIP3   OH247264   3.252   0.994  10.809 -0.2134 -0.6688 -0.1471
 7690TIP3    H147265   3.275   1.023  10.897  0.1169  1.1349 -0.7689
 7690TIP3    H247266   3.324   0.936  10.783  1.4975  1.4187 -0.4220
 7691TIP3   OH247267   4.802   0.050   9.084  0.4394 -0.3797  0.1543
 7691TIP3    H147268   4.822  -0.016   9.150  0.1063 -1.1182 -0.4668
 7691TIP3    H247269   4.708   0.063   9.091  0.4884 -0.0471  0.2021
 7692TIP3   OH247270   3.110   1.692   9.529 -0.0674 -0.0729  0.1161
 7692TIP3    H147271   3.111   1.596   9.527  1.9027 -0.0878 -0.1202
 7692TIP3    H247272   3.046   1.714   9.596 -0.0673 -1.5780  0.6532
 7693TIP3   OH247273   4.718   1.528  16.196 -0.1000  0.2883 -0.0147
 7693TIP3    H147274   4.669   1.610  16.206 -0.1019  0.1947  0.7815
 7693TIP3    H247275   4.794   1.538  16.253 -1.1434 -1.0611  1.6993
 7694TIP3   OH247276   0.204   5.406   8.551 -0.2006 -0.0569  0.5818
 7694TIP3    H147277   0.249   5.392   8.467 -1.8832  0.6415 -0.4834
 7694TIP3    H247278   0.157   5.324   8.566 -0.0538 -0.1096  0.7578
 7695TIP3   OH247279   4.528   5.643  12.674 -0.5894  0.6891 -0.1839
 7695TIP3    H147280   4.522   5.569  12.734 -0.5337  1.2597  0.5390
 7695TIP3    H247281   4.610   5.629  12.627 -1.3410 -0.5319 -1.1874
 7696TIP3   OH247282   1.426   1.022   8.973 -0.0390  0.1970  0.7489
 7696TIP3    H147283   1.495   1.069   9.020  0.1702  0.2826  0.3579
 7696TIP3    H247284   1.458   1.016   8.883 -1.6725  2.6088 -0.1023
 7697TIP3   OH247285   2.022   2.234   8.474 -0.2095 -0.4581 -0.2629
 7697TIP3    H147286   2.081   2.212   8.546 -1.4813 -0.6307  0.7620
 7697TIP3    H247287   2.041   2.326   8.455 -1.7416  0.4690  2.2106
 7698TIP3   OH247288   6.646   0.778  10.882 -0.2340  0.2994  0.5156
 7698TIP3    H147289   6.580   0.844  10.900  1.1192  2.4603 -1.7766
 7698TIP3    H247290   6.688   0.760  10.966 -2.2127  0.5386  1.5873
 7699TIP3   OH247291   3.371   2.586  11.548 -0.4225  0.1453  0.2848
 7699TIP3    H147292   3.313   2.511  11.559  0.0693 -0.5802 -1.7539
 7699TIP3    H247293   3.415   2.571  11.465  1.7744  1.3039  1.1578
 7700TIP3   OH247294   4.565   5.069  11.329  0.5842  0.5883 -0.0500
 7700TIP3    H147295   4.507   5.124  11.278 -2.0948 -0.9884  1.1124
 7700TIP3    H247296   4.536   4.980  11.312  0.2073 -0.0765  3.3044
 7701TIP3   OH247297   3.468   5.201  10.909  0.1698 -0.0171  0.7818
 7701TIP3    H147298   3.480   5.132  10.975  0.7265  0.3917  1.1206
 7701TIP3    H247299   3.556   5.237  10.897 -0.1156  0.6183  0.5958
 7702TIP3   OH247300   1.866   3.561  10.589  0.0829 -0.0305 -0.2093
 7702TIP3    H147301   1.939   3.620  10.571 -0.5491  0.4006 -1.4480
 7702TIP3    H247302   1.848   3.573  10.683  0.8478  0.7229 -0.1497
 7703TIP3   OH247303   1.047   0.440   8.767 -0.3448 -0.2232 -0.2376
 7703TIP3    H147304   1.046   0.536   8.770 -2.4628 -0.2213  1.3381
 7703TIP3    H247305   1.072   0.413   8.856 -1.4929 -1.0818 -0.1443
 7704TIP3   OH247306   2.618   5.684   8.799 -0.0433  0.3891  0.3957
 7704TIP3    H147307   2.548   5.650   8.744  1.1372 -2.4611  0.4781
 7704TIP3    H247308   2.611   5.634   8.880  2.2324 -0.2051  0.2983
 7705TIP3   OH247309   2.780   1.552  11.819  0.7941  0.0468  0.0705
 7705TIP3    H147310   2.831   1.527  11.897  1.0869  1.3668  0.3369
 7705TIP3    H247311   2.703   1.496  11.821  0.3242  0.6763  1.8683
 7706TIP3   OH247312   1.897   1.187   9.413  0.1730 -0.1404  0.2768
 7706TIP3    H147313   1.973   1.244   9.429 -0.4851  0.1962  2.4031
 7706TIP3    H247314   1.914   1.150   9.326  2.1385  0.9042  0.1480
 7707TIP3   OH247315   1.470   4.861  10.273 -0.0957  0.5903  0.1038
 7707TIP3    H147316   1.557   4.901  10.273  0.6042 -0.7440 -2.1070
 7707TIP3    H247317   1.458   4.830  10.363  1.8373  0.5693  0.4006
 7708TIP3   OH247318   1.459   2.946  11.572 -0.4656  0.4562  0.3344
 7708TIP3    H147319   1.467   2.914  11.482 -0.6256 -1.7062  1.0408
 7708TIP3    H247320   1.549   2.948  11.605 -0.1826  2.9425 -0.3388
 7709TIP3   OH247321   5.955   4.039   9.397 -0.0839 -0.1289 -0.5435
 7709TIP3    H147322   5.869   4.078   9.413  0.5450  0.7340  0.9168
 7709TIP3    H247323   5.955   3.958   9.448  0.3212  0.3906  0.3025
 7710TIP3   OH247324   1.508   6.523  11.260 -0.0873 -0.3388  0.5687
 7710TIP3    H147325   1.487   6.446  11.207 -0.5299  0.5363 -0.5747
 7710TIP3    H247326   1.451   6.514  11.337 -0.1439 -1.1391  0.4484
 7711TIP3   OH247327   3.005   5.581   9.990  0.3746  0.5337  0.3686
 7711TIP3    H147328   2.975   5.504  10.039  1.0358 -0.2562 -0.4299
 7711TIP3    H247329   3.058   5.545   9.919  0.5230  1.7255 -0.1497
 7712TIP3   OH247330   1.180   4.486  12.334 -0.2947 -0.4056 -0.0124
 7712TIP3    H147331   1.197   4.392  12.340  1.0303 -0.1883 -0.1658
 7712TIP3    H247332   1.212   4.511  12.247  2.6586  0.8031  1.3144
 7713TIP3   OH247333   5.771   6.310  10.613  0.2644 -0.3474 -0.2051
 7713TIP3    H147334   5.699   6.372  10.610  1.6374  1.3233 -0.3169
 7713TIP3    H247335   5.817   6.323  10.529  2.0292  0.3580  0.8186
 7714TIP3   OH247336   1.111   4.642  10.213 -0.0744  0.1581 -0.3411
 7714TIP3    H147337   1.115   4.647  10.308 -1.1749  0.0852 -0.2794
 7714TIP3    H247338   1.128   4.550  10.194 -0.8954 -0.0400 -0.1427
 7715TIP3   OH247339   2.135   1.661   9.114  0.6391 -0.3854 -0.8005
 7715TIP3    H147340   2.191   1.725   9.159 -0.9254  0.1498  0.4760
 7715TIP3    H247341   2.179   1.577   9.127  1.8394  0.1911 -1.0171
 7716TIP3   OH247342   0.846   3.648  12.002 -0.4782 -0.4479 -0.9938
 7716TIP3    H147343   0.931   3.605  11.998  0.9777  1.7716  1.9390
 7716TIP3    H247344   0.866   3.741  11.996 -1.8946  0.5429  4.3901
 7717TIP3   OH247345   1.074   2.074  10.375 -0.4602 -0.4640  0.1297
 7717TIP3    H147346   1.066   2.152  10.430  2.2562 -0.4842  0.7016
 7717TIP3    H247347   1.047   2.104  10.288  1.5794  1.5400  0.0657
 7718TIP3   OH247348   5.614   3.779  10.391  0.7371  0.5143  0.0682
 7718TIP3    H147349   5.653   3.704  10.436  0.0065 -0.3710 -0.7210
 7718TIP3    H247350   5.653   3.778  10.304  1.0777  1.3531  0.1993
 7719TIP3   OH247351   3.697   2.962  10.831 -0.3817  0.2713 -0.1946
 7719TIP3    H147352   3.778   3.010  10.816  1.2217 -2.5552 -1.2933
 7719TIP3    H247353   3.690   2.956  10.927  1.4536 -0.5131 -0.0642
 7720TIP3   OH247354   5.867   3.378   9.387 -0.6597  0.0435  0.5210
 7720TIP3    H147355   5.920   3.451   9.419 -0.5895  1.2646 -2.0947
 7720TIP3    H247356   5.927   3.303   9.386  0.1500  0.6736  0.4398
 7721TIP3   OH247357   4.210   0.133   9.789  0.6421 -0.0067  0.0062
 7721TIP3    H147358   4.274   0.104   9.855 -0.8832  1.3778  2.2323
 7721TIP3    H247359   4.146   0.062   9.785  0.0508  0.4559  1.0199
 7722TIP3   OH247360   3.074   2.779  11.525 -0.4230 -0.1575  0.4854
 7722TIP3    H147361   3.089   2.696  11.481  2.7400  0.5009  0.1062
 7722TIP3    H247362   2.996   2.815  11.481 -0.1962 -1.6451 -1.2870
 7723TIP3   OH247363   2.510   1.300   9.303 -0.6023  0.3452 -0.4019
 7723TIP3    H147364   2.558   1.237   9.250 -0.7862  1.2843 -1.7437
 7723TIP3    H247365   2.436   1.250   9.339  1.5390 -1.2476  2.1195
 7724TIP3   OH247366   1.020   2.921   9.259 -0.3597  0.1168  0.0188
 7724TIP3    H147367   1.095   2.962   9.303 -0.2733 -0.7935  0.7466
 7724TIP3    H247368   1.013   2.834   9.299 -0.0153 -0.9369 -2.0731
 7725TIP3   OH247369   0.008   6.211  11.328  0.8511  0.0343  0.1681
 7725TIP3    H147370  -0.067   6.267  11.350 -0.7147 -1.1744 -1.6990
 7725TIP3    H247371   0.002   6.138  11.389  0.3755 -0.1534 -0.0969
 7726TIP3   OH247372   0.403   0.517   9.649  0.0049  0.1833  0.4496
 7726TIP3    H147373   0.356   0.589   9.608  2.1310  2.5691  1.9590
 7726TIP3    H247374   0.373   0.517   9.740  0.6130 -0.3438  0.6590
 7727TIP3   OH247375   3.842   3.886   8.904  0.2373 -0.0589  0.4500
 7727TIP3    H147376   3.887   3.820   8.851  1.0228  1.9347 -1.5500
 7727TIP3    H247377   3.757   3.897   8.861  0.2545  0.4597  0.5390
 7728TIP3   OH247378   0.698   6.382  11.357  0.2870 -0.2723  0.0414
 7728TIP3    H147379   0.636   6.309  11.347 -0.2362  0.1795 -0.0558
 7728TIP3    H247380   0.682   6.415  11.445 -0.6409  0.7622 -0.4839
 7729TIP3   OH247381   0.836   0.579   9.169  0.3123 -0.4420 -0.4160
 7729TIP3    H147382   0.821   0.539   9.254 -0.4365  1.8523  0.6110
 7729TIP3    H247383   0.769   0.540   9.112 -2.6729  1.6455  1.3805
 7730TIP3   OH247384   3.338   2.515   9.307 -0.1789 -0.4037  0.3140
 7730TIP3    H147385   3.386   2.563   9.375  0.0865  1.0061 -0.8291
 7730TIP3    H247386   3.353   2.423   9.328 -1.2081 -0.0605  2.9353
 7731TIP3   OH247387   4.414   4.513   9.765 -0.0330 -0.0196  0.3278
 7731TIP3    H147388   4.390   4.571   9.692 -1.3113 -0.9326 -0.0011
 7731TIP3    H247389   4.423   4.572   9.840  1.2895  0.9388 -0.5186
 7732TIP3   OH247390   1.575   6.532  10.607  0.5601 -0.2856 -0.2941
 7732TIP3    H147391   1.550   6.484  10.528  1.1928 -0.1138 -0.6053
 7732TIP3    H247392   1.664   6.503  10.626  1.2104  1.2308 -0.8634
 7733TIP3   OH247393   5.279   5.813  10.950 -0.4261 -0.0279 -0.1919
 7733TIP3    H147394   5.242   5.901  10.952 -0.9955 -0.2661  0.7870
 7733TIP3    H247395   5.203   5.755  10.954 -0.0077 -0.5362  1.0046
 7734TIP3   OH247396   3.146   0.527   8.837 -0.2911 -0.2890 -0.0054
 7734TIP3    H147397   3.070   0.574   8.803  0.5425  0.7424 -0.5273
 7734TIP3    H247398   3.113   0.440   8.860 -1.8154  0.4232  0.6469
 7735TIP3   OH247399   0.418   2.261   8.686 -0.3511 -0.0883  0.0191
 7735TIP3    H147400   0.415   2.343   8.636 -1.1279  0.8322  1.4953
 7735TIP3    H247401   0.500   2.265   8.735  0.3613 -0.9450 -1.0418
 7736TIP3   OH247402   2.177   3.318   8.850 -0.5055 -0.7471  0.3856
 7736TIP3    H147403   2.238   3.385   8.820 -1.8301  1.2248  1.8632
 7736TIP3    H247404   2.233   3.247   8.881  1.1216  1.1312  2.0399
 7737TIP3   OH247405   2.476   1.073  10.307 -0.8116  0.7103  0.1948
 7737TIP3    H147406   2.413   1.035  10.247 -1.2968  1.5374  0.1697
 7737TIP3    H247407   2.550   1.012  10.306 -1.9669 -0.7687  0.9485
 7738TIP3   OH247408   3.145   0.282   9.465 -0.2968 -0.1287 -0.1791
 7738TIP3    H147409   3.231   0.310   9.436 -0.1069 -0.4581  0.0607
 7738TIP3    H247410   3.152   0.274   9.560 -0.9799  1.1696  0.0011
 7739TIP3   OH247411   3.547   0.137  11.499 -0.1396  0.2988  0.4012
 7739TIP3    H147412   3.468   0.180  11.464 -1.4611 -2.0554  0.2727
 7739TIP3    H247413   3.554   0.171  11.589 -0.8187  1.1660  0.1483
 7740TIP3   OH247414   3.166   4.010  11.279 -0.2848  0.5454 -0.3674
 7740TIP3    H147415   3.149   4.103  11.266  0.7539  0.8494  0.3448
 7740TIP3    H247416   3.211   4.005  11.364 -0.8394 -0.6600 -0.1184
 7741TIP3   OH247417   1.148   6.177  10.965 -0.5306  0.2648  0.2456
 7741TIP3    H147418   1.208   6.184  11.039 -0.1693  0.2194 -0.0402
 7741TIP3    H247419   1.091   6.254  10.973  0.5191  1.1298 -0.3147
 7742TIP3   OH247420   3.755   5.054  11.971  0.0038  0.2862  0.2355
 7742TIP3    H147421   3.677   5.018  12.013 -1.0749  2.1066 -0.0690
 7742TIP3    H247422   3.828   5.025  12.026 -0.4669 -3.8405 -1.0265
 7743TIP3   OH247423   4.084   4.501  11.936  0.1912  0.0910 -0.6229
 7743TIP3    H147424   4.020   4.549  11.989  0.2420 -0.6601  0.1557
 7743TIP3    H247425   4.063   4.524  11.846 -1.5477 -0.5342 -0.4274
 7744TIP3   OH247426   2.768   2.811  10.988  0.3740  0.3253  0.1350
 7744TIP3    H147427   2.798   2.752  11.058  1.2750 -0.1009 -0.5912
 7744TIP3    H247428   2.678   2.783  10.970  0.3681 -0.0084  0.6523
 7745TIP3   OH247429   3.625   1.565  11.821 -0.7731 -0.1579  0.1831
 7745TIP3    H147430   3.554   1.542  11.881 -0.2576  0.7896  1.2174
 7745TIP3    H247431   3.595   1.645  11.778 -1.0816 -0.7599 -0.7401
 7746TIP3   OH247432   1.876   4.682  11.818 -0.1459  0.3941 -0.0999
 7746TIP3    H147433   1.966   4.697  11.789  0.4738 -2.2725  0.2330
 7746TIP3    H247434   1.854   4.761  11.868  1.3651  1.8428 -1.5747
 7747TIP3   OH247435   0.618   4.758  12.001  0.1221 -0.0191  0.3641
 7747TIP3    H147436   0.629   4.831  12.062  0.5754  1.4743 -1.4001
 7747TIP3    H247437   0.527   4.764  11.972  0.9866  2.1935 -2.4214
 7748TIP3   OH247438   1.578   6.699  11.075  0.3404 -0.1561 -0.2803
 7748TIP3    H147439   1.558   6.630  11.139 -0.4836  0.6446  0.3561
 7748TIP3    H247440   1.526   6.677  10.999  0.0019 -0.1824 -0.0428
 7749TIP3   OH247441   2.548   6.535  12.193  0.1313  0.3547  0.2484
 7749TIP3    H147442   2.511   6.621  12.175 -3.9404 -1.6738 -2.4844
 7749TIP3    H247443   2.492   6.498  12.261  0.3274 -0.9757 -0.2774
 7750TIP3   OH247444   4.706   5.606  10.646  0.3063  0.2535  0.2823
 7750TIP3    H147445   4.698   5.511  10.636  1.3863  0.1445  0.2824
 7750TIP3    H247446   4.672   5.642  10.564  0.7499 -0.1896 -0.1042
 7751TIP3   OH247447   4.516   6.324   9.264  0.1474  0.5734 -0.1798
 7751TIP3    H147448   4.496   6.237   9.230 -0.3261 -0.2887  2.1042
 7751TIP3    H247449   4.583   6.358   9.205  1.4647 -1.9732 -0.3223
 7752TIP3   OH247450   0.951   3.123  12.004  0.0045  0.0648  0.1468
 7752TIP3    H147451   0.865   3.082  12.003  1.2585 -2.8184 -0.6026
 7752TIP3    H247452   0.974   3.130  12.097 -0.6375 -0.0838  0.3203
 7753TIP3   OH247453   1.785   3.282  10.052 -0.1205 -0.0958 -0.2360
 7753TIP3    H147454   1.749   3.285  10.141 -2.4372  0.1116 -1.1110
 7753TIP3    H247455   1.878   3.304  10.063 -0.8283  2.2914  1.8554
 7754TIP3   OH247456   3.218   3.385  12.163 -0.0680  0.3097  0.2483
 7754TIP3    H147457   3.286   3.356  12.225 -1.1876  1.7980  2.2663
 7754TIP3    H247458   3.149   3.319  12.171  0.3615 -0.2475 -0.4927
 7755TIP3   OH247459   2.619   0.623  12.469  0.1886  0.4540  0.3156
 7755TIP3    H147460   2.669   0.549  12.433 -1.8343 -0.8709  0.1185
 7755TIP3    H247461   2.649   0.698  12.418  1.5587 -0.3769 -0.1724
 7756TIP3   OH247462   4.607   4.906  10.122  0.2697  0.3556 -0.5811
 7756TIP3    H147463   4.620   4.888  10.216  0.6551  0.0626 -0.6869
 7756TIP3    H247464   4.514   4.927  10.114  0.3836  1.1092 -0.0186
 7757TIP3   OH247465   4.171   0.187  10.432 -0.2050  0.3510  0.1554
 7757TIP3    H147466   4.140   0.141  10.355 -0.2783  2.1123 -0.9216
 7757TIP3    H247467   4.091   0.219  10.475 -0.1349 -0.0789  0.6103
 7758TIP3   OH247468   5.544   4.394   9.671  0.6327 -0.1657  0.3024
 7758TIP3    H147469   5.531   4.382   9.765 -1.0589  3.6336  0.7299
 7758TIP3    H247470   5.456   4.406   9.636  1.3792  0.7996 -1.3588
 7759TIP3   OH247471   4.747   2.584  11.508  0.4291  0.0243  0.2493
 7759TIP3    H147472   4.722   2.676  11.504 -1.5052 -0.4601 -3.8392
 7759TIP3    H247473   4.664   2.537  11.517  1.1048 -1.3758 -0.6165
 7760TIP3   OH247474   4.431   4.439   8.643  0.3372 -0.2561  0.4181
 7760TIP3    H147475   4.507   4.437   8.585  2.0666  0.9793  2.4818
 7760TIP3    H247476   4.444   4.366   8.704  1.0355  1.1404  2.0448
 7761TIP3   OH247477   0.700   2.433  10.941  0.4192  0.2267 -0.4834
 7761TIP3    H147478   0.736   2.465  10.859  2.5386  2.0019  1.0046
 7761TIP3    H247479   0.774   2.392  10.986 -0.1533  1.0476  1.3157
 7762TIP3   OH247480   6.726   3.642   8.546 -0.0892 -0.1443  0.0605
 7762TIP3    H147481   6.674   3.572   8.585 -1.3732  0.2773 -0.8166
 7762TIP3    H247482   6.695   3.722   8.589 -1.2003  0.2709 -1.4199
 7763TIP3   OH247483   6.471   4.957  11.786 -0.3353  0.5417 -0.9330
 7763TIP3    H147484   6.456   4.876  11.736 -0.5240 -0.8323  1.2401
 7763TIP3    H247485   6.414   5.022  11.743 -2.6025 -1.2646 -0.8755
 7764TIP3   OH247486   2.612   2.031  11.563 -0.5197 -0.2353 -0.2349
 7764TIP3    H147487   2.581   2.007  11.650 -0.5597  1.0802  0.1371
 7764TIP3    H247488   2.551   1.988  11.503 -2.0938  0.9408  0.4542
 7765TIP3   OH247489   3.096   3.605  11.419 -0.5798  0.4051 -0.6265
 7765TIP3    H147490   3.039   3.530  11.434  0.0157  0.1382  0.3289
 7765TIP3    H247491   3.173   3.569  11.376 -0.9441  0.7118 -1.5730
 7766TIP3   OH247492   5.513   4.415   8.892  0.3880  0.4795 -0.2065
 7766TIP3    H147493   5.419   4.427   8.879  0.2178 -1.1516 -0.6950
 7766TIP3    H247494   5.551   4.501   8.873 -1.0442  1.3368  0.6505
 7767TIP3   OH247495   2.359   0.934   9.883 -0.0418 -0.0307  0.0774
 7767TIP3    H147496   2.298   0.944   9.956  0.8037  0.0709  0.7865
 7767TIP3    H247497   2.444   0.920   9.924  0.2122 -1.5307 -0.8985
 7768TIP3   OH247498   1.089   5.964  11.455 -0.9912 -0.2063 -0.4964
 7768TIP3    H147499   1.144   5.915  11.394 -1.1495 -1.5619  0.4150
 7768TIP3    H247500   1.013   5.990  11.403  0.7764  2.4472 -2.0211
 7769TIP3   OH247501   0.261   1.668   9.559  0.0231  0.2260 -0.3531
 7769TIP3    H147502   0.295   1.663   9.648  0.7055  1.3589 -0.5369
 7769TIP3    H247503   0.180   1.616   9.561 -1.1669  2.0152  1.4950
 7770TIP3   OH247504   5.052   1.466   8.681  0.1967  0.2193 -0.3466
 7770TIP3    H147505   4.966   1.505   8.664  0.9402  1.9624 -0.2696
 7770TIP3    H247506   5.077   1.426   8.597 -1.0690 -1.1446 -0.1139
 7771TIP3   OH247507   4.226   3.068  10.868  0.3592  0.0582  0.0995
 7771TIP3    H147508   4.305   3.121  10.865  1.4398 -1.5270 -0.9963
 7771TIP3    H247509   4.258   2.979  10.883 -1.1853 -0.6741 -0.7518
 7772TIP3   OH247510   2.332   6.407  10.628  0.6907 -0.4129 -0.1569
 7772TIP3    H147511   2.330   6.453  10.711  0.1568 -0.0468 -0.3722
 7772TIP3    H247512   2.425   6.393  10.610  0.7959 -0.8019  0.6667
 7773TIP3   OH247513   5.687   5.325   9.265  0.6272 -0.1258  0.1158
 7773TIP3    H147514   5.705   5.290   9.352  0.2693  1.2489  0.7783
 7773TIP3    H247515   5.674   5.419   9.279  3.1994  0.6462 -1.7876
 7774TIP3   OH247516   1.246   5.973   8.812  0.1088 -0.3566  0.2827
 7774TIP3    H147517   1.274   5.910   8.878 -0.2193 -1.5292 -0.6742
 7774TIP3    H247518   1.184   5.926   8.757 -0.5409  0.9560 -0.1595
 7775TIP3   OH247519   6.416   2.252   9.916 -0.0192 -0.6103 -0.0392
 7775TIP3    H147520   6.427   2.197   9.994 -0.8990 -0.9823 -0.1570
 7775TIP3    H247521   6.348   2.207   9.865 -2.7795  1.9163  1.1299
 7776TIP3   OH247522   6.147   5.964   9.550  0.2860 -1.0937 -0.1880
 7776TIP3    H147523   6.190   5.973   9.635  0.2842 -0.5628 -0.2395
 7776TIP3    H247524   6.065   6.012   9.559 -0.0237 -1.5990 -0.2818
 7777TIP3   OH247525   1.698   0.997   9.554  0.5075  0.2405 -0.6960
 7777TIP3    H147526   1.772   1.053   9.578  2.2922 -1.7004 -1.3392
 7777TIP3    H247527   1.661   1.039   9.476  0.5549  1.5217 -0.0610
 7778TIP3   OH247528   6.378   1.282   8.770  0.2024 -0.0742  0.0897
 7778TIP3    H147529   6.471   1.302   8.762  0.1053 -0.1338 -1.4754
 7778TIP3    H247530   6.368   1.195   8.730 -0.7388  0.5690 -1.1442
 7779TIP3   OH247531   2.203   2.216   8.699 -0.0334  0.3179 -0.1437
 7779TIP3    H147532   2.204   2.173   8.785  0.3088  0.0409 -0.2860
 7779TIP3    H247533   2.186   2.308   8.719 -2.7972 -0.1600  0.0375
 7780TIP3   OH247534   2.981   1.920   9.137  0.3041  0.4713  0.1382
 7780TIP3    H147535   2.977   1.994   9.197  1.4144  1.4515 -0.9573
 7780TIP3    H247536   2.957   1.844   9.191 -0.0607  1.4945  1.4665
 7781TIP3   OH247537   2.912   2.994  10.836 -0.1996  0.0196 -0.3089
 7781TIP3    H147538   2.869   2.911  10.855  0.3723 -0.5463 -1.3545
 7781TIP3    H247539   2.850   3.043  10.783 -0.0376 -0.2845 -0.7816
 7782TIP3   OH247540   3.733   0.196  11.268 -0.5744  0.9569 -0.1687
 7782TIP3    H147541   3.662   0.232  11.215 -1.5794 -0.3597  0.2238
 7782TIP3    H247542   3.688   0.148  11.338  0.6592 -0.9483 -0.5939
 7783TIP3   OH247543   4.133   1.237   8.906  0.1468  0.0566  0.5922
 7783TIP3    H147544   4.121   1.317   8.958  0.9716  0.6172 -0.0461
 7783TIP3    H247545   4.202   1.189   8.953  0.5955  0.3650  0.2619
 7784TIP3   OH247546   6.572   0.616  10.653 -0.1538 -0.1843 -0.2202
 7784TIP3    H147547   6.495   0.672  10.646 -0.5101 -0.4884  0.9719
 7784TIP3    H247548   6.639   0.671  10.692  0.1385 -0.0098 -0.9632
 7785TIP3   OH247549   1.485   5.812  11.763 -0.1171  0.3428 -0.9800
 7785TIP3    H147550   1.468   5.906  11.749  0.2901  0.2699 -2.0845
 7785TIP3    H247551   1.413   5.783  11.819 -0.1765  1.3389 -0.5071
 7786TIP3   OH247552   5.631   4.237  10.087  0.0335 -0.7320 -0.6346
 7786TIP3    H147553   5.708   4.205  10.041  0.1384 -0.9234 -0.3294
 7786TIP3    H247554   5.661   4.317  10.131  0.1858 -1.0541 -0.1401
 7787TIP3   OH247555   4.436   3.908   8.593 -0.1495 -0.0218  0.2244
 7787TIP3    H147556   4.392   3.876   8.671  0.0983 -2.3349 -0.5227
 7787TIP3    H247557   4.529   3.898   8.611 -0.0588  0.2805 -0.0504
 7788TIP3   OH247558   4.968   2.659   9.222 -0.0953  0.4872  1.0781
 7788TIP3    H147559   5.054   2.644   9.261  0.5306 -1.2487 -0.7913
 7788TIP3    H247560   4.925   2.573   9.224 -0.0637  0.2966 -1.7983
 7789TIP3   OH247561   4.446   1.962   8.791  0.3664  0.1178 -0.8079
 7789TIP3    H147562   4.375   2.015   8.826 -0.0182 -0.5646 -0.5527
 7789TIP3    H247563   4.522   2.021   8.792  0.4979 -0.0159  1.5972
 7790TIP3   OH247564   5.394   6.092   9.839 -0.1289 -0.2710 -0.0618
 7790TIP3    H147565   5.330   6.073   9.770 -0.3531  0.0342  0.0621
 7790TIP3    H247566   5.427   6.179   9.817  1.3692 -1.0354 -0.9921
 7791TIP3   OH247567   4.102   0.486  10.421 -0.6377 -0.5004 -0.0108
 7791TIP3    H147568   4.017   0.470  10.463 -0.9288  1.6575  0.3391
 7791TIP3    H247569   4.083   0.482  10.327 -0.6805 -2.0332  0.0452
 7792TIP3   OH247570   0.221   6.594   9.136  0.1907 -0.7375  0.2034
 7792TIP3    H147571   0.175   6.511   9.139  0.3423 -0.7923  1.8154
 7792TIP3    H247572   0.248   6.610   9.226  0.5768  0.8302 -0.1556
 7793TIP3   OH247573   0.496   2.560  10.624 -0.1098 -0.3671 -0.0641
 7793TIP3    H147574   0.583   2.561  10.665 -0.2320 -2.0802  0.2923
 7793TIP3    H247575   0.481   2.469  10.601 -2.0069 -0.1876  0.2893
 7794TIP3   OH247576   5.600   4.770   9.236  0.1938  0.3229  0.3182
 7794TIP3    H147577   5.653   4.733   9.306 -0.1238  0.4885  0.6463
 7794TIP3    H247578   5.620   4.715   9.160  2.3712  1.6220 -0.0973
 7795TIP3   OH247579   0.553   5.796  11.087  0.2044  0.1138  0.7606
 7795TIP3    H147580   0.618   5.827  11.024  0.2919  1.4196  1.4612
 7795TIP3    H247581   0.469   5.830  11.054  0.1617  0.2247  0.9810
 7796TIP3   OH247582   1.961   5.630  12.736 -0.3940 -0.1700 -0.5338
 7796TIP3    H147583   1.869   5.635  12.760 -0.3397 -1.1842 -0.0604
 7796TIP3    H247584   1.966   5.669  12.648 -0.8975  1.9022  0.3019
 7797TIP3   OH247585   3.488   5.409   9.664 -0.3905 -0.0383 -0.5906
 7797TIP3    H147586   3.425   5.408   9.592 -0.7979 -0.1489 -0.2388
 7797TIP3    H247587   3.511   5.501   9.673  1.0976 -0.2205 -2.0766
 7798TIP3   OH247588   6.736   1.193   9.342 -0.0784  0.4925 -0.8663
 7798TIP3    H147589   6.697   1.234   9.266  0.3842  0.5647 -1.0664
 7798TIP3    H247590   6.665   1.141   9.381  0.3784 -1.9341 -3.0085
 7799TIP3   OH247591   0.122   5.267  10.027 -0.2990  0.1899  0.2627
 7799TIP3    H147592   0.089   5.273   9.937 -2.3379 -1.0785  0.8484
 7799TIP3    H247593   0.194   5.205  10.021 -0.8656 -0.4351 -0.4204
 7800TIP3   OH247594   2.622   4.185   9.194 -0.1154 -0.8052  0.0306
 7800TIP3    H147595   2.599   4.099   9.158 -2.4598 -0.4552  0.4974
 7800TIP3    H247596   2.548   4.241   9.170  1.2116  1.0141  0.0267
 7801TIP3   OH247597   0.631   3.396  10.273  0.0817 -0.8074  0.0781
 7801TIP3    H147598   0.582   3.318  10.246  0.8784 -0.7388 -1.7513
 7801TIP3    H247599   0.567   3.467  10.269 -0.3253 -1.1466  0.4354
 7802TIP3   OH247600   3.711   5.381   9.512 -0.2622 -0.1774 -0.3632
 7802TIP3    H147601   3.780   5.335   9.558  1.2753  0.6386 -1.7501
 7802TIP3    H247602   3.631   5.361   9.562  0.4626 -3.4168 -0.3177
 7803TIP3   OH247603   3.662   4.342   9.599 -0.4351 -0.7575  0.2140
 7803TIP3    H147604   3.587   4.349   9.659  0.1813 -1.9987  1.1849
 7803TIP3    H247605   3.662   4.250   9.572  2.4205 -1.6014  2.5868
 7804TIP3   OH247606   4.591   6.103  10.683  0.2540 -0.2191 -0.0551
 7804TIP3    H147607   4.686   6.116  10.678  0.2644 -0.3945 -0.3349
 7804TIP3    H247608   4.565   6.149  10.762  0.4620  0.4468 -0.3725
 7805TIP3   OH247609   3.794   3.844  11.425  0.2227 -0.1517  0.2262
 7805TIP3    H147610   3.881   3.870  11.393 -0.4551  0.9179 -0.8206
 7805TIP3    H247611   3.768   3.914  11.484  0.3234 -0.7994  1.0669
 7806TIP3   OH247612   4.168   6.411   9.999 -0.1574  0.2007  0.6172
 7806TIP3    H147613   4.183   6.369  10.083 -1.3384 -0.1248  0.6887
 7806TIP3    H247614   4.096   6.362   9.959  1.5008 -0.7536 -1.3858
 7807TIP3   OH247615   1.517   2.857  10.289 -0.1778 -0.5062  0.0829
 7807TIP3    H147616   1.592   2.871  10.231 -0.6412  0.4525 -0.3107
 7807TIP3    H247617   1.454   2.809  10.236 -1.0397  1.2918 -0.6289
 7808TIP3   OH247618   3.956   1.379  10.417 -0.2163 -0.5251  0.1319
 7808TIP3    H147619   4.030   1.356  10.473 -0.1866 -0.5590  0.0783
 7808TIP3    H247620   3.931   1.467  10.445 -0.4122 -0.6740  0.4254
 7809TIP3   OH247621   5.749   6.668  11.176 -0.0891  0.3548  0.6308
 7809TIP3    H147622   5.836   6.651  11.141  0.3130  1.3948  1.0902
 7809TIP3    H247623   5.694   6.681  11.098  0.2732  0.2140  0.3509
 7810TIP3   OH247624   0.455   2.597   9.963 -0.2647  0.6337  0.4175
 7810TIP3    H147625   0.459   2.646  10.045 -0.7909  0.2126  0.7065
 7810TIP3    H247626   0.408   2.517   9.986 -0.1135  0.3584 -0.2225
 7811TIP3   OH247627   1.294   4.192  10.545  0.0428 -0.1446  0.2707
 7811TIP3    H147628   1.293   4.171  10.451  0.2619 -1.1013  0.4709
 7811TIP3    H247629   1.294   4.107  10.588  0.0015  0.2927  1.1449
 7812TIP3   OH247630   2.274   5.334  10.064 -0.5015  0.2589 -0.0022
 7812TIP3    H147631   2.223   5.253  10.072  1.5515 -1.1191 -0.2395
 7812TIP3    H247632   2.285   5.364  10.154 -0.9994  0.1090  0.1113
 7813TIP3   OH247633   6.786   3.332  10.171 -0.5257 -0.1451  0.3556
 7813TIP3    H147634   6.875   3.337  10.206 -0.4058  0.6504 -0.0212
 7813TIP3    H247635   6.739   3.273  10.230 -0.4911  1.5921  2.2461
 7814TIP3   OH247636   5.861   6.507  11.676 -0.5160 -0.0781  0.0597
 7814TIP3    H147637   5.904   6.507  11.762  2.0526 -1.8088 -1.0798
 7814TIP3    H247638   5.814   6.424  11.673 -0.8370  0.1083 -0.1108
 7815TIP3   OH247639   3.550   4.266  10.296 -0.1442  0.0317 -0.2127
 7815TIP3    H147640   3.487   4.201  10.264 -1.2490  0.7339  0.4639
 7815TIP3    H247641   3.632   4.244  10.251 -0.5989 -1.5323 -0.3544
 7816TIP3   OH247642   2.709   4.602  11.527 -0.0083 -0.1585  0.1545
 7816TIP3    H147643   2.717   4.514  11.490 -0.0738 -0.0830 -0.0428
 7816TIP3    H247644   2.777   4.607  11.594  1.0181  0.1832 -0.8875
 7817TIP3   OH247645   3.094   5.246  10.571 -0.2339 -0.2576  0.1837
 7817TIP3    H147646   3.047   5.325  10.545  1.1313  0.9822  1.2549
 7817TIP3    H247647   3.144   5.273  10.648  1.3618 -1.7795 -0.2562
 7818TIP3   OH247648   4.391   2.501   9.212  0.2276  0.5873 -0.1089
 7818TIP3    H147649   4.424   2.443   9.143 -2.1494  0.0962 -0.9103
 7818TIP3    H247650   4.362   2.579   9.164 -1.6576  0.1499  0.2766
 7819TIP3   OH247651   2.190   0.434  12.084 -0.0867 -0.1049  0.1710
 7819TIP3    H147652   2.272   0.400  12.049 -0.7425  0.2444 -1.8199
 7819TIP3    H247653   2.204   0.437  12.179  1.7155 -1.2636 -0.0104
 7820TIP3   OH247654   4.610   5.247  10.320  0.8065 -0.0480  1.0948
 7820TIP3    H147655   4.608   5.230  10.226  2.8221 -1.4857  1.2412
 7820TIP3    H247656   4.582   5.339  10.329  1.3814  0.3707 -0.9780
 7821TIP3   OH247657   5.029   6.178  10.376  0.0676 -0.2010  0.5026
 7821TIP3    H147658   5.020   6.090  10.413  1.3881 -0.8221 -0.5651
 7821TIP3    H247659   5.029   6.164  10.281  0.8948  0.8704  0.3230
 7822TIP3   OH247660   4.036   6.717   9.772 -0.0991  0.3153  0.0336
 7822TIP3    H147661   4.021   6.673   9.689 -1.0634  0.2555  0.2349
 7822TIP3    H247662   3.966   6.685   9.829  0.2276  0.7781  0.7059
 7823TIP3   OH247663   6.660   5.127   8.861  0.2482  0.0451  0.4928
 7823TIP3    H147664   6.602   5.147   8.787 -0.9330 -0.2698  1.3176
 7823TIP3    H247665   6.718   5.203   8.866  0.7455 -0.1881 -1.1170
 7824TIP3   OH247666   0.189   1.718  10.942  0.3848  0.7974 -0.1036
 7824TIP3    H147667   0.136   1.648  10.904 -0.4340  2.2044 -1.6644
 7824TIP3    H247668   0.275   1.708  10.901  0.6182  0.0168  0.5597
 7825TIP3   OH247669   3.790   5.098  10.320 -0.2505 -0.2622  0.3805
 7825TIP3    H147670   3.780   5.121  10.228  1.2174 -0.5300  0.1237
 7825TIP3    H247671   3.750   5.011  10.327 -0.1519 -0.3447 -0.0567
 7826TIP3   OH247672   2.620   5.942  11.942 -0.1744 -0.2133 -0.4372
 7826TIP3    H147673   2.616   5.991  12.023  1.3585 -0.1740 -0.3482
 7826TIP3    H247674   2.643   5.853  11.969 -1.8767 -0.7613 -0.6789
 7827TIP3   OH247675   3.075   4.614   8.702 -0.7568 -0.4480  0.3260
 7827TIP3    H147676   3.114   4.633   8.787 -1.1443  0.9900  0.2173
 7827TIP3    H247677   3.148   4.587   8.647 -0.3301 -0.3168  0.8259
 7828TIP3   OH247678   4.364   6.010  11.207  0.2537  0.6398  0.2605
 7828TIP3    H147679   4.271   6.017  11.229  0.2695  2.7296 -0.2039
 7828TIP3    H247680   4.367   6.015  11.111  0.7287 -1.5448  0.0992
 7829TIP3   OH247681   2.645   1.781  10.883  0.3508 -0.3604  0.1483
 7829TIP3    H147682   2.709   1.764  10.814  1.4143  1.6681  0.5526
 7829TIP3    H247683   2.696   1.778  10.965 -0.4507 -0.5934  0.6526
 7830TIP3   OH247684   3.896   5.686  12.003  0.0893  0.6371 -0.2757
 7830TIP3    H147685   3.943   5.763  12.034 -0.2496  0.1938  1.4791
 7830TIP3    H247686   3.960   5.636  11.952  0.7347  1.3318 -0.1529
 7831TIP3   OH247687   1.982   2.522  11.887  0.7980 -0.4482 -0.1088
 7831TIP3    H147688   1.942   2.547  11.970 -1.6352  0.0817 -1.3219
 7831TIP3    H247689   2.060   2.576  11.879  0.6167  0.0728  1.4529
 7832TIP3   OH247690   5.523   3.396   8.642 -0.4403  0.6018 -0.3683
 7832TIP3    H147691   5.479   3.453   8.579 -1.0359  0.1804 -0.3369
 7832TIP3    H247692   5.558   3.324   8.589 -0.1567  0.7157 -0.3363
 7833TIP3   OH247693   5.969   6.172  12.256 -0.4877  0.4057  0.3312
 7833TIP3    H147694   5.905   6.224  12.208 -0.0637  0.7497  0.1413
 7833TIP3    H247695   5.963   6.085  12.217 -0.5505  0.5392  0.0454
 7834TIP3   OH247696   2.394   5.264  11.346  0.1942 -0.2961 -0.4274
 7834TIP3    H147697   2.468   5.325  11.349  0.0510 -0.1864  1.4540
 7834TIP3    H247698   2.321   5.317  11.313  0.4467  0.1399 -0.2964
 7835TIP3   OH247699   2.930   5.992  12.279 -0.1433 -0.3872  0.0319
 7835TIP3    H147700   2.945   6.049  12.355  0.0840 -0.3950 -0.0059
 7835TIP3    H247701   2.968   5.908  12.305  0.2047 -0.3039 -0.2076
 7836TIP3   OH247702   3.551   4.637  10.299  0.1209 -0.1578 -0.9473
 7836TIP3    H147703   3.543   4.698  10.225 -0.7693  0.9082 -0.0157
 7836TIP3    H247704   3.563   4.551  10.259  0.9981  0.5709 -2.3137
 7837TIP3   OH247705   6.409   5.668   9.264  0.2808 -0.3722 -0.4059
 7837TIP3    H147706   6.421   5.651   9.170 -1.8628  0.3104 -0.8556
 7837TIP3    H247707   6.357   5.748   9.267 -0.0500 -0.6138  1.3742
 7838TIP3   OH247708   1.177   4.803   9.687  0.9087  0.5921  0.3567
 7838TIP3    H147709   1.145   4.872   9.745  0.0400 -1.2528  2.2116
 7838TIP3    H247710   1.243   4.757   9.739  1.1236 -0.2550 -0.6340
 7839TIP3   OH247711   5.368   0.307  11.439 -0.0138 -0.0102 -0.2048
 7839TIP3    H147712   5.426   0.353  11.378  1.1334 -0.3777  0.5565
 7839TIP3    H247713   5.377   0.355  11.522 -0.9042 -0.0085 -0.1020
 7840TIP3   OH247714   2.867   1.720   9.639 -0.2172 -0.4128 -0.0818
 7840TIP3    H147715   2.789   1.762   9.603  0.1438 -0.2545 -0.7008
 7840TIP3    H247716   2.834   1.660   9.706 -0.9102 -0.7332 -0.7033
 7841TIP3   OH247717   5.225   3.820   9.090  0.0971 -0.4317 -0.3531
 7841TIP3    H147718   5.143   3.802   9.043  0.2202 -1.1569 -0.3062
 7841TIP3    H247719   5.210   3.904   9.133 -0.2066  0.0002 -1.2752
 7842TIP3   OH247720   3.045   5.417   9.180 -0.2791  0.2699 -0.1189
 7842TIP3    H147721   3.047   5.322   9.194  0.5569  0.5164  1.8035
 7842TIP3    H247722   3.136   5.441   9.165 -0.3742  0.8728  0.2465
 7843TIP3   OH247723   4.911   4.712  10.300 -0.4471 -0.5634 -0.1718
 7843TIP3    H147724   4.994   4.668  10.282 -0.7719 -0.9579 -0.7084
 7843TIP3    H247725   4.900   4.773  10.227 -0.4663 -0.2540  0.0823
 7844TIP3   OH247726   4.717   1.453   8.932  0.2805  0.4256 -0.0579
 7844TIP3    H147727   4.753   1.421   8.850 -1.0640 -1.6030  0.0756
 7844TIP3    H247728   4.729   1.381   8.994  1.2978  1.9173  1.5798
 7845TIP3   OH247729   4.149   2.432   8.871 -0.3741  0.2018 -0.7043
 7845TIP3    H147730   4.148   2.468   8.782 -0.8537  0.5652 -0.5557
 7845TIP3    H247731   4.122   2.505   8.926  1.6288  0.5188 -0.0534
 7846TIP3   OH247732   2.808   6.784  10.454 -0.0985 -0.3124 -0.4978
 7846TIP3    H147733   2.857   6.725  10.397  0.4082 -1.3769  0.9678
 7846TIP3    H247734   2.743   6.825  10.397  0.9309 -0.6907 -1.9889
 7847TIP3   OH247735   5.553   2.000  10.769 -0.6667  0.0723 -0.9331
 7847TIP3    H147736   5.472   1.996  10.819 -0.6003 -1.0628 -0.8897
 7847TIP3    H247737   5.551   2.086  10.727 -1.7655  0.1608 -0.7313
 7848TIP3   OH247738   6.382   1.478   8.997  0.2803  0.1701 -0.3883
 7848TIP3    H147739   6.404   1.412   8.932 -0.8203 -0.7472  0.1286
 7848TIP3    H247740   6.297   1.512   8.969  0.9366  1.5644 -0.7784
 7849TIP3   OH247741   1.495   1.771  10.477 -0.4116  0.2275  0.0364
 7849TIP3    H147742   1.451   1.761  10.392  0.0229  0.4640 -0.2211
 7849TIP3    H247743   1.439   1.830  10.526  0.4155  1.8425 -0.8770
 7850TIP3   OH247744   1.754   4.085  10.033 -0.2660  0.3874 -0.2483
 7850TIP3    H147745   1.756   4.170   9.990 -0.2474  0.3613 -0.2993
 7850TIP3    H247746   1.696   4.032   9.979 -1.1075  0.6749  0.3562
 7851TIP3   OH247747   4.398   6.546  10.213  0.0323  0.8385  0.5629
 7851TIP3    H147748   4.420   6.497  10.134 -0.2208 -1.8488  2.0077
 7851TIP3    H247749   4.483   6.576  10.247  0.6196 -1.2240  1.1211
 7852TIP3   OH247750   5.501   4.046  10.353 -0.4192  0.5610  0.4914
 7852TIP3    H147751   5.407   4.031  10.348 -0.4219 -0.6068  2.8394
 7852TIP3    H247752   5.540   3.959  10.350  0.3475  0.7813  2.4583
 7853TIP3   OH247753   1.743   2.189   9.111 -0.2772  0.1336 -0.1289
 7853TIP3    H147754   1.797   2.111   9.127  0.0596  0.6036  1.2034
 7853TIP3    H247755   1.711   2.213   9.198 -1.7100  0.5454 -0.7370
 7854TIP3   OH247756   5.554   4.663   9.524 -0.3400  0.8356 -0.1110
 7854TIP3    H147757   5.564   4.585   9.579  0.2521  1.1722  0.2749
 7854TIP3    H247758   5.476   4.646   9.472  0.5709 -0.6531 -1.0783
 7855TIP3   OH247759   3.078   2.585  11.346 -0.3149  0.6592 -0.0828
 7855TIP3    H147760   3.085   2.515  11.411 -0.2071  0.4822 -0.2839
 7855TIP3    H247761   2.996   2.566  11.300 -1.0521  1.5002  0.8365
 7856TIP3   OH247762   2.706   1.987  11.151 -0.4096  0.4732 -0.1838
 7856TIP3    H147763   2.674   1.970  11.240  1.3639  0.3346  0.4598
 7856TIP3    H247764   2.660   2.067  11.124 -3.3060 -1.1198 -0.4062
 7857TIP3   OH247765   4.022   0.991   8.870  0.2276 -0.1583 -0.4162
 7857TIP3    H147766   4.107   0.957   8.843  0.3910  0.9888 -1.4438
 7857TIP3    H247767   4.030   1.086   8.860 -1.0598 -0.0061 -0.1838
 7858TIP3   OH247768   2.930   1.985   9.712  0.4423  0.2041  0.2304
 7858TIP3    H147769   3.016   1.956   9.680  0.3939  1.8394 -1.5879
 7858TIP3    H247770   2.870   1.916   9.686  1.0843 -0.6289  0.8901
 7859TIP3   OH247771   2.008   6.002  11.304 -0.1906  0.2931 -0.1188
 7859TIP3    H147772   1.955   6.032  11.231 -0.5271 -0.8928 -0.3792
 7859TIP3    H247773   1.990   5.908  11.310  1.1903  0.0398  0.3575
 7860TIP3   OH247774   3.810   3.995   9.409 -0.3592 -0.9918  0.4205
 7860TIP3    H147775   3.854   4.072   9.375 -0.3556 -1.2981 -0.2832
 7860TIP3    H247776   3.736   4.029   9.459  1.2274 -0.4138  2.5302
 7861TIP3   OH247777   2.575   0.955   9.145 -0.8486 -0.0842 -0.7793
 7861TIP3    H147778   2.604   0.958   9.236  0.7743 -0.3635 -1.2515
 7861TIP3    H247779   2.579   0.863   9.121  0.1111  0.1403 -1.5355
 7862TIP3   OH247780   6.276   5.522  10.493  0.1674  0.0529 -0.3448
 7862TIP3    H147781   6.253   5.438  10.533  0.3707 -0.6163 -1.5819
 7862TIP3    H247782   6.221   5.527  10.415  0.6695  0.7454 -0.6623
 7863TIP3   OH247783   4.006   5.244  12.040  0.4296 -0.0015  0.4240
 7863TIP3    H147784   3.977   5.283  12.122 -0.6628 -0.1904  0.1436
 7863TIP3    H247785   3.973   5.304  11.972 -0.2844 -0.8121  0.0410
 7864TIP3   OH247786   2.086   2.135   9.397 -0.7128 -0.4295  0.9674
 7864TIP3    H147787   2.010   2.080   9.378 -0.6948 -0.3668  0.7019
 7864TIP3    H247788   2.062   2.221   9.363 -0.4091 -0.4806  0.6162
 7865TIP3   OH247789   5.771   3.772   9.463 -0.4417 -0.3917  0.2175
 7865TIP3    H147790   5.677   3.773   9.484 -0.1867  2.0255  1.5926
 7865TIP3    H247791   5.813   3.739   9.542 -0.0293  0.3887  0.3347
 7866TIP3   OH247792   0.546   4.199   8.925 -0.1820 -0.1697  0.2571
 7866TIP3    H147793   0.621   4.194   8.985 -0.2770  1.9860  0.6387
 7866TIP3    H247794   0.493   4.122   8.946  0.4186 -0.1314  2.1102
 7867TIP3   OH247795   1.758   2.945  11.411 -0.1950 -0.1119 -0.2182
 7867TIP3    H147796   1.803   2.890  11.474  0.0632  1.5206  1.0867
 7867TIP3    H247797   1.766   2.898  11.328  2.0629 -0.8831  0.3702
 7868TIP3   OH247798   3.782   5.641   9.553  0.3022  0.1888 -0.1177
 7868TIP3    H147799   3.854   5.587   9.584  0.7130  0.9741  0.3122
 7868TIP3    H247800   3.717   5.578   9.520  0.3368 -0.6170  1.2785
 7869TIP3   OH247801   4.687   5.274  11.912 -0.4467  0.7633 -0.6127
 7869TIP3    H147802   4.654   5.203  11.967 -1.4650 -0.3360 -2.5297
 7869TIP3    H247803   4.723   5.338  11.974 -2.5437  0.1450  1.3902
 7870TIP3   OH247804   6.025   6.558  11.086  0.0220 -0.3323 -0.2972
 7870TIP3    H147805   6.097   6.548  11.147  1.1874  1.7478 -1.2204
 7870TIP3    H247806   6.067   6.573  11.001 -1.5218 -0.6252 -1.1612
 7871TIP3   OH247807   2.275   2.025   8.506 -0.3762 -0.2140  0.0655
 7871TIP3    H147808   2.267   2.077   8.427  1.7161  1.9973  1.1606
 7871TIP3    H247809   2.258   2.086   8.578  1.2619 -1.1958  1.3893
 7872TIP3   OH247810   3.967   4.790  11.133 -0.3428 -0.2630 -0.1080
 7872TIP3    H147811   3.987   4.853  11.202 -0.0500 -1.4670  0.9378
 7872TIP3    H247812   4.042   4.795  11.074  0.4960 -0.8105  0.8716
 7873TIP3   OH247813   2.444   1.729   8.940 -0.0368  0.1786 -0.2374
 7873TIP3    H147814   2.449   1.751   8.847  0.5907  0.2685 -0.1873
 7873TIP3    H247815   2.379   1.659   8.945 -1.7693  1.6828 -0.4464
 7874TIP3   OH247816   3.425   3.523  12.479  0.0999  0.4302  0.2761
 7874TIP3    H147817   3.494   3.586  12.499 -0.0981  1.4879 -2.0044
 7874TIP3    H247818   3.438   3.502  12.387 -0.9918 -1.4501  0.5024
 7875TIP3   OH247819   2.387   3.977  11.530 -0.3572  0.8481 -0.6238
 7875TIP3    H147820   2.349   3.945  11.612  1.6375 -0.6818 -0.2011
 7875TIP3    H247821   2.341   3.927  11.462 -0.0160 -0.0669 -0.2097
 7876TIP3   OH247822   1.403   4.010  11.859 -0.3936 -0.3258  0.0795
 7876TIP3    H147823   1.377   4.099  11.883  0.4147  0.2439 -1.0451
 7876TIP3    H247824   1.358   3.954  11.922 -1.1576  0.8543  0.6236
 7877TIP3   OH247825   3.473   1.493  10.610  0.1596  0.5172 -0.4254
 7877TIP3    H147826   3.418   1.452  10.543 -0.4392  0.9935 -0.2380
 7877TIP3    H247827   3.515   1.420  10.655 -1.2199  0.0727  0.1985
 7878TIP3   OH247828   6.629   2.472   8.955  0.0645  0.0075  0.0079
 7878TIP3    H147829   6.689   2.428   9.015 -1.2776 -1.3285  0.4495
 7878TIP3    H247830   6.663   2.451   8.868  0.1348 -0.9332  0.2451
 7879TIP3   OH247831   3.955   1.710   8.864  0.3091  0.2044  0.0702
 7879TIP3    H147832   4.025   1.771   8.840  0.7769 -0.5964 -0.6709
 7879TIP3    H247833   3.906   1.697   8.783 -0.3452  0.2961  0.4447
 7880TIP3   OH247834   5.197   0.897   9.445 -0.1121 -0.0114  0.0841
 7880TIP3    H147835   5.244   0.974   9.478 -0.5132  0.1407  0.3039
 7880TIP3    H247836   5.221   0.893   9.352  0.8701 -0.3294  0.3367
 7881TIP3   OH247837   2.544   3.185  12.251 -0.2389  0.0945 -0.1126
 7881TIP3    H147838   2.580   3.259  12.299 -2.3214  0.2954  1.2542
 7881TIP3    H247839   2.470   3.222  12.203  0.9859 -0.3749 -2.5677
 7882TIP3   OH247840   1.473   5.693   9.901 -0.0765  0.9607 -0.4684
 7882TIP3    H147841   1.422   5.673   9.979 -0.4908  1.3626 -0.6305
 7882TIP3    H247842   1.559   5.718   9.934 -0.0210  0.4089 -0.1845
 7883TIP3   OH247843   0.023   3.114   8.402 -0.0905 -0.5423  0.1198
 7883TIP3    H147844   0.093   3.140   8.342  0.0043 -1.0985 -0.0132
 7883TIP3    H247845   0.040   3.166   8.481  0.8085 -1.0787  0.2921
 7884TIP3   OH247846   4.437   3.245  10.863 -0.2074  0.7053  0.0540
 7884TIP3    H147847   4.486   3.246  10.945 -2.7149 -0.4507  1.6929
 7884TIP3    H247848   4.447   3.334  10.828  2.3254  0.7422  0.6328
 7885TIP3   OH247849   2.243   6.259   9.951  0.2956 -0.3548 -0.4709
 7885TIP3    H147850   2.316   6.198   9.962  0.5673  0.0993  0.3154
 7885TIP3    H247851   2.245   6.282   9.858  2.1290  0.8505 -0.1743
 7886TIP3   OH247852   1.925   6.015   8.981  0.1942 -0.4148 -0.2775
 7886TIP3    H147853   1.932   6.091   8.923  0.1199  0.7901  1.2262
 7886TIP3    H247854   1.846   6.031   9.032  0.0984 -1.5892 -0.0348
 7887TIP3   OH247855   3.103   4.187  12.145 -0.2792  0.7361  0.5740
 7887TIP3    H147856   3.152   4.128  12.088  2.0509 -0.3769  3.4704
 7887TIP3    H247857   3.111   4.272  12.102 -1.2234 -0.4515 -2.2126
 7888TIP3   OH247858   3.085   3.771   8.650  0.5364 -0.0121 -0.4620
 7888TIP3    H147859   3.013   3.816   8.605  1.1416  0.2033 -1.2372
 7888TIP3    H247860   3.042   3.703   8.701 -0.3284  0.9491  0.1331
 7889TIP3   OH247861   5.036   6.728   9.771  0.2164 -0.0789 -0.6223
 7889TIP3    H147862   5.006   6.640   9.794 -1.2476  0.3374 -0.8360
 7889TIP3    H247863   5.038   6.775   9.854 -0.3512  0.0555 -0.6757
 7890TIP3   OH247864   2.612   1.722   8.666 -0.0840 -0.0946 -0.8594
 7890TIP3    H147865   2.695   1.724   8.713 -0.3111 -0.3165 -0.4373
 7890TIP3    H247866   2.622   1.786   8.596  0.7561 -0.7511 -1.3508
 7891TIP3   OH247867   3.335   5.744  11.391  0.4825  0.4047 -0.7589
 7891TIP3    H147868   3.316   5.651  11.379  0.6339  0.2995 -0.2134
 7891TIP3    H247869   3.420   5.746  11.435 -0.1045  0.7515  0.4106
 7892TIP3   OH247870   5.901   6.314  10.367 -0.4903  0.6028 -0.4871
 7892TIP3    H147871   5.873   6.278  10.283 -2.0856 -0.5023  0.4626
 7892TIP3    H247872   5.976   6.259  10.392 -1.0949 -0.1984 -0.4011
 7893TIP3   OH247873   2.495   5.450  10.857  0.2606 -0.0104 -0.1633
 7893TIP3    H147874   2.575   5.502  10.845  0.8459 -1.0445 -0.9482
 7893TIP3    H247875   2.474   5.418  10.769 -2.3441  2.0493 -0.3969
 7894TIP3   OH247876   2.351   1.095   9.068 -0.0279 -0.0881 -0.5589
 7894TIP3    H147877   2.386   1.169   9.018  1.7581 -2.2858 -2.7547
 7894TIP3    H247878   2.428   1.044   9.093 -1.3197 -3.0558 -2.1544
 7895TIP3   OH247879   6.470   4.678  10.698 -0.6727  0.4468  0.1934
 7895TIP3    H147880   6.444   4.638  10.781 -2.8065  0.6659 -0.3018
 7895TIP3    H247881   6.456   4.609  10.633 -0.1113  0.6357 -0.1343
 7896TIP3   OH247882   6.743   4.421  11.420 -0.5185 -0.8352  0.2556
 7896TIP3    H147883   6.677   4.351  11.419 -1.6944  0.2523 -0.7492
 7896TIP3    H247884   6.747   4.452  11.330  0.4319 -0.0078  0.5658
 7897TIP3   OH247885   2.269   4.516  11.755  0.2724  0.4644  0.5343
 7897TIP3    H147886   2.241   4.426  11.769 -1.5494  1.0106  0.6302
 7897TIP3    H247887   2.333   4.532  11.824 -1.2746  0.0299  2.1312
 7898TIP3   OH247888   1.701   1.066   9.892 -0.1825 -0.1088 -0.7066
 7898TIP3    H147889   1.772   1.104   9.840  0.5161 -0.0055  0.2867
 7898TIP3    H247890   1.743   0.994   9.940 -0.7632 -0.1032 -0.1765
 7899TIP3   OH247891   1.295   5.673  10.105  0.2097 -0.4584  0.0693
 7899TIP3    H147892   1.297   5.767  10.125  2.0064 -0.5562  0.5255
 7899TIP3    H247893   1.290   5.631  10.191  0.6543 -0.7946 -0.0677
 7900TIP3   OH247894   6.745   2.552  10.222 -0.1832  0.3817  0.5894
 7900TIP3    H147895   6.699   2.631  10.249  0.9107  1.0034  0.6645
 7900TIP3    H247896   6.756   2.501  10.302 -0.9101  0.1260  0.5360
 7901TIP3   OH247897   2.866   3.973  11.916 -0.0748 -0.7432 -0.9646
 7901TIP3    H147898   2.792   3.942  11.863 -1.1187 -0.7651  0.4531
 7901TIP3    H247899   2.904   4.044  11.864 -2.0049  0.2651 -1.1062
 7902TIP3   OH247900   3.099   5.725  12.249  0.1885 -0.1584 -0.6294
 7902TIP3    H147901   3.052   5.690  12.173 -2.1833  0.0743  0.6429
 7902TIP3    H247902   3.178   5.670  12.255 -0.2312 -1.0417 -2.4413
 7903TIP3   OH247903   3.829   4.641  12.372 -0.5649  0.3358 -0.4830
 7903TIP3    H147904   3.760   4.708  12.375 -1.6073 -0.7104 -0.0355
 7903TIP3    H247905   3.869   4.644  12.459 -0.3141  0.6760 -0.6096
 7904TIP3   OH247906   5.690   4.371   9.109  0.0997  1.0298  0.2119
 7904TIP3    H147907   5.652   4.363   9.197 -1.0408  1.6431 -0.1992
 7904TIP3    H247908   5.615   4.362   9.050  0.9553 -0.1059 -0.7389
 7905TIP3   OH247909   0.676   0.680   9.389 -0.0505 -0.0412 -0.1241
 7905TIP3    H147910   0.743   0.742   9.359 -1.1320  1.2081 -0.0461
 7905TIP3    H247911   0.609   0.683   9.321 -0.2854 -0.8505  0.0686
 7906TIP3   OH247912   6.704   4.996  10.959 -0.3046 -0.0622  0.1934
 7906TIP3    H147913   6.783   4.970  10.910 -0.5463  0.5856 -0.5554
 7906TIP3    H247914   6.632   4.978  10.899 -0.6533  0.2261  0.5265
 7907TIP3   OH247915   2.837   5.879  17.075 -0.1125  0.5946  0.4543
 7907TIP3    H147916   2.750   5.845  17.097 -1.2642  1.0939 -2.7600
 7907TIP3    H247917   2.829   5.974  17.084 -0.5789  0.8045 -1.5978
 7908TIP3   OH247918   1.306   3.779  11.384 -0.2027 -0.4717 -0.0611
 7908TIP3    H147919   1.316   3.834  11.461  1.8609 -0.0232 -0.5841
 7908TIP3    H247920   1.297   3.690  11.418 -1.2381 -0.0816  0.7223
 7909TIP3   OH247921   6.649   5.494  11.777 -0.0114  0.0903 -0.0927
 7909TIP3    H147922   6.596   5.536  11.844  0.7165  0.5626  0.2081
 7909TIP3    H247923   6.593   5.426  11.740 -1.4039  1.6341 -0.9440
 7910TIP3   OH247924   3.892   5.825  11.436 -0.4728  0.5121 -0.5241
 7910TIP3    H147925   3.978   5.866  11.430 -1.1038  1.8447 -0.6766
 7910TIP3    H247926   3.830   5.894  11.412 -1.4880 -0.9343 -2.2935
 7911TIP3   OH247927   5.068   3.354   8.411  0.3091  0.2367  0.3273
 7911TIP3    H147928   5.052   3.327   8.320  0.1958 -3.2786  1.2370
 7911TIP3    H247929   5.160   3.380   8.412  0.4239 -0.0630 -0.7030
 7912TIP3   OH247930   6.682   4.883   9.835 -0.6702 -0.3148 -0.1124
 7912TIP3    H147931   6.768   4.884   9.793 -0.2330 -1.0671  0.7394
 7912TIP3    H247932   6.669   4.792   9.861 -2.1149 -0.3966 -0.9816
 7913TIP3   OH247933   2.921   0.132  10.680  0.0149 -0.1914 -0.5459
 7913TIP3    H147934   2.849   0.138  10.616 -1.5812  0.4454  1.2094
 7913TIP3    H247935   2.905   0.204  10.741  1.7839 -0.4638  0.2916
 7914TIP3   OH247936   5.461   3.457  10.006  0.6149 -0.2011  0.1999
 7914TIP3    H147937   5.410   3.503  10.073  0.4152 -1.4793  0.9585
 7914TIP3    H247938   5.541   3.430  10.051  0.4748 -1.0887 -0.0644
 7915TIP3   OH247939   3.615   6.344  10.169  0.1709  0.0619 -0.4243
 7915TIP3    H147940   3.542   6.301  10.215  0.5810  0.7876  0.9787
 7915TIP3    H247941   3.579   6.428  10.140  0.7951  1.1185  1.6394
 7916TIP3   OH247942   4.020   6.480  10.500  0.6068 -0.3023  0.2239
 7916TIP3    H147943   3.996   6.569  10.475  1.5751  0.2216  1.0739
 7916TIP3    H247944   4.114   6.475  10.482  0.3956 -1.4397 -0.6090
 7917TIP3   OH247945   2.923   5.287  11.309 -0.2314 -0.2651  0.1147
 7917TIP3    H147946   2.912   5.265  11.401 -0.0407 -1.4773 -0.1409
 7917TIP3    H247947   2.883   5.215  11.261 -1.5911  1.0073 -0.7759
 7918TIP3   OH247948   0.678   6.321   8.446 -0.1010  0.0539 -0.0657
 7918TIP3    H147949   0.708   6.231   8.460 -0.0422  0.0518 -0.2018
 7918TIP3    H247950   0.610   6.335   8.512 -0.0744 -0.0735 -0.0132
 7919TIP3   OH247951   1.115   4.440  11.488 -0.4375 -0.0696 -0.0008
 7919TIP3    H147952   1.150   4.499  11.555 -0.4884 -0.1605  0.1049
 7919TIP3    H247953   1.193   4.401  11.448 -0.3103  1.3588 -1.2521
 7920TIP3   OH247954   0.004   4.530  12.211 -0.2548 -0.2201  0.0452
 7920TIP3    H147955  -0.050   4.585  12.155  1.4305  0.0832 -1.3674
 7920TIP3    H247956   0.089   4.575  12.213  1.1308 -2.6099 -0.9903
 7921TIP3   OH247957   0.875   3.417   9.960 -0.0509 -0.2119 -0.2490
 7921TIP3    H147958   0.936   3.398  10.031  0.3515  2.0326  0.0841
 7921TIP3    H247959   0.918   3.382   9.882  2.5312  2.6007 -0.2711
 7922TIP3   OH247960   2.213   3.236  11.648  0.0487 -0.2919 -0.5863
 7922TIP3    H147961   2.190   3.291  11.723 -0.5436  0.1262 -1.0663
 7922TIP3    H247962   2.159   3.158  11.657 -0.5654  0.0803 -0.9631
 7923TIP3   OH247963   2.391   2.702  11.552  0.1520 -0.0649 -0.2159
 7923TIP3    H147964   2.355   2.631  11.605  0.2383  1.0954  1.4858
 7923TIP3    H247965   2.473   2.726  11.597  0.4428  0.6932 -1.1152
 7924TIP3   OH247966   1.640   2.715   8.746 -0.0919  0.2452  0.1182
 7924TIP3    H147967   1.731   2.686   8.750 -0.2262 -0.2634 -0.3234
 7924TIP3    H247968   1.601   2.662   8.676 -1.1332 -0.6692  1.3335
 7925TIP3   OH247969   0.122   1.802   9.041 -0.1755  0.5343  0.1577
 7925TIP3    H147970   0.124   1.876   9.102  0.3550 -0.1249  0.9677
 7925TIP3    H247971   0.211   1.797   9.006  0.2546 -0.7106  1.3578
 7926TIP3   OH247972   2.343   1.107   9.356  0.3737  0.6221 -1.3021
 7926TIP3    H147973   2.274   1.169   9.381 -0.5421 -1.0007  0.4796
 7926TIP3    H247974   2.323   1.085   9.265 -1.5036  0.2307 -0.8508
 7927TIP3   OH247975   5.689   3.599   8.740 -0.0691  0.2434 -0.0336
 7927TIP3    H147976   5.610   3.584   8.793 -1.2808  1.9775 -1.2539
 7927TIP3    H247977   5.672   3.551   8.659  0.5914 -0.2054  0.0934
 7928TIP3   OH247978   3.134   5.831  10.826 -0.3856 -0.6773 -0.3540
 7928TIP3    H147979   3.181   5.756  10.789 -0.3610 -1.0693  0.4471
 7928TIP3    H247980   3.119   5.808  10.917 -2.5616 -0.7721 -0.6697
 7929TIP3   OH247981   4.761   0.407   8.890 -0.1689  0.8184  0.3685
 7929TIP3    H147982   4.741   0.352   8.815 -1.8363  0.5875  0.9505
 7929TIP3    H247983   4.693   0.386   8.954  2.0316 -0.0988  2.5561
 7930TIP3   OH247984   0.054   5.902   9.863  0.2406 -0.2623 -0.2186
 7930TIP3    H147985   0.147   5.914   9.882  0.5855  0.0888 -2.0195
 7930TIP3    H247986   0.040   5.808   9.869  0.9249 -0.4100 -0.8656
 7931TIP3   OH247987   2.160   0.954  10.734 -0.4795  0.1488  0.1845
 7931TIP3    H147988   2.114   1.030  10.769 -1.0627 -0.2914  0.3949
 7931TIP3    H247989   2.128   0.881  10.787  0.0663 -0.2444 -0.0221
 7932TIP3   OH247990   4.761   6.003   9.609 -0.4041 -0.3260  0.1775
 7932TIP3    H147991   4.752   6.053   9.528 -0.8823 -1.1163 -0.2719
 7932TIP3    H247992   4.672   6.000   9.645 -0.4183 -1.0628  0.0760
 7933TIP3   OH247993   5.042   1.726   9.041 -0.1765 -0.2022 -0.6801
 7933TIP3    H147994   5.038   1.806   8.988  0.2645 -0.6596 -1.4248
 7933TIP3    H247995   4.953   1.715   9.074 -0.0358  1.1059  0.2117
 7934TIP3   OH247996   4.086   6.587  11.245 -0.3405 -0.1499 -0.4548
 7934TIP3    H147997   4.170   6.541  11.245 -0.0465  0.3793 -0.2655
 7934TIP3    H247998   4.067   6.603  11.337 -0.8008 -0.5286 -0.4806
 7935TIP3   OH247999   4.514   6.229  11.001  0.1012 -0.5135 -0.5294
 7935TIP3    H148000   4.539   6.146  11.042  0.1854 -0.0634  0.3565
 7935TIP3    H248001   4.597   6.271  10.977  0.1289 -0.1008  0.2349
 7936TIP3   OH248002   3.431   2.982  11.216  0.0150  0.5563  0.7127
 7936TIP3    H148003   3.345   2.994  11.175  0.1278  2.0877  0.8629
 7936TIP3    H248004   3.411   2.947  11.303 -0.3990 -0.0079  0.3909
 7937TIP3   OH248005   3.957   2.951  11.646 -0.4422 -0.4427 -0.2427
 7937TIP3    H148006   3.992   2.955  11.735  0.0419  1.5556 -0.4804
 7937TIP3    H248007   4.035   2.948  11.590 -0.7284 -0.2601 -0.6512
 7938TIP3   OH248008   2.094   1.012  10.429 -0.0460  0.2518 -0.6054
 7938TIP3    H148009   2.033   0.945  10.460 -0.3433  0.6703 -0.2660
 7938TIP3    H248010   2.140   0.971  10.356 -1.3776  0.2144 -1.4634
 7939TIP3   OH248011   0.151   2.272  10.319 -0.3225 -0.3187  0.1140
 7939TIP3    H148012   0.100   2.191  10.317 -0.7248 -0.0822  0.6296
 7939TIP3    H248013   0.103   2.329  10.379 -0.2406  0.4430 -0.5392
 7940TIP3   OH248014   1.733   0.740   9.711  0.4350  0.2328 -0.3410
 7940TIP3    H148015   1.685   0.698   9.640 -0.0956  0.8181 -0.3423
 7940TIP3    H248016   1.725   0.834   9.692  0.0886  0.4060  0.6132
 7941TIP3   OH248017   0.951   6.732   9.989 -0.4771  0.1491  0.2556
 7941TIP3    H148018   0.909   6.662  10.039  0.6661  0.1537  1.2543
 7941TIP3    H248019   1.036   6.696   9.964 -0.1339  0.9452  0.2352
 7942TIP3   OH248020   5.887   3.395   9.008 -0.2888 -0.4802  0.2214
 7942TIP3    H148021   5.979   3.377   9.024 -0.5643 -1.2144  1.0242
 7942TIP3    H248022   5.883   3.416   8.915  0.7016 -0.3354  0.2035
 7943TIP3   OH248023   3.243   4.003  11.953 -0.4052 -0.4258 -0.2940
 7943TIP3    H148024   3.303   3.953  12.008  0.6873  0.0349 -1.0320
 7943TIP3    H248025   3.187   3.937  11.912 -0.3588 -0.8644  0.3274
 7944TIP3   OH248026   2.792   4.208  10.613  0.1163  0.2785  0.3340
 7944TIP3    H148027   2.842   4.229  10.692 -1.3518  2.2330  0.8252
 7944TIP3    H248028   2.799   4.113  10.605  1.0367  0.1313  2.3094
 7945TIP3   OH248029   6.249   2.536   8.691 -0.0966  0.1140  0.4651
 7945TIP3    H148030   6.330   2.557   8.645  0.0350  0.5099  0.8691
 7945TIP3    H248031   6.259   2.578   8.777 -0.1950 -0.8847  0.9774
 7946TIP3   OH248032   1.301   4.808  12.232  0.1526 -0.4578  0.5143
 7946TIP3    H148033   1.364   4.778  12.298  0.9223 -0.7589 -0.3285
 7946TIP3    H248034   1.300   4.738  12.166  1.0731  0.7827 -0.8864
 7947TIP3   OH248035   6.739   4.167  11.661 -0.2723  0.0195  0.4538
 7947TIP3    H148036   6.678   4.148  11.590  0.3395 -2.0283  0.4139
 7947TIP3    H248037   6.823   4.182  11.616 -0.3388  0.9552  0.6254
 7948TIP3   OH248038   2.297   5.395   9.018 -0.1508  0.4779  0.5679
 7948TIP3    H148039   2.242   5.401   8.940  0.1992  0.0126  0.2755
 7948TIP3    H248040   2.369   5.456   9.001 -1.5299  2.5396  1.7817
 7949TIP3   OH248041   1.127   5.851   8.593  0.4288  0.2872 -0.1384
 7949TIP3    H148042   1.160   5.761   8.587 -0.5824 -0.0753 -0.4548
 7949TIP3    H248043   1.173   5.897   8.522  1.9017  0.3627  0.8067
 7950TIP3   OH248044   3.606   2.760  11.442  0.0192 -0.0842 -0.3868
 7950TIP3    H148045   3.561   2.840  11.468  0.0916 -0.5134  1.1913
 7950TIP3    H248046   3.677   2.750  11.507  1.3461 -0.3130 -1.8088
 7951TIP3   OH248047   2.879   2.652   9.073  0.2806  0.3013 -0.2790
 7951TIP3    H148048   2.949   2.607   9.121 -0.8050 -0.6640  0.4289
 7951TIP3    H248049   2.903   2.639   8.981 -1.3547 -4.2867 -0.3367
 7952TIP3   OH248050   2.012   6.758   9.850 -0.2480 -0.0906  0.0113
 7952TIP3    H148051   2.013   6.687   9.914  0.7092 -1.0106 -0.9808
 7952TIP3    H248052   2.104   6.780   9.837 -0.4083 -0.0722 -1.1824
 7953TIP3   OH248053   4.754   1.105  10.876 -0.0879  0.3215  0.3789
 7953TIP3    H148054   4.728   1.187  10.834  0.4763  0.6677  0.7004
 7953TIP3    H248055   4.716   1.110  10.964  1.4835  1.0813  1.0521
 7954TIP3   OH248056   5.039   1.132   8.931  0.1153  0.4159  0.0938
 7954TIP3    H148057   5.005   1.197   8.869  0.0476 -0.0106 -0.3141
 7954TIP3    H248058   5.100   1.182   8.986 -1.2727  1.2426  0.9557
 7955TIP3   OH248059   3.471   2.871  10.051 -0.1571 -0.5188  0.0320
 7955TIP3    H148060   3.536   2.855  10.119 -2.0296 -4.0024  1.2535
 7955TIP3    H248061   3.502   2.821   9.976 -1.0558 -1.6962  0.4202
 7956TIP3   OH248062   5.890   2.536  10.415 -0.2483 -0.3829  0.3704
 7956TIP3    H148063   5.912   2.508  10.503 -2.0314  0.5506  1.1557
 7956TIP3    H248064   5.883   2.455  10.365  0.5141 -0.9371  1.1389
 7957TIP3   OH248065   5.973   4.809  11.288  0.8783  0.0871 -0.2964
 7957TIP3    H148066   5.878   4.799  11.277  0.9651 -0.9632 -0.1830
 7957TIP3    H248067   5.986   4.809  11.383  1.1259 -1.3471 -0.3082
 7958TIP3   OH248068   5.646   2.514  11.168 -0.1682  0.4388  0.4789
 7958TIP3    H148069   5.591   2.519  11.246  0.3098  1.1232  0.7869
 7958TIP3    H248070   5.693   2.598  11.167 -0.1125  0.4016 -0.4991
 7959TIP3   OH248071   1.512   1.793   8.819  0.6217 -0.0050 -0.1683
 7959TIP3    H148072   1.495   1.808   8.725 -0.1782 -0.3966 -0.0952
 7959TIP3    H248073   1.465   1.864   8.863  0.5019 -0.1645 -0.0381
 7960TIP3   OH248074   3.367   0.414   9.252 -0.0660  0.2385  0.2564
 7960TIP3    H148075   3.418   0.338   9.277 -0.4217  0.3037  1.2395
 7960TIP3    H248076   3.424   0.463   9.192  0.2990 -0.6083 -0.0987
 7961TIP3   OH248077   1.944   3.017   8.564 -0.0546  0.1065  0.1009
 7961TIP3    H148078   1.909   3.028   8.476 -1.3181  1.0209  0.6853
 7961TIP3    H248079   1.940   2.922   8.580 -0.7549  0.0372 -0.4655
 7962TIP3   OH248080   2.313   3.814  11.295  0.1528 -0.2744 -0.8418
 7962TIP3    H148081   2.222   3.808  11.264  0.1793  0.1926 -1.0182
 7962TIP3    H248082   2.340   3.723  11.307 -0.0874 -0.4473 -1.5444
 7963TIP3   OH248083   0.592   6.515   8.266 -0.5974 -0.2584  0.0687
 7963TIP3    H148084   0.626   6.451   8.328 -1.0030  0.1491  0.7335
 7963TIP3    H248085   0.660   6.524   8.200 -0.3066 -0.9642  0.2696
 7964TIP3   OH248086   6.263   6.643   9.562  0.1960 -0.2674 -0.7452
 7964TIP3    H148087   6.240   6.554   9.536 -1.6145  0.0919 -0.5145
 7964TIP3    H248088   6.250   6.645   9.656 -0.4526  0.4233 -0.8426
 7965TIP3   OH248089   2.137   2.806   9.940 -0.0296  0.1360  0.0090
 7965TIP3    H148090   2.118   2.768   9.854 -1.3867  0.3922  0.1706
 7965TIP3    H248091   2.095   2.892   9.938 -2.6208 -0.9306  1.8798
 7966TIP3   OH248092   4.997   6.329  11.249 -0.5678 -0.0556 -0.2570
 7966TIP3    H148093   4.908   6.364  11.250 -0.5746 -0.0765 -0.0143
 7966TIP3    H248094   5.052   6.404  11.269 -0.5731 -0.1513  0.1356
 7967TIP3   OH248095   3.232   5.951   9.195 -0.0170  0.4954 -0.6828
 7967TIP3    H148096   3.264   6.000   9.119  0.2020  0.4569 -0.6141
 7967TIP3    H248097   3.191   5.873   9.157  0.5446  0.2216 -0.7364
 7968TIP3   OH248098   5.869   0.524  11.868 -0.2404  0.3449  0.2871
 7968TIP3    H148099   5.866   0.588  11.796  0.8173  0.0510 -0.0249
 7968TIP3    H248100   5.779   0.493  11.875 -0.4046  0.5293 -0.7758
 7969TIP3   OH248101   0.275   6.157   9.999 -0.4394  0.8456 -0.4363
 7969TIP3    H148102   0.306   6.074   9.962  1.1155  1.1884  0.0616
 7969TIP3    H248103   0.263   6.139  10.092  0.8457  1.4249 -0.1454
 7970TIP3   OH248104   5.091   2.922  11.573  0.1720  0.5683 -0.1432
 7970TIP3    H148105   5.016   2.928  11.632  0.7202 -0.9781  0.7721
 7970TIP3    H248106   5.060   2.869  11.500  0.8043 -1.6867  1.1083
 7971TIP3   OH248107   6.587   0.275   9.137 -0.1828 -0.6499 -0.3836
 7971TIP3    H148108   6.498   0.274   9.104 -0.0038  0.0084 -0.9038
 7971TIP3    H248109   6.579   0.297   9.229 -0.5818 -0.9745 -0.3410
 7972TIP3   OH248110   1.878   0.026   9.322  0.3135 -0.4270  0.1492
 7972TIP3    H148111   1.801   0.076   9.295  0.1846  0.5119  2.0921
 7972TIP3    H248112   1.886   0.043   9.416  3.6688  0.5999 -0.1936
 7973TIP3   OH248113   0.827   5.179  10.272  0.7078  0.8276  0.3415
 7973TIP3    H148114   0.837   5.240  10.346 -1.0642  2.7179 -0.8646
 7973TIP3    H248115   0.859   5.095  10.305 -1.4029  1.1887  3.8276
 7974TIP3   OH248116   4.210   2.647  11.034  0.1206  0.7376 -0.6097
 7974TIP3    H148117   4.256   2.727  11.057 -0.2642  0.6939  0.3876
 7974TIP3    H248118   4.117   2.670  11.041 -0.0330 -0.2937  1.7694
 7975TIP3   OH248119   5.664   5.524  11.133  0.2631  0.0860 -0.1739
 7975TIP3    H148120   5.616   5.537  11.051 -1.0846 -1.0730  0.4029
 7975TIP3    H248121   5.653   5.607  11.180  1.6136  1.0226 -1.3807
 7976TIP3   OH248122   5.365   0.863  10.004 -0.0598 -0.1634  0.0439
 7976TIP3    H148123   5.423   0.940  10.001  0.7867 -0.7197  1.2363
 7976TIP3    H248124   5.352   0.840   9.912  0.4163  0.8630 -0.3016
 7977TIP3   OH248125   6.135   4.833   9.337 -0.0154 -0.9185  0.0822
 7977TIP3    H148126   6.053   4.879   9.316  0.7618  0.2390 -0.5115
 7977TIP3    H248127   6.201   4.878   9.285  1.1698 -1.2305  1.2794
 7978TIP3   OH248128   3.921   2.764  10.362  0.1753 -0.9821 -0.2261
 7978TIP3    H148129   3.898   2.672  10.376  1.4663 -1.1165  1.2759
 7978TIP3    H248130   3.874   2.811  10.431  0.1454 -0.6003 -0.5005
 7979TIP3   OH248131   2.100   3.702  11.627 -0.1787  0.0670 -0.1199
 7979TIP3    H148132   2.014   3.713  11.668  0.5427 -2.4721  2.3907
 7979TIP3    H248133   2.148   3.782  11.648 -1.3107  0.6917  0.1400
 7980TIP3   OH248134   3.731   3.827  10.950  0.0836 -0.1027  0.6057
 7980TIP3    H148135   3.746   3.829  10.855 -1.1997  0.4007  0.3927
 7980TIP3    H248136   3.649   3.778  10.960 -0.5363  1.0459  1.3315
 7981TIP3   OH248137   4.043   2.701  10.740  0.3663 -0.2548 -0.3496
 7981TIP3    H148138   3.963   2.696  10.687  0.4043 -1.1949 -0.3322
 7981TIP3    H248139   4.010   2.717  10.829  0.1739 -0.9578 -0.2897
 7982TIP3   OH248140   0.773   2.663  12.216 -0.1319  0.0504  0.4081
 7982TIP3    H148141   0.700   2.682  12.276 -0.2504  2.9079 -0.5211
 7982TIP3    H248142   0.850   2.696  12.262 -0.1906  2.0225 -0.8355
 7983TIP3   OH248143   0.238   4.517   9.041 -0.3810 -0.3630 -0.0127
 7983TIP3    H148144   0.145   4.493   9.044 -0.2109 -0.9245  2.2093
 7983TIP3    H248145   0.251   4.550   8.952 -2.5260 -0.9634 -0.6108
 7984TIP3   OH248146   3.393   4.287  11.459 -0.7852 -0.5708 -0.2726
 7984TIP3    H148147   3.412   4.225  11.388 -1.5037 -1.9344  0.6692
 7984TIP3    H248148   3.399   4.234  11.539 -1.0086  0.6888  0.6025
 7985TIP3   OH248149   5.676   1.943  10.104 -0.5603  0.2974  0.5480
 7985TIP3    H148150   5.614   1.987  10.162  0.0491  0.9754  0.7010
 7985TIP3    H248151   5.754   1.999  10.105  0.5148 -1.1263  1.3208
 7986TIP3   OH248152   6.087   4.152   8.369 -0.0160  0.0073 -0.5100
 7986TIP3    H148153   6.029   4.193   8.303  0.7957  1.0166 -0.6305
 7986TIP3    H248154   6.027   4.106   8.428 -0.9539  0.9945 -0.6488
 7987TIP3   OH248155   5.399   4.840  11.149 -0.7577 -0.8744 -0.6368
 7987TIP3    H148156   5.471   4.819  11.208 -0.5568  1.5905  0.1344
 7987TIP3    H248157   5.326   4.861  11.207 -0.8615  0.6021 -1.2462
 7988TIP3   OH248158   3.959   3.035  10.928 -0.8410  0.0385  0.1236
 7988TIP3    H148159   4.047   3.029  10.892 -1.1043 -0.0817 -0.5105
 7988TIP3    H248160   3.921   3.112  10.886 -0.7868  0.5356  0.9623
 7989TIP3   OH248161   3.899   2.424  10.755  0.0242 -1.2243 -0.1952
 7989TIP3    H148162   3.842   2.497  10.730  1.5012 -0.3993 -1.3721
 7989TIP3    H248163   3.901   2.427  10.850  0.5955  0.7756 -0.2155
 7990TIP3   OH248164   4.111   1.302   9.685 -0.3791 -0.7972  0.0237
 7990TIP3    H148165   4.151   1.326   9.601 -1.0097 -0.1786 -0.1212
 7990TIP3    H248166   4.041   1.367   9.697 -0.9363 -1.4728  0.5523
 7991TIP3   OH248167   1.089   2.058  10.076  0.3798  1.0834  0.2292
 7991TIP3    H148168   1.101   1.976  10.027  0.6810  1.7493 -0.8451
 7991TIP3    H248169   1.018   2.103  10.029 -0.0635  1.2607  1.0553
 7992TIP3   OH248170   2.044   5.714  10.606  0.0478  0.5899  0.1524
 7992TIP3    H148171   2.124   5.715  10.659 -0.3092 -1.6418  0.8421
 7992TIP3    H248172   1.973   5.716  10.670 -0.3997 -0.6199 -0.2675
 7993TIP3   OH248173   3.738   3.500   8.777  0.0609 -0.0617  0.2284
 7993TIP3    H148174   3.658   3.462   8.739  1.5921 -0.5978 -2.7711
 7993TIP3    H248175   3.781   3.427   8.820 -1.5538  0.4903  3.0299
 7994TIP3   OH248176   3.697   5.350   9.229  0.2990 -0.1029  0.1734
 7994TIP3    H148177   3.702   5.259   9.199 -0.8498  0.6238 -2.5479
 7994TIP3    H248178   3.697   5.344   9.324  0.0177 -2.9634  0.0770
 7995TIP3   OH248179   1.627   5.370   9.110  0.1790  0.6961  0.1638
 7995TIP3    H148180   1.669   5.364   9.196  1.2992 -0.8373 -0.4287
 7995TIP3    H248181   1.641   5.461   9.083  1.4293  0.7381  0.8472
 7996TIP3   OH248182   0.081   2.931   9.254  0.0623  0.0781 -0.3294
 7996TIP3    H148183   0.017   2.961   9.318 -0.6730  0.2973 -1.1499
 7996TIP3    H248184   0.116   3.011   9.215 -0.6701 -0.0597 -1.3236
 7997TIP3   OH248185   4.801   3.746  11.374  0.5144 -0.1013  1.0022
 7997TIP3    H148186   4.720   3.697  11.360  0.2864  0.8339 -1.5580
 7997TIP3    H248187   4.787   3.794  11.455 -0.7881 -1.2459  1.4911
 7998TIP3   OH248188   2.429   5.901  12.210  0.3280 -0.1103  0.1714
 7998TIP3    H148189   2.342   5.915  12.172 -0.5959 -2.0063  1.4141
 7998TIP3    H248190   2.477   5.981  12.191 -1.8260  1.1703 -0.1766
 7999TIP3   OH248191   1.693   6.072   9.759  0.4796 -0.4299  0.6218
 7999TIP3    H148192   1.738   6.070   9.675  0.4582 -0.5591  0.6136
 7999TIP3    H248193   1.604   6.101   9.738  0.7789  0.6302  0.7364
 8000TIP3   OH248194   5.565   1.683  10.954 -0.5238 -0.2844 -0.4637
 8000TIP3    H148195   5.590   1.719  11.040 -0.5281  1.3869 -1.1315
 8000TIP3    H248196   5.483   1.727  10.933 -0.1846 -0.1892 -1.6272
 8001TIP3   OH248197   3.587   5.592   9.123 -0.1796 -0.2374  0.1527
 8001TIP3    H148198   3.631   5.513   9.155  2.4773  0.8398 -0.5606
 8001TIP3    H248199   3.641   5.664   9.154 -1.8442  1.2723 -0.2575
 8002TIP3   OH248200   3.834   4.328  10.749 -0.6889 -0.2415 -0.0013
 8002TIP3    H148201   3.914   4.379  10.732  0.4359 -2.0252 -0.3806
 8002TIP3    H248202   3.786   4.332  10.666 -0.5031  0.0117 -0.1007
 8003TIP3   OH248203   1.773   0.160  11.394 -0.0462 -0.0658 -0.2459
 8003TIP3    H148204   1.712   0.176  11.322 -0.9701 -0.8538  0.3249
 8003TIP3    H248205   1.736   0.210  11.468  1.3411  1.4147 -0.4951
 8004TIP3   OH248206   2.842   6.290  10.814 -0.0106  0.2486 -0.3951
 8004TIP3    H148207   2.896   6.211  10.813 -0.9318 -0.3953 -0.1664
 8004TIP3    H248208   2.807   6.295  10.903  1.6684  2.0692  0.2400
 8005TIP3   OH248209   6.023   5.916  11.029 -0.0986 -0.2138  0.4122
 8005TIP3    H148210   6.074   5.938  11.107 -0.2429 -0.3915  0.5571
 8005TIP3    H248211   6.079   5.854  10.981  0.3891  0.6059 -0.0907
 8006TIP3   OH248212   0.971   1.407  10.241  0.1176 -0.6680 -0.2789
 8006TIP3    H148213   1.031   1.366  10.178  0.1812 -1.6844  0.4360
 8006TIP3    H248214   0.890   1.421  10.191  0.1524 -1.5088 -0.5802
 8007TIP3   OH248215   3.722   5.338  13.237 -0.1892 -0.4410 -0.6396
 8007TIP3    H148216   3.797   5.311  13.290  0.2297 -0.0803 -1.0435
 8007TIP3    H248217   3.711   5.268  13.173  0.5991  0.0938 -1.3823
 8008TIP3   OH248218   1.258   6.267  12.227 -0.1545 -0.0363 -0.6891
 8008TIP3    H148219   1.190   6.333  12.240 -1.0227 -1.1722  0.7634
 8008TIP3    H248220   1.265   6.258  12.132 -2.0110  0.1106 -0.8646
 8009TIP3   OH248221   2.395   0.069   9.540  0.5005 -0.4376 -0.0295
 8009TIP3    H148222   2.470   0.127   9.526  0.6248 -0.9060 -1.5322
 8009TIP3    H248223   2.322   0.128   9.560  1.0803  0.0801  0.5958
 8010TIP3   OH248224   6.441   4.615  10.230 -0.2236  0.1958 -0.2403
 8010TIP3    H148225   6.422   4.590  10.320 -0.7024 -0.1901 -0.4450
 8010TIP3    H248226   6.501   4.547  10.198  1.1404  1.1304  0.2418
 8011TIP3   OH248227   4.582   3.810  11.998  0.4909  0.1919 -0.4698
 8011TIP3    H148228   4.489   3.794  12.013  0.7237  1.1394  2.5492
 8011TIP3    H248229   4.621   3.723  11.993 -0.2520 -0.2275  0.7538
 8012TIP3   OH248230   1.970   2.093  12.199  0.4021  0.3522  0.5111
 8012TIP3    H148231   2.050   2.123  12.155 -0.1098  2.6893  1.0717
 8012TIP3    H248232   1.996   2.078  12.290  0.4335  0.0031  0.4475
 8013TIP3   OH248233   2.458   6.121  11.773 -0.8456  0.0995 -0.2367
 8013TIP3    H148234   2.423   6.119  11.863 -1.3831  2.1351 -0.3608
 8013TIP3    H248235   2.399   6.179  11.725  1.5838  2.2148 -0.9222
 8014TIP3   OH248236   0.347   4.581  11.274  0.1931  0.4561  0.3958
 8014TIP3    H148237   0.403   4.520  11.323 -0.6914  0.2703  1.1901
 8014TIP3    H248238   0.310   4.638  11.341 -0.2238  0.8691 -0.1792
 8015TIP3   OH248239   0.872   0.217  10.129 -0.1498  0.2323 -0.3481
 8015TIP3    H148240   0.789   0.187  10.165 -0.1946  0.5931 -0.1360
 8015TIP3    H248241   0.861   0.212  10.034 -0.2189 -0.2311 -0.3163
 8016TIP3   OH248242   2.731   3.356   9.233  0.0033 -0.2628  0.2721
 8016TIP3    H148243   2.654   3.386   9.185  0.6577 -0.3132 -0.8265
 8016TIP3    H248244   2.727   3.260   9.229  1.2930 -0.2862 -1.7635
 8017TIP3   OH248245   4.420   1.281  11.666  0.2911 -0.2314 -0.1087
 8017TIP3    H148246   4.511   1.301  11.690 -0.3472  1.6645  0.9367
 8017TIP3    H248247   4.402   1.197  11.709  0.9318  0.3711  1.3953
 8018TIP3   OH248248   1.377   2.405   9.175  0.1855 -0.4202 -0.3111
 8018TIP3    H148249   1.314   2.443   9.114  0.7485 -1.8412 -1.8488
 8018TIP3    H248250   1.462   2.421   9.134  0.6381 -0.8223  0.4538
 8019TIP3   OH248251   2.508   1.363  10.046  0.0923  0.4971 -0.0366
 8019TIP3    H148252   2.511   1.456  10.023 -1.1871  0.4756 -0.3306
 8019TIP3    H248253   2.539   1.360  10.137 -0.8594  1.3395  0.3344
 8020TIP3   OH248254   2.502   1.950  11.829  0.5691 -0.2067 -0.0641
 8020TIP3    H148255   2.470   1.865  11.858  0.0122  0.4212  1.2420
 8020TIP3    H248256   2.537   1.990  11.909  0.4184  0.9649 -0.5713
 8021TIP3   OH248257   1.332   2.363  10.447  0.1915  0.3166  0.1520
 8021TIP3    H148258   1.272   2.360  10.522  1.3010 -1.6350  1.0497
 8021TIP3    H248259   1.279   2.395  10.375 -0.7019  3.1760  1.9268
 8022TIP3   OH248260   2.490   4.571  11.324  0.2091  0.1252 -0.2261
 8022TIP3    H148261   2.538   4.497  11.286 -0.0069  0.8129 -1.9082
 8022TIP3    H248262   2.557   4.622  11.369  0.1815 -1.7022  2.0848
 8023TIP3   OH248263   2.648   1.198   9.885 -0.2056  0.0626  0.1539
 8023TIP3    H148264   2.594   1.249   9.946  1.0984  1.1513  0.4343
 8023TIP3    H248265   2.630   1.236   9.799  0.5455  0.8343  0.3249
 8024TIP3   OH248266   1.030   6.705   9.132  0.7961  0.1816  0.2530
 8024TIP3    H148267   0.951   6.687   9.080  1.0248 -1.7784  0.4926
 8024TIP3    H248268   1.047   6.798   9.118 -2.7638  1.2729  1.8858
 8025TIP3   OH248269   1.460   3.702  10.984 -0.1791 -0.5438  0.7959
 8025TIP3    H148270   1.421   3.763  10.920 -0.7953 -0.8418  0.8749
 8025TIP3    H248271   1.477   3.756  11.061 -1.0296 -0.5244  0.9846
 8026TIP3   OH248272   4.572   2.053   9.817 -0.3281  0.4306 -0.0545
 8026TIP3    H148273   4.478   2.037   9.810 -0.2643 -0.1715  0.3727
 8026TIP3    H248274   4.612   1.972   9.789  0.0755  0.7494 -0.4139
 8027TIP3   OH248275   4.311   2.793  10.755  0.1192 -0.5566  0.0453
 8027TIP3    H148276   4.218   2.774  10.749 -0.0593  0.5106 -1.0774
 8027TIP3    H248277   4.352   2.733  10.693 -0.2044  1.0431 -1.8273
 8028TIP3   OH248278   0.799   6.699   8.764  0.0684 -0.2993  0.0189
 8028TIP3    H148279   0.743   6.775   8.748 -0.4437 -0.3351  1.4396
 8028TIP3    H248280   0.867   6.705   8.698 -1.0351  0.3247 -1.1095
 8029TIP3   OH248281   1.700   6.496   9.936 -0.4182 -0.1777 -0.1401
 8029TIP3    H148282   1.695   6.419   9.993  0.3515  0.5222  0.8978
 8029TIP3    H248283   1.736   6.565   9.991  0.3895  0.5166 -1.4831
 8030TIP3   OH248284   1.096   0.104  11.430 -0.0747  0.3480 -0.6872
 8030TIP3    H148285   1.156   0.052  11.484 -0.0471  1.7074  0.6442
 8030TIP3    H248286   1.147   0.124  11.351  0.9717  0.8149  0.0756
 8031TIP3   OH248287   3.151   5.009  11.398  0.2836 -0.4024 -0.1374
 8031TIP3    H148288   3.225   5.027  11.456 -0.3638 -0.0047  0.5908
 8031TIP3    H248289   3.162   5.068  11.324  2.2432 -2.3245 -1.4936
 8032TIP3   OH248290   3.443   6.568  11.687 -0.2225 -0.7018 -0.2698
 8032TIP3    H148291   3.500   6.615  11.748 -1.5449 -3.2890  3.3511
 8032TIP3    H248292   3.356   6.605  11.702 -0.1019  1.2333 -3.6062
 8033TIP3   OH248293   1.501   2.169  10.952  0.1862  0.5753  0.9952
 8033TIP3    H148294   1.406   2.172  10.962  0.2501  0.1327  1.8624
 8033TIP3    H248295   1.528   2.261  10.950 -0.2885  0.7078  0.3526
 8034TIP3   OH248296   3.297   0.362   9.957 -0.5558 -0.2871  0.6188
 8034TIP3    H148297   3.241   0.434   9.926 -1.3475 -0.0652  2.3835
 8034TIP3    H248298   3.383   0.380   9.920 -0.4152  2.3161  1.9832
 8035TIP3   OH248299   0.553   6.328   9.065  0.5186 -0.1203 -0.1344
 8035TIP3    H148300   0.603   6.371   8.995 -1.4291  2.2891 -0.1993
 8035TIP3    H248301   0.469   6.308   9.025 -0.6998  1.4573  1.4692
 8036TIP3   OH248302   6.756   2.214  11.177  0.2922  0.5632  0.7366
 8036TIP3    H148303   6.824   2.157  11.210  1.7540  2.6153  1.4850
 8036TIP3    H248304   6.697   2.227  11.251 -0.4343 -0.4845  0.3602
 8037TIP3   OH248305   1.781   3.208   9.528  0.1781 -0.0878  0.0619
 8037TIP3    H148306   1.752   3.119   9.506  1.4086 -0.6997  0.7695
 8037TIP3    H248307   1.818   3.199   9.617  0.2486  1.1472  0.1649
 8038TIP3   OH248308   2.153   5.982  10.162  0.0663  0.1837 -0.5255
 8038TIP3    H148309   2.120   5.935  10.238 -1.9103  0.7498 -0.9900
 8038TIP3    H248310   2.119   5.934  10.087  1.0967  0.2553 -1.0643
 8039TIP3   OH248311   4.947   6.616  11.862  0.1430 -0.0569 -0.3104
 8039TIP3    H148312   4.856   6.641  11.848 -0.1915 -0.8683  0.3513
 8039TIP3    H248313   4.955   6.603  11.956  0.5965 -1.2587 -0.4859
 8040TIP3   OH248314   5.114   0.649   9.408  0.1420 -0.0636  0.6994
 8040TIP3    H148315   5.076   0.632   9.494 -1.2840  0.2842  0.1565
 8040TIP3    H248316   5.203   0.679   9.427  0.4480 -1.6060  1.9613
 8041TIP3   OH248317   0.921   3.892  11.269  0.5106  0.3958  0.2079
 8041TIP3    H148318   0.839   3.843  11.272 -0.3965  1.8072 -0.3483
 8041TIP3    H248319   0.983   3.832  11.228 -0.8169  0.0351 -1.4183
 8042TIP3   OH248320   3.536   0.974   9.427  0.7740 -0.2904  0.7994
 8042TIP3    H148321   3.558   1.032   9.354  2.1857  1.2827  2.3807
 8042TIP3    H248322   3.456   1.012   9.465 -0.0294 -1.1770  0.0433
 8043TIP3   OH248323   1.814   0.852   9.105  0.3536 -0.4116  0.0194
 8043TIP3    H148324   1.725   0.817   9.105  0.7127 -1.5206 -2.1830
 8043TIP3    H248325   1.870   0.774   9.104  1.2799  0.2401 -0.9743
 8044TIP3   OH248326   5.507   0.576  10.006 -0.7171  1.1373  0.0388
 8044TIP3    H148327   5.478   0.599   9.918  2.4243  2.4789 -0.8050
 8044TIP3    H248328   5.542   0.488   9.997 -2.6695  0.2521  0.6239
 8045TIP3   OH248329   1.638   3.332   9.802  0.0493  0.2648  0.1117
 8045TIP3    H148330   1.548   3.304   9.822  0.0062 -0.2645 -0.7823
 8045TIP3    H248331   1.673   3.361   9.886 -0.0839 -1.9946  1.0142
 8046TIP3   OH248332   1.218   3.981   8.720  0.2939 -0.4550  0.2498
 8046TIP3    H148333   1.231   3.938   8.805 -2.9900  1.1424  1.7744
 8046TIP3    H248334   1.197   3.910   8.660 -1.9442 -1.3718  1.9710
 8047TIP3   OH248335   0.227   0.281  10.715  0.0777 -0.1546 -0.0557
 8047TIP3    H148336   0.252   0.318  10.800  0.0865  3.9786 -1.6490
 8047TIP3    H248337   0.310   0.253  10.676  0.4666  0.6917  0.1422
 8048TIP3   OH248338   5.098   2.903  10.827  0.0798 -0.6468 -0.2866
 8048TIP3    H148339   5.044   2.969  10.785  1.2432 -0.4345 -1.5190
 8048TIP3    H248340   5.080   2.913  10.920 -1.4794 -0.1485 -0.6191
 8049TIP3   OH248341   6.169   1.551  11.188  0.1065  0.1170  0.3844
 8049TIP3    H148342   6.168   1.639  11.224  0.0246  0.0187  0.6267
 8049TIP3    H248343   6.121   1.498  11.253  2.4757 -0.6548  1.6517
 8050TIP3   OH248344   1.765   4.460  10.481 -0.1608 -0.0630 -0.8422
 8050TIP3    H148345   1.800   4.519  10.548  1.0720 -1.7318  0.0637
 8050TIP3    H248346   1.682   4.430  10.516  0.4510 -0.8823 -0.0440
 8051TIP3   OH248347   3.446   3.303  12.274 -0.2404 -0.1141  0.1629
 8051TIP3    H148348   3.524   3.281  12.325 -0.9609  0.8169  1.7692
 8051TIP3    H248349   3.480   3.347  12.196  1.0777 -4.2156 -1.8617
 8052TIP3   OH248350   1.503   4.932   9.768  0.1826  0.1549 -0.0230
 8052TIP3    H148351   1.477   4.993   9.838 -0.6157 -0.5173  0.2811
 8052TIP3    H248352   1.448   4.855   9.782  0.7933 -0.4230 -0.7389
 8053TIP3   OH248353   0.917   4.554  12.354 -0.1295  0.1263  0.1339
 8053TIP3    H148354   0.880   4.486  12.410 -1.1294 -0.9787 -1.7281
 8053TIP3    H248355   1.009   4.531  12.347 -0.3158 -0.6657  0.0921
 8054TIP3   OH248356   3.679   0.088  10.819  0.5161 -0.3788  0.3969
 8054TIP3    H148357   3.731   0.164  10.846  1.4289 -0.6500 -0.5159
 8054TIP3    H248358   3.741   0.015  10.823  0.4599 -0.5688 -1.5112
 8055TIP3   OH248359   4.622   1.247   9.416 -0.0966 -0.1443  0.5645
 8055TIP3    H148360   4.599   1.278   9.503  0.0745  0.2728  0.4604
 8055TIP3    H248361   4.687   1.178   9.431  1.0138  0.9155  0.6997
 8056TIP3   OH248362   6.450   4.974  10.842  0.2654  0.4922 -0.2262
 8056TIP3    H148363   6.457   4.946  10.751  0.4487  0.3283 -0.1604
 8056TIP3    H248364   6.409   5.060  10.837 -0.4797  0.1393 -0.4153
 8057TIP3   OH248365   1.831   5.904  11.534 -0.5424 -0.2469  0.1311
 8057TIP3    H148366   1.905   5.921  11.593 -0.7858  1.3180  0.0366
 8057TIP3    H248367   1.790   5.825  11.568 -0.2140  0.1950  1.6045
 8058TIP3   OH248368   3.653   3.235  11.049  0.0707  0.0124 -0.1159
 8058TIP3    H148369   3.575   3.252  11.102  0.4705  0.1793  0.4320
 8058TIP3    H248370   3.675   3.143  11.068  0.4401  0.1880  0.3117
 8059TIP3   OH248371   6.052   2.435   9.938 -0.1383 -0.0015  0.1211
 8059TIP3    H148372   6.060   2.430   9.842  0.0646 -0.3847  0.1566
 8059TIP3    H248373   5.991   2.507   9.953  0.3656  0.5216 -0.2768
 8060TIP3   OH248374   1.650   2.240   9.364  0.0694  0.6707  0.1446
 8060TIP3    H148375   1.690   2.191   9.436  0.4893 -2.2064 -1.8753
 8060TIP3    H248376   1.562   2.261   9.396  0.4178 -0.0588  1.6879
 8061TIP3   OH248377   5.552   5.531   8.596  0.0205  0.0317 -0.4912
 8061TIP3    H148378   5.612   5.458   8.584  1.3709  0.6260  1.9009
 8061TIP3    H248379   5.599   5.607   8.561  1.4287  0.7335  2.5507
 8062TIP3   OH248380   0.186   3.163   9.156 -0.2533 -0.0775 -0.4582
 8062TIP3    H148381   0.131   3.237   9.130  1.0349 -0.0004 -3.3911
 8062TIP3    H248382   0.254   3.201   9.211 -0.0171  0.8458 -1.3574
 8063TIP3   OH248383   4.644   2.909  10.038 -0.0625  0.3486  0.2569
 8063TIP3    H148384   4.617   2.824  10.074 -0.9519  1.1257  1.4898
 8063TIP3    H248385   4.564   2.944   9.999  0.1843  0.8511  0.2037
 8064TIP3   OH248386   0.036   1.333  10.859 -0.4792 -0.1262  0.1532
 8064TIP3    H148387   0.117   1.319  10.812  0.7224  0.2216  2.0072
 8064TIP3    H248388  -0.009   1.249  10.856  0.5476 -0.6891  0.1557
 8065TIP3   OH248389   1.951   0.465   9.344  0.4575  0.2262  0.2596
 8065TIP3    H148390   1.951   0.553   9.307  0.6775  0.5280  0.9582
 8065TIP3    H248391   2.042   0.450   9.371  0.1426  0.3591  1.4504
 8066TIP3   OH248392   0.726   0.195   8.921 -0.7020 -0.1822  0.0376
 8066TIP3    H148393   0.765   0.269   8.874  1.5999 -0.9774  0.5767
 8066TIP3    H248394   0.663   0.158   8.859 -2.3980  2.5123 -0.0373
 8067TIP3   OH248395   1.408   3.305  11.475  0.6832  0.2991  0.0453
 8067TIP3    H148396   1.396   3.246  11.549 -1.3684  0.1165 -0.3541
 8067TIP3    H248397   1.485   3.273  11.429  2.0044  0.4160  2.0633
 8068TIP3   OH248398   1.491   3.306  12.236 -0.3961  0.2349  0.0892
 8068TIP3    H148399   1.506   3.288  12.143 -1.8170  1.0710 -0.3234
 8068TIP3    H248400   1.542   3.385  12.253 -0.5682  0.3890 -0.1132
 8069TIP3   OH248401   0.336   3.928  11.248  0.1379 -0.4124  0.2429
 8069TIP3    H148402   0.325   4.023  11.253 -0.8922 -0.4709 -0.5253
 8069TIP3    H248403   0.427   3.915  11.222 -0.1562  0.4180 -1.3025
 8070TIP3   OH248404   4.319   2.757   9.095  0.4583 -0.1247  0.0134
 8070TIP3    H148405   4.340   2.812   9.170  0.7253 -0.2879  0.0613
 8070TIP3    H248406   4.403   2.745   9.051  0.3399 -0.2121 -0.1877
 8071TIP3   OH248407   0.992   5.849  11.830  0.0220 -0.1416  0.1930
 8071TIP3    H148408   1.048   5.774  11.811  0.3664  0.1692 -0.0196
 8071TIP3    H248409   1.052   5.917  11.862  0.0425  0.8234 -1.7541
 8072TIP3   OH248410   2.658   0.741  10.615  0.0636 -0.2991 -0.4634
 8072TIP3    H148411   2.633   0.776  10.529  1.4475 -1.4747 -1.3883
 8072TIP3    H248412   2.656   0.646  10.603  0.9662 -0.4648  0.6015
 8073TIP3   OH248413   0.546   3.043  10.405 -0.3456 -0.2381 -0.3616
 8073TIP3    H148414   0.625   3.002  10.438 -0.1319  0.6452  0.2674
 8073TIP3    H248415   0.546   3.131  10.444 -0.3049  0.7162 -2.3596
 8074TIP3   OH248416   0.449   0.538  11.043 -0.2647  0.6832 -0.3014
 8074TIP3    H148417   0.395   0.466  11.011  0.3872  0.9142 -2.0120
 8074TIP3    H248418   0.411   0.616  11.004  0.2788  1.0285 -0.1598
 8075TIP3   OH248419   2.022   5.762   8.922  0.4624  0.0009 -0.1135
 8075TIP3    H148420   1.985   5.843   8.957  0.8378  0.0305  0.2311
 8075TIP3    H248421   2.092   5.791   8.864 -1.0960 -0.0026 -2.0656
 8076TIP3   OH248422   6.124   3.199   9.160 -0.2167 -0.1054  0.0566
 8076TIP3    H148423   6.173   3.265   9.112 -1.2048  0.2582 -0.4874
 8076TIP3    H248424   6.137   3.118   9.112  1.7135 -0.5407  1.2101
 8077TIP3   OH248425   2.084   1.524   9.954 -0.3550  0.8779 -0.0515
 8077TIP3    H148426   1.991   1.515   9.972 -0.2187 -0.3118  0.1264
 8077TIP3    H248427   2.100   1.463   9.882  0.3008  1.0046 -0.0182
 8078TIP3   OH248428   0.647   5.412  10.044 -0.0521 -0.3924  0.2199
 8078TIP3    H148429   0.576   5.439   9.986  0.1834  1.6126  0.8030
 8078TIP3    H248430   0.722   5.401   9.987 -0.3399 -0.5351 -0.1332
 8079TIP3   OH248431   4.730   4.173  11.658 -0.5008  0.1527  0.7705
 8079TIP3    H148432   4.738   4.264  11.687  1.5618  0.2884 -0.0521
 8079TIP3    H248433   4.778   4.122  11.723  0.3336 -0.0578  0.0158
 8080TIP3   OH248434   2.573   5.490   9.004 -0.0126 -0.0887  0.5790
 8080TIP3    H148435   2.649   5.441   8.974 -0.2441  0.0538 -0.2782
 8080TIP3    H248436   2.590   5.509   9.096  1.1059  0.1849  0.3185
 8081TIP3   OH248437   5.238   2.079   9.929 -0.3119  0.4164 -0.0240
 8081TIP3    H148438   5.272   2.168   9.930 -0.5785  0.5185  0.0865
 8081TIP3    H248439   5.315   2.023   9.927 -0.0593  0.5870  2.3127
 8082TIP3   OH248440   0.411   4.693  10.184  0.3344 -0.6109 -0.0602
 8082TIP3    H148441   0.447   4.618  10.136 -1.5900 -0.6042 -1.6249
 8082TIP3    H248442   0.336   4.658  10.231  1.3425 -0.2990  1.8995
 8083TIP3   OH248443   1.109   4.487  10.489 -0.0046 -0.5834  0.0731
 8083TIP3    H148444   1.137   4.435  10.414 -0.8424  0.9042 -1.3244
 8083TIP3    H248445   1.186   4.492  10.545  0.8345 -1.2082 -0.9943
 8084TIP3   OH248446   4.533   4.322   9.390  0.4868 -0.7120  0.1804
 8084TIP3    H148447   4.515   4.306   9.482  0.2619 -0.4494  0.1839
 8084TIP3    H248448   4.627   4.303   9.380  0.6683 -0.0914  0.6122
 8085TIP3   OH248449   5.148   3.187  10.489  0.2940  0.2018 -0.2472
 8085TIP3    H148450   5.231   3.140  10.487  0.4181  0.4225 -0.2600
 8085TIP3    H248451   5.153   3.242  10.567  0.0519  0.0188 -0.1001
 8086TIP3   OH248452   1.584   0.970   8.760  0.6343  0.1040  0.1461
 8086TIP3    H148453   1.632   1.054   8.761  0.6789  0.1178  2.3386
 8086TIP3    H248454   1.653   0.904   8.761  0.6011  0.0620 -0.3769
 8087TIP3   OH248455   4.738   4.005   8.635  0.3161 -0.9712  0.3547
 8087TIP3    H148456   4.777   4.092   8.625 -1.5636 -0.0217  0.7510
 8087TIP3    H248457   4.812   3.944   8.628  1.7848  0.6842  0.7773
 8088TIP3   OH248458   1.653   5.621  10.310  0.5177  0.0924  0.2980
 8088TIP3    H148459   1.618   5.553  10.252  1.4410 -0.6323  0.5664
 8088TIP3    H248460   1.590   5.626  10.382  1.1203 -1.4718  0.9730
 8089TIP3   OH248461   4.097   0.028  10.195 -0.5991 -0.1852 -0.5563
 8089TIP3    H148462   4.019   0.073  10.165 -0.9090  0.0946  0.6065
 8089TIP3    H248463   4.076  -0.065  10.187 -0.8886 -0.1128 -0.6421
 8090TIP3   OH248464   6.595   5.008   9.078  0.0924  0.2418 -0.5928
 8090TIP3    H148465   6.623   5.043   8.993 -1.0614 -0.2359 -1.1875
 8090TIP3    H248466   6.663   4.944   9.100  0.0141 -0.1870 -1.5325
 8091TIP3   OH248467   1.624   2.633   9.839  0.2489  0.0086 -0.0490
 8091TIP3    H148468   1.690   2.655   9.773  1.0856 -0.9005  0.4547
 8091TIP3    H248469   1.625   2.538   9.843 -1.3325 -0.0431 -0.2376
 8092TIP3   OH248470   0.353   5.573   9.129  0.2228 -0.0399  0.2664
 8092TIP3    H148471   0.343   5.501   9.067 -1.3094  1.1753 -0.9938
 8092TIP3    H248472   0.264   5.592   9.158  0.4330  1.9897 -0.2360
 8093TIP3   OH248473   3.470   3.105   9.538 -0.0510  0.0610  0.1588
 8093TIP3    H148474   3.400   3.077   9.480 -0.7758  2.0069  0.0249
 8093TIP3    H248475   3.453   3.199   9.553  2.4657  0.5749  0.1910
 8094TIP3   OH248476   4.516   4.136  10.191  0.0237 -0.0588 -0.5358
 8094TIP3    H148477   4.475   4.195  10.127  0.8762  0.6525 -0.4456
 8094TIP3    H248478   4.583   4.190  10.233 -0.8161 -0.3874  1.2845
 8095TIP3   OH248479   6.413   2.917   9.252 -0.1007 -0.0185 -0.1643
 8095TIP3    H148480   6.352   2.870   9.195  0.0829 -2.3290  1.4188
 8095TIP3    H248481   6.499   2.897   9.216  0.0015 -1.2925  0.7390
 8096TIP3   OH248482   4.707   4.921  10.586  0.3275 -0.8082 -0.1596
 8096TIP3    H148483   4.736   4.983  10.519 -1.0465  0.6324  0.4874
 8096TIP3    H248484   4.787   4.893  10.629  0.9773  2.4061  1.0557
 8097TIP3   OH248485   2.901   1.891  11.888 -0.1349  0.1641 -0.2167
 8097TIP3    H148486   2.843   1.894  11.965  0.4772 -1.9540  0.4074
 8097TIP3    H248487   2.960   1.966  11.899 -1.1148  0.8544  0.4842
 8098TIP3   OH248488   5.573   2.799   9.519 -0.1143  0.7202 -0.4208
 8098TIP3    H148489   5.570   2.832   9.609 -0.4165  0.2695 -0.2641
 8098TIP3    H248490   5.520   2.861   9.469 -0.7309  0.4418 -0.1167
 8099TIP3   OH248491   4.269   5.329  11.943  0.0577 -0.0588  0.0392
 8099TIP3    H148492   4.249   5.328  12.036 -3.0983  0.0792 -0.5528
 8099TIP3    H248493   4.329   5.403  11.932 -0.2896  0.5228  1.8009
 8100TIP3   OH248494   6.213   4.060  10.855  0.5515  0.1562  0.1157
 8100TIP3    H148495   6.223   4.117  10.779 -0.3568 -2.1161 -1.8460
 8100TIP3    H248496   6.128   4.083  10.892  0.3288  0.2930 -0.4746
 8101TIP3   OH248497   1.066   4.265   9.455 -0.2506  0.6679  0.0271
 8101TIP3    H148498   1.080   4.263   9.550 -0.0402  0.7866  0.0005
 8101TIP3    H248499   1.021   4.184   9.436  2.5885 -0.9972 -0.2112
 8102TIP3   OH248500   6.027   1.872  10.886  0.1959  0.0052 -0.5220
 8102TIP3    H148501   6.089   1.835  10.824  0.3223 -1.0758  0.2236
 8102TIP3    H248502   5.941   1.841  10.856  0.1449  0.4076 -0.7946
 8103TIP3   OH248503   1.564   0.080   9.192  0.0588  0.1129 -0.3666
 8103TIP3    H148504   1.622   0.148   9.228 -1.1051  1.0679 -0.2168
 8103TIP3    H248505   1.477   0.104   9.224 -0.3314 -1.6966  0.0063
 8104TIP3   OH248506   2.904   6.117  10.519 -0.2978  0.0873 -0.0622
 8104TIP3    H148507   2.870   6.199  10.483 -1.3279 -0.3160 -0.0536
 8104TIP3    H248508   2.829   6.058  10.518  0.6168 -1.1010 -0.7669
 8105TIP3   OH248509   2.201   2.915  11.475 -0.4299  0.6285  0.4839
 8105TIP3    H148510   2.273   2.959  11.430 -0.3968 -0.2235 -0.3331
 8105TIP3    H248511   2.243   2.853  11.534 -0.4903  1.0578  0.9915
 8106TIP3   OH248512   1.880   6.086   9.965 -0.5526  0.0203 -0.4575
 8106TIP3    H148513   1.912   5.996   9.973 -0.4264 -0.0660 -1.7218
 8106TIP3    H248514   1.803   6.078   9.908 -0.4639  0.7286 -0.6771
 8107TIP3   OH248515   5.726   1.059   9.649 -0.3773  0.2498 -0.0214
 8107TIP3    H148516   5.643   1.046   9.603  0.2817  0.0969 -1.2056
 8107TIP3    H248517   5.773   0.977   9.639  0.4140  0.7330 -0.4141
 8108TIP3   OH248518   4.539   0.957  11.617  0.1003 -0.0943  0.4609
 8108TIP3    H148519   4.540   0.962  11.713  1.4721  1.1073  0.4313
 8108TIP3    H248520   4.608   1.018  11.590 -1.5423  1.1028 -1.3566
 8109TIP3   OH248521   2.321   4.650   8.696 -0.3793 -0.0764  0.4610
 8109TIP3    H148522   2.372   4.569   8.686 -1.4533 -0.5743 -1.3494
 8109TIP3    H248523   2.369   4.716   8.646 -0.5263 -0.0862  0.3059
 8110TIP3   OH248524   2.731   0.058  10.931  0.3802 -0.0006  0.4019
 8110TIP3    H148525   2.764  -0.005  10.995  2.2686  1.1959  0.6814
 8110TIP3    H248526   2.706   0.004  10.855  0.6079 -1.1867  1.1433
 8111TIP3   OH248527   6.076   6.182  10.544  0.5948  0.1113  0.4911
 8111TIP3    H148528   6.076   6.260  10.600  2.3638  0.2989  0.2959
 8111TIP3    H248529   6.028   6.117  10.594  0.3673  0.8869  1.3165
 8112TIP3   OH248530   3.528   4.799   9.115 -0.2782 -0.6165  0.3319
 8112TIP3    H148531   3.493   4.715   9.084 -1.2202 -0.5421  1.1681
 8112TIP3    H248532   3.464   4.830   9.179  0.0607  0.7424  0.0430
 8113TIP3   OH248533   4.707   4.315  10.283 -0.6944 -0.1036 -0.3635
 8113TIP3    H148534   4.786   4.330  10.335 -0.8977 -1.4210  0.3595
 8113TIP3    H248535   4.664   4.401  10.280 -0.8360 -0.0354  1.9288
 8114TIP3   OH248536   5.800   2.618   9.775 -0.5787  0.9886  0.0390
 8114TIP3    H148537   5.863   2.662   9.718  1.3975  1.1239  2.1931
 8114TIP3    H248538   5.738   2.687   9.799 -1.0206  1.0974 -1.3214
 8115TIP3   OH248539   4.660   3.451   8.691 -0.0394  0.5709  0.3854
 8115TIP3    H148540   4.710   3.485   8.618  1.1356  2.0589  1.8082
 8115TIP3    H248541   4.644   3.527   8.747 -2.3583 -0.2088  0.8775
 8116TIP3   OH248542   2.322   3.341   9.474 -1.0488 -0.2561 -0.2739
 8116TIP3    H148543   2.358   3.313   9.389 -0.5258  0.1105 -0.1817
 8116TIP3    H248544   2.242   3.291   9.484 -0.8420 -0.6904 -0.7484
 8117TIP3   OH248545   5.039   5.625   9.744 -0.2871 -0.3779 -0.3266
 8117TIP3    H148546   5.108   5.664   9.797 -0.6616  0.1714 -0.2372
 8117TIP3    H248547   5.003   5.698   9.694 -1.5677 -0.4206  0.4793
 8118TIP3   OH248548   3.346   4.989  11.905 -0.2990  0.5763 -0.5323
 8118TIP3    H148549   3.404   4.917  11.880  0.5286  1.2283 -0.5326
 8118TIP3    H248550   3.359   5.000  11.999 -0.9774  0.2487 -0.3943
 8119TIP3   OH248551   1.909   5.739  12.445  0.5299 -0.1153 -0.2238
 8119TIP3    H148552   1.865   5.814  12.484 -1.3107 -1.3327  0.1715
 8119TIP3    H248553   1.963   5.777  12.375 -0.7923  1.5327 -0.4310
 8120TIP3   OH248554   1.030   5.308  10.118 -0.1821 -0.2822  0.0053
 8120TIP3    H148555   1.029   5.404  10.121 -0.0521 -0.3036  1.0644
 8120TIP3    H248556   0.949   5.282  10.161  0.1533 -0.6537  0.4194
 8121TIP3   OH248557   1.231   2.710  10.157  0.4483 -0.2208  0.0158
 8121TIP3    H148558   1.188   2.749  10.233 -0.5765 -1.4807  0.1213
 8121TIP3    H248559   1.217   2.773  10.087  0.8123  0.6445  0.7136
 8122TIP3   OH248560   2.535   0.190  18.477 -0.1111 -0.7617  0.5867
 8122TIP3    H148561   2.584   0.213  18.557  0.3983  0.0492  0.0558
 8122TIP3    H248562   2.450   0.161  18.509 -0.1013  0.0547  1.4113
 8123TIP3   OH248563   5.054   3.537  10.034 -0.6802 -0.2128  0.3665
 8123TIP3    H148564   5.013   3.613  10.076  0.4234  0.5659  0.0917
 8123TIP3    H248565   5.004   3.523   9.954 -2.0258 -0.9257  1.3107
 8124TIP3   OH248566   2.057   5.720   8.514 -0.0622  0.1395 -0.1742
 8124TIP3    H148567   2.134   5.759   8.474  0.9004 -1.3017  0.1898
 8124TIP3    H248568   1.984   5.774   8.485  1.0585  1.4062 -0.6954
 8125TIP3   OH248569   1.951   0.349   8.996  0.1458  0.0898  0.0284
 8125TIP3    H148570   1.955   0.266   9.042  0.2039 -0.5749 -1.1269
 8125TIP3    H248571   2.020   0.343   8.929 -0.2635  0.8032 -0.4728
 8126TIP3   OH248572   2.349   2.478  11.710 -0.1282 -0.3029  0.4644
 8126TIP3    H148573   2.439   2.445  11.716 -0.6169 -1.7183  0.3623
 8126TIP3    H248574   2.300   2.407  11.668 -1.5697 -0.1020  1.7339
 8127TIP3   OH248575   5.332   1.490   9.746  0.0806 -0.3441  0.5081
 8127TIP3    H148576   5.257   1.549   9.759 -0.8815 -1.3194 -0.4537
 8127TIP3    H248577   5.335   1.475   9.652  2.6570  1.1178  0.2720
 8128TIP3   OH248578   6.123   3.777  10.532 -0.4166  0.6749  0.7830
 8128TIP3    H148579   6.201   3.758  10.480 -1.3761  1.5520 -1.0554
 8128TIP3    H248580   6.157   3.801  10.618  1.1679 -1.7695  0.9379
 8129TIP3   OH248581   5.065   5.280  11.290  0.5527  0.0703 -0.3260
 8129TIP3    H148582   5.066   5.371  11.260 -0.2656  0.9294  1.9620
 8129TIP3    H248583   4.972   5.261  11.303  0.6943 -1.2456 -1.1144
 8130TIP3   OH248584   3.544   3.967  10.056 -0.1980  0.0567  0.2989
 8130TIP3    H148585   3.512   3.917   9.982 -1.6074  1.7913 -0.3331
 8130TIP3    H248586   3.590   3.903  10.110 -1.7368 -1.8606 -0.5461
 8131TIP3   OH248587   2.126   3.909  10.381  0.1037  0.0600  0.1152
 8131TIP3    H148588   2.150   3.848  10.311 -2.4339 -0.3921 -0.4673
 8131TIP3    H248589   2.080   3.980  10.336 -4.0099 -1.5300  1.3726
 8132TIP3   OH248590   3.622   1.443  11.235 -0.0277 -0.6200  0.3907
 8132TIP3    H148591   3.609   1.513  11.299 -2.4377  0.1402 -0.8215
 8132TIP3    H248592   3.715   1.421  11.242  0.8458  2.7149  0.7908
 8133TIP3   OH248593   1.632   4.642  11.159  0.0061  0.5803 -0.7444
 8133TIP3    H148594   1.699   4.710  11.160 -1.3214  1.9327  0.1040
 8133TIP3    H248595   1.595   4.643  11.247  0.2383 -1.5940 -0.5479
 8134TIP3   OH248596   4.321   2.366  17.684  0.4374 -0.2416  0.0478
 8134TIP3    H148597   4.351   2.293  17.738  1.4985  0.2498  0.1414
 8134TIP3    H248598   4.363   2.351  17.599 -0.2219 -0.3329 -0.2661
 8135TIP3   OH248599   5.674   1.516  11.242 -0.4722 -0.3663 -0.1361
 8135TIP3    H148600   5.698   1.603  11.272  1.0817 -1.3933  1.7881
 8135TIP3    H248601   5.579   1.519  11.234 -0.5103  1.2881  0.5459
 8136TIP3   OH248602   0.751   2.133  10.490 -0.3175 -0.5167 -0.3951
 8136TIP3    H148603   0.813   2.190  10.535 -0.3472 -0.1270 -0.8413
 8136TIP3    H248604   0.754   2.051  10.539 -1.6635  0.4542  1.3903
 8137TIP3   OH248605   4.794   2.279   9.040  1.1022 -0.2614  0.6367
 8137TIP3    H148606   4.887   2.269   9.019  1.0568  0.6999 -0.0840
 8137TIP3    H248607   4.794   2.337   9.116  1.0573  0.5411  0.0288
 8138TIP3   OH248608   4.018   3.698  10.218  0.6099  0.2746 -0.7333
 8138TIP3    H148609   4.013   3.749  10.137  1.0018  0.5545 -0.5833
 8138TIP3    H248610   4.092   3.736  10.266  0.6747 -0.1966 -0.4555
 8139TIP3   OH248611   5.398   2.894  10.319 -0.4256 -0.5793  0.0075
 8139TIP3    H148612   5.400   2.813  10.267 -0.9896 -0.3731 -0.3409
 8139TIP3    H248613   5.440   2.959  10.263 -0.5072 -0.4923  0.0470
 8140TIP3   OH248614   3.090   0.347  11.496  0.0355 -0.2746  0.3879
 8140TIP3    H148615   3.162   0.304  11.450  0.0088  0.8402 -0.7490
 8140TIP3    H248616   3.130   0.383  11.575  0.5971 -0.2112  0.0837
 8141TIP3   OH248617   1.216   1.177   9.050  0.4624 -0.1253  0.3212
 8141TIP3    H148618   1.278   1.118   9.007 -0.1973 -1.1869  0.7937
 8141TIP3    H248619   1.137   1.125   9.062 -0.0505  0.7742  1.0051
 8142TIP3   OH248620   4.939   2.749   8.844  0.2754 -0.4480 -0.4402
 8142TIP3    H148621   4.940   2.672   8.787 -2.4717 -1.3255  0.5677
 8142TIP3    H248622   4.908   2.821   8.788 -0.8500 -0.9434 -0.4635
 8143TIP3   OH248623   4.812   4.239   9.355  0.1664 -0.1876 -0.4502
 8143TIP3    H148624   4.783   4.149   9.343  2.2738 -0.6083 -3.4337
 8143TIP3    H248625   4.898   4.231   9.397  0.3446  0.4236 -0.6827
 8144TIP3   OH248626   5.785   6.025   9.747 -0.0202 -0.3928 -0.4264
 8144TIP3    H148627   5.755   6.114   9.727  0.5448 -0.0367  0.2519
 8144TIP3    H248628   5.819   5.991   9.665 -1.3403 -0.4317 -0.9783
 8145TIP3   OH248629   2.512   4.512   8.960 -0.0688 -0.5934  0.8319
 8145TIP3    H148630   2.509   4.608   8.961  1.5182 -0.5049  0.2580
 8145TIP3    H248631   2.477   4.488   8.874 -0.3206 -0.5220  0.9141
 8146TIP3   OH248632   4.533   4.948  10.998  0.3082  0.4208 -0.4834
 8146TIP3    H148633   4.581   4.874  11.036  1.1288  1.0616 -0.2365
 8146TIP3    H248634   4.460   4.963  11.058  0.0356 -0.2803 -0.6234
 8147TIP3   OH248635   1.780   5.669   8.803 -0.2481 -0.0259  0.0740
 8147TIP3    H148636   1.858   5.715   8.834 -0.7522  2.8678 -2.5170
 8147TIP3    H248637   1.807   5.628   8.721 -1.3925  1.2126 -0.9798
 8148TIP3   OH248638   5.422   2.028   9.687  0.4372  0.4454  0.0397
 8148TIP3    H148639   5.356   2.097   9.686 -0.8774 -0.7633  0.0920
 8148TIP3    H248640   5.487   2.056   9.622 -1.8182  0.1084 -2.5611
 8149TIP3   OH248641   0.511   5.134  11.588 -0.0694  0.4503 -0.4167
 8149TIP3    H148642   0.472   5.094  11.666 -0.0550 -0.5196 -0.8867
 8149TIP3    H248643   0.472   5.221  11.583 -1.8594 -0.3301 -0.6446
 8150TIP3   OH248644   0.099   0.465   9.753  0.0408 -0.6838  0.5369
 8150TIP3    H148645   0.077   0.379   9.789  1.6051 -2.2009 -1.8700
 8150TIP3    H248646   0.176   0.493   9.803 -0.0318 -1.0411  0.8532
 8151TIP3   OH248647   5.024   5.132   9.148  0.0090  0.3028 -0.0464
 8151TIP3    H148648   5.117   5.121   9.128 -0.3394 -0.6563 -1.2749
 8151TIP3    H248649   5.015   5.226   9.166  1.1229  0.4993 -0.3747
 8152TIP3   OH248650   0.524   3.650   9.003 -0.1229 -0.3548 -0.4303
 8152TIP3    H148651   0.481   3.669   9.087  1.5136  0.3335  0.2945
 8152TIP3    H248652   0.516   3.555   8.994 -0.5836 -0.4070  0.3647
 8153TIP3   OH248653   0.801   3.656   9.868  0.2694  0.8652 -0.5327
 8153TIP3    H148654   0.734   3.661   9.936  0.7832  0.6503 -0.0005
 8153TIP3    H248655   0.840   3.569   9.880  0.9499  1.1650 -0.5408
 8154TIP3   OH248656   2.101   2.004  11.502 -0.1352  0.7171  0.9942
 8154TIP3    H148657   2.030   1.952  11.540 -0.7025  1.5680  1.1113
 8154TIP3    H248658   2.063   2.043  11.424  0.8086 -0.4427 -0.1091
 8155TIP3   OH248659   1.519   3.295  11.966  0.2158 -0.3665  0.7207
 8155TIP3    H148660   1.605   3.254  11.954  0.8242  1.1467 -0.2994
 8155TIP3    H248661   1.458   3.221  11.972  1.1300 -1.4508 -1.9808
 8156TIP3   OH248662   0.710   5.163   8.959  0.3664  0.0741  0.1939
 8156TIP3    H148663   0.634   5.211   8.928 -0.7562 -0.4914  1.9006
 8156TIP3    H248664   0.777   5.178   8.893 -1.2184  0.5806 -1.3672
 8157TIP3   OH248665   4.833   2.710  10.304  0.0861  0.1701  0.3193
 8157TIP3    H148666   4.877   2.728  10.221  1.3324 -1.4294  0.5992
 8157TIP3    H248667   4.821   2.615  10.305 -0.7359  0.2694  1.5804
 8158TIP3   OH248668   6.252   2.193   9.704  0.8103  0.6867  0.0166
 8158TIP3    H148669   6.184   2.126   9.709 -0.5434  2.0359  0.9851
 8158TIP3    H248670   6.232   2.241   9.624 -0.1581  1.7990  0.8782
 8159TIP3   OH248671   1.338   6.295  10.782 -0.3395  0.2788  0.1205
 8159TIP3    H148672   1.275   6.257  10.844 -0.6079  0.1557 -0.2252
 8159TIP3    H248673   1.303   6.381  10.762 -0.0400  0.4798  0.4468
 8160TIP3   OH248674   5.414   6.653  10.330 -0.1151  0.2116  0.0195
 8160TIP3    H148675   5.460   6.584  10.379 -1.0070 -1.1613 -0.9860
 8160TIP3    H248676   5.469   6.730  10.340  0.8570 -0.5933  1.3201
 8161TIP3   OH248677   3.096   0.943  10.154 -0.5088  0.2375  0.9830
 8161TIP3    H148678   3.121   0.949  10.247  0.6124  0.5120  0.6773
 8161TIP3    H248679   3.160   0.998  10.109 -1.3983  0.5655  0.1014
 8162TIP3   OH248680   2.117   4.003  12.194 -0.0360 -0.1275 -0.1662
 8162TIP3    H148681   2.092   4.023  12.284  1.3599 -0.5508  0.3518
 8162TIP3    H248682   2.096   4.082  12.145  2.3082  1.4668  1.2046
 8163TIP3   OH248683   4.001   5.652  10.658 -0.1920 -0.4927 -0.0076
 8163TIP3    H148684   3.953   5.611  10.730 -2.1389  1.2379 -0.2380
 8163TIP3    H248685   3.945   5.638  10.581  1.1748 -1.0764 -0.9433
 8164TIP3   OH248686   5.999   4.632   8.960 -0.4364 -0.2951  0.0535
 8164TIP3    H148687   6.087   4.663   8.938  0.3973 -3.0730 -0.9539
 8164TIP3    H248688   5.948   4.646   8.880 -0.4254 -0.2843  0.0483
 8165TIP3   OH248689   0.700   6.240   9.265  0.0489 -0.4255 -0.1722
 8165TIP3    H148690   0.788   6.275   9.259 -0.7518  2.3286  2.2649
 8165TIP3    H248691   0.651   6.286   9.196  0.1065 -0.6219 -0.3459
 8166TIP3   OH248692   0.195   5.524   8.861  0.0880 -0.2507  0.2737
 8166TIP3    H148693   0.266   5.497   8.802 -2.3517 -0.4422 -2.8577
 8166TIP3    H248694   0.207   5.618   8.872 -0.5591  0.2508 -2.4903
 8167TIP3   OH248695   5.897   3.023   8.423  0.2190  0.0730 -0.3698
 8167TIP3    H148696   5.905   3.078   8.345 -0.2725  1.3771  0.4585
 8167TIP3    H248697   5.814   3.051   8.463  0.9782  0.1982  1.1824
 8168TIP3   OH248698   2.290   1.614  10.384  0.4427 -0.3003  0.4302
 8168TIP3    H148699   2.288   1.679  10.454  1.6710  3.3311 -2.6097
 8168TIP3    H248700   2.378   1.577  10.389  0.4489 -0.2374  0.8822
 8169TIP3   OH248701   6.388   6.767  10.208 -0.3667 -0.1023 -0.3301
 8169TIP3    H148702   6.312   6.825  10.196 -0.3944  0.5293  2.2129
 8169TIP3    H248703   6.362   6.684  10.169 -2.2424  0.2207  0.1503
 8170TIP3   OH248704   3.673   1.680  10.650  0.6597 -0.3354  0.0239
 8170TIP3    H148705   3.643   1.753  10.704  1.7770 -0.6996  1.1861
 8170TIP3    H248706   3.595   1.627  10.635  0.0232  0.6156 -0.0627
 8171TIP3   OH248707   6.771   3.814  11.081 -0.0224 -0.1168 -0.3203
 8171TIP3    H148708   6.725   3.888  11.121 -0.6598 -0.2517 -0.8038
 8171TIP3    H248709   6.839   3.854  11.027 -0.1984  0.1094 -0.3743
 8172TIP3   OH248710   0.776   4.402   9.793 -0.3716 -0.4777  0.7045
 8172TIP3    H148711   0.831   4.480   9.792  0.5524 -1.0364 -1.9190
 8172TIP3    H248712   0.713   4.417   9.722  0.3699 -2.3964 -0.4366
 8173TIP3   OH248713   6.120   5.975  11.268  0.3764 -0.1378 -0.1318
 8173TIP3    H148714   6.170   6.056  11.265  1.7194 -0.9091  0.3000
 8173TIP3    H248715   6.069   5.981  11.348 -0.6992  0.9169 -0.8753
 8174TIP3   OH248716   2.116   4.186  11.169 -0.5616 -0.1394  0.1360
 8174TIP3    H148717   2.050   4.211  11.104 -0.1311 -0.1203 -0.3017
 8174TIP3    H248718   2.195   4.234  11.143  0.5270 -2.4990 -1.1887
 8175TIP3   OH248719   2.505   3.025  10.825  0.4435  0.0822 -0.4267
 8175TIP3    H148720   2.522   3.075  10.745  0.4606 -0.7638 -0.9634
 8175TIP3    H248721   2.522   2.934  10.801  0.1043 -0.2253  0.4450
 8176TIP3   OH248722   0.083   0.967  11.243  0.2584 -0.4074  0.2110
 8176TIP3    H148723   0.011   1.027  11.227 -0.2764 -1.1467 -0.1689
 8176TIP3    H248724   0.146   0.985  11.172 -0.6637 -1.4532 -0.9117
 8177TIP3   OH248725   5.685   5.525  10.057  0.1933  0.1654  0.5445
 8177TIP3    H148726   5.712   5.516  10.149 -1.2526 -0.8598  0.9090
 8177TIP3    H248727   5.747   5.472  10.008 -1.0188 -2.1713  1.3654
 8178TIP3   OH248728   3.259   3.270  11.591 -0.1839 -0.2800  0.1347
 8178TIP3    H148729   3.342   3.306  11.560 -1.2269  0.5788 -1.7989
 8178TIP3    H248730   3.271   3.265  11.686  2.5612 -1.4993 -0.1634
 8179TIP3   OH248731   2.651   0.197  11.206 -0.1873 -0.1674  0.2082
 8179TIP3    H148732   2.739   0.231  11.221  0.2042 -0.5145 -1.2118
 8179TIP3    H248733   2.599   0.275  11.187  0.4567 -0.1756 -1.8413
 8180TIP3   OH248734   6.707   3.874  10.527  0.5318  0.2008 -0.5539
 8180TIP3    H148735   6.791   3.850  10.488  0.0756 -0.7564 -0.9670
 8180TIP3    H248736   6.688   3.805  10.590 -0.5682 -0.3162 -1.4130
 8181TIP3   OH248737   6.165   3.952   8.832  0.3523  0.2005  0.3186
 8181TIP3    H148738   6.215   3.913   8.904  1.9294  0.6088 -0.5225
 8181TIP3    H248739   6.134   3.878   8.781  0.7640 -0.0461  0.4212
 8182TIP3   OH248740   6.643   5.839   9.576  0.0456  0.8549 -0.3964
 8182TIP3    H148741   6.611   5.907   9.636  1.7830  0.8807  0.5810
 8182TIP3    H248742   6.623   5.757   9.621 -0.8535  0.7573 -0.9554
 8183TIP3   OH248743   3.111   4.242  10.961 -0.1892  0.2652  0.4072
 8183TIP3    H148744   3.038   4.304  10.952 -0.3980 -0.0256  0.0855
 8183TIP3    H248745   3.100   4.206  11.049  0.2465  1.0746  0.8019
 8184TIP3   OH248746   0.970   4.612  11.187 -0.0640 -0.3204  0.7339
 8184TIP3    H148747   0.937   4.662  11.261 -1.5713 -1.0311  0.5718
 8184TIP3    H248748   0.982   4.523  11.222 -0.8044 -0.6652  0.1315
 8185TIP3   OH248749   2.222   0.533  11.542  0.0887 -0.3580 -0.0646
 8185TIP3    H148750   2.182   0.528  11.628 -0.9155  2.1879 -0.3001
 8185TIP3    H248751   2.280   0.609  11.546  1.3187 -1.1798 -1.1650
 8186TIP3   OH248752   0.967   0.171   9.058  0.4137 -0.1024 -0.3643
 8186TIP3    H148753   0.881   0.130   9.074 -0.7766  2.2114 -0.4498
 8186TIP3    H248754   0.969   0.183   8.963  0.8364 -0.1377 -0.3584
 8187TIP3   OH248755   3.472   0.965  10.492 -0.0764 -0.2662  0.4857
 8187TIP3    H148756   3.521   1.026  10.548 -1.1964  1.0943  0.0546
 8187TIP3    H248757   3.498   0.878  10.522  1.4406  0.4147  1.2584
 8188TIP3   OH248758   0.285   5.888   8.637  0.0814 -0.0549  0.5431
 8188TIP3    H148759   0.337   5.857   8.563  0.6277  0.3895  0.7391
 8188TIP3    H248760   0.218   5.819   8.649  0.2216 -0.3146 -0.1095
 8189TIP3   OH248761   1.980   2.548   9.820  0.6493  0.4681  0.1850
 8189TIP3    H148762   2.058   2.495   9.837  0.1887 -0.4180 -0.3827
 8189TIP3    H248763   1.936   2.554   9.904  0.0294 -1.1882  0.0227
 8190TIP3   OH248764   4.793   0.298  10.100 -0.0439 -0.7498 -0.4488
 8190TIP3    H148765   4.752   0.224  10.145  3.4678 -2.2334  0.6510
 8190TIP3    H248766   4.787   0.370  10.162 -0.3708 -1.1121 -0.0552
 8191TIP3   OH248767   2.323   2.124   9.224 -0.2554 -0.0621  0.4446
 8191TIP3    H148768   2.250   2.130   9.286  1.0128 -0.7035  2.0773
 8191TIP3    H248769   2.365   2.211   9.228  0.0528 -0.2215  0.8146
 8192TIP3   OH248770   2.560   5.239   9.711  0.2336  0.0743  0.2471
 8192TIP3    H148771   2.552   5.251   9.806 -0.3343 -0.5945  0.2970
 8192TIP3    H248772   2.540   5.146   9.697  0.0801  0.2181 -0.5487
 8193TIP3   OH248773   2.536   6.280   8.932  0.3981  0.8588 -0.6682
 8193TIP3    H148774   2.493   6.308   8.852  0.5050  1.7051 -0.4373
 8193TIP3    H248775   2.520   6.351   8.994 -1.3317 -0.5858  0.6780
 8194TIP3   OH248776   3.206   3.022  10.681  0.0934  0.0866  0.0642
 8194TIP3    H148777   3.174   3.001  10.593  0.0940 -0.1442  0.1183
 8194TIP3    H248778   3.251   2.943  10.709  0.3750  0.2743  0.1435
 8195TIP3   OH248779   0.923   6.574  11.650  0.4336  0.2885  0.0462
 8195TIP3    H148780   1.001   6.550  11.701  0.6731  0.0137 -0.4491
 8195TIP3    H248781   0.886   6.649  11.697  0.7403  0.1353  0.5388
 8196TIP3   OH248782   6.734   3.016  10.157 -0.4938 -0.3143 -0.6180
 8196TIP3    H148783   6.701   2.928  10.178 -0.7213 -0.1255 -0.1756
 8196TIP3    H248784   6.710   3.069  10.233  0.8263 -0.1742 -0.2673
 8197TIP3   OH248785   0.898   1.505   9.139  0.2218  0.6845 -0.0356
 8197TIP3    H148786   0.819   1.554   9.165 -1.6097 -0.8568 -2.2142
 8197TIP3    H248787   0.866   1.442   9.074  3.2817 -0.0812 -0.9603
 8198TIP3   OH248788   2.362   3.917  10.621  0.3044  0.2189  0.0628
 8198TIP3    H148789   2.386   4.002  10.659 -0.1767  0.4894 -0.2358
 8198TIP3    H248790   2.338   3.937  10.531  2.0354 -0.5058 -0.5968
 8199TIP3   OH248791   1.798   2.105   8.553 -0.2853  0.1205 -0.3250
 8199TIP3    H148792   1.883   2.130   8.518  0.3257 -2.2485 -0.7036
 8199TIP3    H248793   1.781   2.168   8.623  3.2629 -1.1860  1.9452
 8200TIP3   OH248794   1.000   4.556   9.734 -0.3409  0.1113 -0.3728
 8200TIP3    H148795   1.061   4.623   9.703 -0.8814  0.4530 -0.7023
 8200TIP3    H248796   1.056   4.483   9.760  0.1997  0.3183 -0.9302
 8201TIP3   OH248797   5.901   3.098  10.775  0.1121 -0.1508  0.3969
 8201TIP3    H148798   5.927   3.064  10.860  0.8905  1.9527  1.0646
 8201TIP3    H248799   5.805   3.090  10.774  0.1139 -0.3850  1.3659
 8202TIP3   OH248800   4.338   3.710  10.573 -0.2913 -0.1212  0.0724
 8202TIP3    H148801   4.409   3.675  10.520 -0.4314  1.9040 -1.5833
 8202TIP3    H248802   4.259   3.692  10.523 -0.7755 -0.7438  1.0260
 8203TIP3   OH248803   3.568   2.264   9.661  0.1516 -0.1820 -0.0658
 8203TIP3    H148804   3.647   2.260   9.607  0.5421  2.8626  0.1079
 8203TIP3    H248805   3.598   2.291   9.747 -1.0131  0.4514  0.1643
 8204TIP3   OH248806   2.111   0.518   9.747 -0.3337  0.2425  0.4609
 8204TIP3    H148807   2.026   0.500   9.706 -0.5383 -0.4168  1.1570
 8204TIP3    H248808   2.091   0.578   9.819 -0.4816 -1.2365  1.7004
 8205TIP3   OH248809   5.469   1.913   9.920 -0.4200  0.0969  0.2122
 8205TIP3    H148810   5.457   1.969   9.843 -0.8215 -1.0740 -0.5962
 8205TIP3    H248811   5.558   1.932   9.949 -0.4543  0.9527 -0.2021
 8206TIP3   OH248812   6.191   0.622  11.682 -0.2163  0.4061 -0.5965
 8206TIP3    H148813   6.215   0.600  11.772  1.2688  1.2963 -0.7588
 8206TIP3    H248814   6.156   0.711  11.687  2.2043  1.4849 -1.1883
 8207TIP3   OH248815   5.174   2.546  10.540  0.2439  0.5087  0.3315
 8207TIP3    H148816   5.264   2.541  10.507 -0.0211  1.2200 -0.5290
 8207TIP3    H248817   5.137   2.460  10.523  0.1468  0.8286 -1.1493
 8208TIP3   OH248818   1.823   0.170  11.033  0.2855 -0.0857 -0.7161
 8208TIP3    H148819   1.744   0.212  11.001  1.0672  0.5509 -1.8829
 8208TIP3    H248820   1.879   0.161  10.956  1.7828  0.4649  0.2429
 8209TIP3   OH248821   5.929   5.400  10.945 -0.4415 -0.2815  0.1365
 8209TIP3    H148822   5.946   5.452  10.866 -0.1176 -0.3113  0.1832
 8209TIP3    H248823   5.955   5.457  11.017 -0.0171 -0.5294  0.1842
 8210TIP3   OH248824   2.357   3.962  12.583 -0.1408  0.0794 -0.3893
 8210TIP3    H148825   2.435   3.942  12.634  0.6416  2.0942 -0.7063
 8210TIP3    H248826   2.284   3.942  12.642  0.6991  0.7465  0.9243
 8211TIP3   OH248827   2.985   6.575  10.417  0.0494 -0.2675  0.3704
 8211TIP3    H148828   3.073   6.611  10.409  0.0567 -0.4652 -0.5623
 8211TIP3    H248829   2.973   6.563  10.511  0.4551  1.1369  0.6299
 8212TIP3   OH248830   1.066   0.972  10.457 -0.4157 -0.3587  0.0517
 8212TIP3    H148831   1.140   0.912  10.448  0.1346  0.3563 -0.3525
 8212TIP3    H248832   1.019   0.964  10.374 -1.8745 -2.1675  0.9861
 8213TIP3   OH248833   0.315   3.492   9.576 -0.1115 -0.2614  0.1763
 8213TIP3    H148834   0.283   3.469   9.663 -1.9939 -0.1310 -0.4289
 8213TIP3    H248835   0.302   3.587   9.570  0.8297 -0.1302  0.0519
 8214TIP3   OH248836   2.558   2.291  11.701  0.5660  0.4838  0.2701
 8214TIP3    H148837   2.565   2.212  11.647  1.7624  1.2722 -0.7973
 8214TIP3    H248838   2.632   2.286  11.761 -1.1855 -0.7751  2.4965
 8215TIP3   OH248839   2.234   6.259  10.228 -0.2372  0.5213  0.5500
 8215TIP3    H148840   2.205   6.175  10.194 -0.4310 -0.1897  2.4051
 8215TIP3    H248841   2.223   6.320  10.154 -1.9533 -0.6611 -0.2231
 8216TIP3   OH248842   5.259   2.633   8.651  0.2048  0.4300 -0.1307
 8216TIP3    H148843   5.327   2.666   8.593  0.6524 -1.1515 -0.5668
 8216TIP3    H248844   5.216   2.564   8.600 -1.8971  1.5526  0.0460
 8217TIP3   OH248845   5.551   6.186  10.306 -0.3944 -0.2290  0.0675
 8217TIP3    H148846   5.595   6.236  10.375  0.5015  0.4448 -0.9659
 8217TIP3    H248847   5.622   6.161  10.246 -1.3480  0.4893 -1.4024
 8218TIP3   OH248848   2.815   3.916  10.636 -1.1351 -0.0540 -0.4242
 8218TIP3    H148849   2.799   3.900  10.729 -3.8431  1.1368 -0.5989
 8218TIP3    H248850   2.856   3.835  10.605 -2.3302 -1.4211  1.3392
 8219TIP3   OH248851   4.709   2.862  11.512 -0.0091 -0.3209  0.0785
 8219TIP3    H148852   4.762   2.881  11.590 -0.4642  0.6764  0.1635
 8219TIP3    H248853   4.766   2.886  11.439  0.5163 -1.5108  0.0820
 8220TIP3   OH248854   1.842   4.024  10.609  0.1007 -0.2557  0.8624
 8220TIP3    H148855   1.788   4.092  10.569 -1.2529 -1.2826  0.8657
 8220TIP3    H248856   1.810   4.018  10.699 -0.1867 -1.2540  0.7097
 8221TIP3   OH248857   3.563   0.730  10.253 -0.8178 -0.3761  0.4830
 8221TIP3    H148858   3.539   0.696  10.339  0.2190  0.8215  1.2817
 8221TIP3    H248859   3.481   0.764  10.217 -1.3946 -1.5053  0.6833
 8222TIP3   OH248860   2.405   6.103  12.035 -0.0605  0.3708 -0.1092
 8222TIP3    H148861   2.320   6.060  12.028 -0.0628  0.4991 -1.0517
 8222TIP3    H248862   2.386   6.189  12.073 -0.3886  0.4743 -0.5008
 8223TIP3   OH248863   0.620   5.419  10.874  0.0951 -0.6168  0.0098
 8223TIP3    H148864   0.537   5.382  10.906  0.0231 -0.0842  0.4515
 8223TIP3    H248865   0.684   5.394  10.941 -0.3502  1.8693  1.4589
 8224TIP3   OH248866   3.409   1.265   8.679 -0.1406 -0.0580 -0.0723
 8224TIP3    H148867   3.359   1.188   8.707 -0.5399 -0.2251 -1.2026
 8224TIP3    H248868   3.364   1.339   8.719 -0.2851 -0.3366  0.2917
 8225TIP3   OH248869   0.023   0.297  10.034 -0.2032 -0.8807  0.0124
 8225TIP3    H148870  -0.060   0.330   9.999  0.8307  1.5094 -0.4212
 8225TIP3    H248871   0.013   0.307  10.129 -0.6814 -1.3299  0.0151
 8226TIP3   OH248872   1.724   4.590   9.329 -0.4003 -0.8983  0.1947
 8226TIP3    H148873   1.644   4.636   9.303  0.4306 -0.8869 -2.6197
 8226TIP3    H248874   1.743   4.624   9.417 -3.6890 -1.2706  1.2076
 8227TIP3   OH248875   1.413   1.725  11.181 -0.0418 -0.1064 -0.1605
 8227TIP3    H148876   1.449   1.759  11.099  1.4191 -1.0779  0.0397
 8227TIP3    H248877   1.361   1.649  11.154 -1.5008  0.9197 -0.3822
 8228TIP3   OH248878   4.511   6.779   9.878  0.3041 -0.4118 -0.1473
 8228TIP3    H148879   4.482   6.851   9.934  0.9630 -1.0878  1.1123
 8228TIP3    H248880   4.441   6.715   9.883  0.2447 -0.3607 -0.3175
 8229TIP3   OH248881   5.625   4.394  12.228  0.1812 -0.6570 -0.2611
 8229TIP3    H148882   5.699   4.377  12.169 -1.2027 -2.3860 -1.6173
 8229TIP3    H248883   5.580   4.310  12.235 -2.5396  0.6311 -0.7804
 8230TIP3   OH248884   2.383   6.506   9.076  0.8989 -0.1025  0.0148
 8230TIP3    H148885   2.407   6.472   9.162  1.4510 -0.6058 -0.3360
 8230TIP3    H248886   2.463   6.545   9.041  0.8008 -0.3435 -0.4845
 8231TIP3   OH248887   5.523   5.925   9.625 -0.5742 -0.0082  0.7240
 8231TIP3    H148888   5.577   5.953   9.699  0.6940 -1.1977  0.2891
 8231TIP3    H248889   5.489   5.840   9.650 -0.2031 -0.3829 -0.0116
 8232TIP3   OH248890   4.544   3.318   8.979  0.3756  0.0698 -0.0393
 8232TIP3    H148891   4.450   3.315   8.995  0.2130 -1.9873 -1.1494
 8232TIP3    H248892   4.555   3.386   8.912 -0.5042 -0.7004 -0.9887
 8233TIP3   OH248893   3.607   2.240  10.690 -0.4036  0.5422 -0.2160
 8233TIP3    H148894   3.628   2.254  10.782 -1.8934 -1.3256  0.4693
 8233TIP3    H248895   3.521   2.280  10.678 -0.4879  0.2446 -0.6402
 8234TIP3   OH248896   4.780   2.765   9.073  0.2954 -0.5805 -0.1016
 8234TIP3    H148897   4.846   2.801   9.014 -0.3773  0.6841 -0.1134
 8234TIP3    H248898   4.829   2.708   9.132  1.1689 -0.8569 -1.0601
 8235TIP3   OH248899   4.513   3.965  12.450 -0.0997  0.3050 -0.1652
 8235TIP3    H148900   4.504   3.871  12.436  1.7384 -0.0647  0.6972
 8235TIP3    H248901   4.424   3.998  12.459 -0.8460 -1.0757 -2.0775
 8236TIP3   OH248902   4.807   5.886  11.317  0.4376 -0.0505  0.7835
 8236TIP3    H148903   4.788   5.918  11.229  1.8267 -2.3243 -0.4539
 8236TIP3    H248904   4.852   5.958  11.360 -1.0372  1.4152 -0.0403
 8237TIP3   OH248905   1.577   4.220  10.527 -0.8283 -0.1753 -0.4212
 8237TIP3    H148906   1.500   4.176  10.561 -0.4618  0.2439  1.0037
 8237TIP3    H248907   1.545   4.270  10.451 -1.7637 -0.7202 -0.3906
 8238TIP3   OH248908   0.647   2.381   9.434 -0.0736 -0.4091 -0.4265
 8238TIP3    H148909   0.681   2.470   9.424 -0.9697  0.0233  0.2179
 8238TIP3    H248910   0.690   2.331   9.365  1.4680  0.2163  0.0260
 8239TIP3   OH248911   6.300   0.309   9.113 -0.5212  0.3803 -0.6347
 8239TIP3    H148912   6.323   0.388   9.161  1.4018 -0.7453  0.4494
 8239TIP3    H248913   6.290   0.338   9.022 -1.2023  2.0577 -0.0619
 8240TIP3   OH248914   5.913   4.896   9.152 -0.1695 -0.1720 -0.0029
 8240TIP3    H148915   5.893   4.803   9.145 -1.2388  0.1081 -0.9102
 8240TIP3    H248916   6.000   4.906   9.113  0.0502 -0.8113  0.3144
 8241TIP3   OH248917   4.362   6.613  11.852 -0.2833 -0.2884 -0.0840
 8241TIP3    H148918   4.333   6.579  11.936  0.7672 -0.2934  0.2876
 8241TIP3    H248919   4.416   6.543  11.815  1.3353  0.6703  0.3825
 8242TIP3   OH248920   4.982   4.368  10.362 -0.3599  0.2591 -0.3199
 8242TIP3    H148921   5.054   4.366  10.425 -0.5498  0.4362 -0.0973
 8242TIP3    H248922   5.005   4.300  10.298  1.2952  1.9715 -1.6772
 8243TIP3   OH248923   3.951   0.795  10.192 -0.0929 -0.4890 -0.0498
 8243TIP3    H148924   3.999   0.827  10.116  0.9953  0.7331  1.1107
 8243TIP3    H248925   3.867   0.764  10.156  0.4380 -0.0561 -1.7384
 8244TIP3   OH248926   6.101   0.014   8.859  0.3144  0.1159  0.2461
 8244TIP3    H148927   6.143   0.017   8.772  1.9538 -4.4678  0.6101
 8244TIP3    H248928   6.030  -0.049   8.849 -0.1902  0.3521  2.0075
 8245TIP3   OH248929   4.445   6.634  11.370 -0.0940 -0.0413  0.0151
 8245TIP3    H148930   4.510   6.619  11.440 -0.2051  0.1378  0.1578
 8245TIP3    H248931   4.361   6.619  11.413 -0.3215  2.3495  0.5682
 8246TIP3   OH248932   2.914   3.812   9.596 -0.0227 -0.0441  0.1153
 8246TIP3    H148933   2.928   3.892   9.646  1.1366  1.1581 -1.9876
 8246TIP3    H248934   2.821   3.791   9.609 -0.8443  2.7003 -0.6959
 8247TIP3   OH248935   1.457   2.043   9.488  0.7068  0.6567  0.1276
 8247TIP3    H148936   1.506   2.061   9.568  0.7044  0.6923  0.1209
 8247TIP3    H248937   1.421   2.128   9.462  0.3960  0.5816  0.2965
 8248TIP3   OH248938   2.757   0.687   9.440 -0.3686 -0.1594 -0.2943
 8248TIP3    H148939   2.846   0.658   9.421 -0.5833 -0.8025 -0.3129
 8248TIP3    H248940   2.769   0.757   9.505  0.2645  1.0062 -1.6165
 8249TIP3   OH248941   2.675   0.236  11.492 -0.0508 -0.3530 -0.7411
 8249TIP3    H148942   2.665   0.196  11.405 -0.3187 -0.8785 -0.4740
 8249TIP3    H248943   2.738   0.181  11.537 -0.1781 -0.2866 -0.4791
 8250TIP3   OH248944   3.291   0.007  10.614  0.3929  0.6010 -0.0122
 8250TIP3    H148945   3.235  -0.021  10.686  0.4750 -0.9450 -0.5142
 8250TIP3    H248946   3.230   0.028  10.543  0.3945  0.1682 -0.1421
 8251TIP3   OH248947   1.202   4.260  11.910 -0.2258  0.0025 -0.4485
 8251TIP3    H148948   1.160   4.345  11.900  0.3174  0.5842  1.6644
 8251TIP3    H248949   1.153   4.217  11.981  0.4115 -0.8488 -0.5027
 8252TIP3   OH248950   4.176   5.319   9.176  0.0486  0.0260  0.0749
 8252TIP3    H148951   4.106   5.383   9.188 -0.6071 -0.0405 -2.5844
 8252TIP3    H248952   4.157   5.279   9.090  2.8459 -0.6350 -0.3407
 8253TIP3   OH248953   2.412   6.758  10.789 -0.7933 -0.0560 -0.3324
 8253TIP3    H148954   2.500   6.735  10.760 -1.1752  0.1164 -1.6669
 8253TIP3    H248955   2.426   6.804  10.872  0.5557  1.8034 -1.5085
 8254TIP3   OH248956   2.747   0.291  12.174  0.9844  0.4743 -0.4365
 8254TIP3    H148957   2.777   0.359  12.235  2.1291  1.3901 -1.9370
 8254TIP3    H248958   2.818   0.226  12.175  0.3863 -0.1776  0.1939
 8255TIP3   OH248959   0.499   1.186  10.693 -0.0209  0.3969  0.0152
 8255TIP3    H148960   0.482   1.188  10.787  3.3877  0.1323  0.8010
 8255TIP3    H248961   0.489   1.094  10.669  1.5668 -0.0303  0.7942
 8256TIP3   OH248962   1.835   2.324  11.160  0.5943 -0.0012  0.2506
 8256TIP3    H148963   1.740   2.323  11.147  0.6900  1.1784 -0.6805
 8256TIP3    H248964   1.856   2.416  11.177  1.9084  0.3119 -2.4902
 8257TIP3   OH248965   3.069   1.550   8.816 -0.5859 -0.3246 -0.2759
 8257TIP3    H148966   3.163   1.537   8.800 -0.4540 -0.0539  0.2680
 8257TIP3    H248967   3.047   1.483   8.880 -0.3232  0.8445  1.0907
 8258TIP3   OH248968   2.861   5.620   9.293  0.3422  0.2061 -0.4579
 8258TIP3    H148969   2.771   5.595   9.272 -0.1211  2.8131 -2.0331
 8258TIP3    H248970   2.913   5.586   9.220  0.3779  0.1731 -0.4174
 8259TIP3   OH248971   6.300   6.080  10.192  0.7226 -0.1843 -0.2468
 8259TIP3    H148972   6.382   6.032  10.175  0.3530 -0.6896 -0.6432
 8259TIP3    H248973   6.312   6.116  10.280  1.4931  0.0056 -0.4165
 8260TIP3   OH248974   4.730   1.850   9.730  0.4058  0.1152 -0.0262
 8260TIP3    H148975   4.798   1.839   9.798 -0.4776 -1.9717  0.5875
 8260TIP3    H248976   4.765   1.804   9.654  0.6456  1.0171 -0.4838
 8261TIP3   OH248977   6.009   5.608  11.147  0.5994 -0.5061  0.2637
 8261TIP3    H148978   6.010   5.662  11.067  1.3329 -0.1556  0.5019
 8261TIP3    H248979   5.942   5.648  11.202 -0.3304 -1.1011 -0.4017
 8262TIP3   OH248980   2.842   6.245  11.116  0.0793  0.0713 -0.0412
 8262TIP3    H148981   2.841   6.290  11.201 -0.9132 -1.0837  0.5968
 8262TIP3    H248982   2.905   6.174  11.127 -0.7039 -0.6308  0.0626
 8263TIP3   OH248983   1.074   5.068  10.027 -0.7560  0.1413  0.1138
 8263TIP3    H148984   1.142   5.014  10.068 -0.0297  0.4092 -0.7032
 8263TIP3    H248985   1.077   5.151  10.074  0.5478  0.6930 -0.8830
 8264TIP3   OH248986   6.219   4.023   9.292  0.2906 -1.0289 -0.3546
 8264TIP3    H148987   6.138   4.050   9.335 -0.1556  0.4982 -1.9977
 8264TIP3    H248988   6.281   4.007   9.363 -1.0930 -1.0794  0.8928
 8265TIP3   OH248989   4.338   4.913  11.186  0.4684  0.8405  0.1923
 8265TIP3    H148990   4.297   4.856  11.122  0.8115  0.1579  0.5773
 8265TIP3    H248991   4.269   4.932  11.250  0.3576  0.8655  0.0657
 8266TIP3   OH248992   5.596   3.358  10.785  0.3392  0.3369 -0.5542
 8266TIP3    H148993   5.501   3.367  10.777  0.2974  0.0051 -0.4878
 8266TIP3    H248994   5.610   3.337  10.878  0.4972  0.6267 -0.5143
 8267TIP3   OH248995   2.877   2.090   8.675  0.0828  0.2472  0.2593
 8267TIP3    H148996   2.786   2.097   8.705  0.0546  1.1964 -0.0278
 8267TIP3    H248997   2.915   2.023   8.731 -0.3715  0.9325  1.4226
 8268TIP3   OH248998   0.539   0.700  10.007  0.1385  0.4701  0.1009
 8268TIP3    H148999   0.501   0.788  10.011 -0.7560  0.1173 -0.2015
 8268TIP3    H249000   0.631   0.714   9.986 -0.2183  1.2900 -1.0204
 8269TIP3   OH249001   3.321   3.699   8.741 -0.0484  0.6315  0.0195
 8269TIP3    H149002   3.243   3.704   8.687  0.2609 -0.2573 -0.5369
 8269TIP3    H249003   3.348   3.790   8.752 -0.8671  0.9134 -0.2089
 8270TIP3   OH249004   1.885   2.393   8.734 -0.2569 -0.6683  0.2300
 8270TIP3    H149005   1.966   2.360   8.772 -0.5883  0.6412  2.3008
 8270TIP3    H249006   1.839   2.433   8.809 -1.7048  0.7196 -1.3131
 8271TIP3   OH249007   3.388   3.370   9.617  1.2933  0.4754 -0.2293
 8271TIP3    H149008   3.357   3.452   9.578  0.2221  0.6579  0.9767
 8271TIP3    H249009   3.468   3.395   9.663  0.9738  0.8415  0.1300
 8272TIP3   OH249010   6.700   4.538   8.749 -0.0433  0.2918  0.0034
 8272TIP3    H149011   6.723   4.447   8.732  1.8229  0.1564  2.6130
 8272TIP3    H249012   6.782   4.586   8.743 -0.9375  1.8044 -1.0312
 8273TIP3   OH249013   5.143   3.289  11.317  0.3603 -0.7684  0.8255
 8273TIP3    H149014   5.196   3.323  11.388 -0.0084  0.0218  0.7266
 8273TIP3    H249015   5.176   3.200  11.303  1.0480 -0.6031  1.3611
 8274TIP3   OH249016   2.288   5.920  11.181 -0.3973  0.4235 -0.1359
 8274TIP3    H149017   2.320   6.010  11.191 -1.6060  0.9952 -1.0217
 8274TIP3    H249018   2.216   5.914  11.244  1.2135 -0.7802  1.7049
 8275TIP3   OH249019   4.213   3.254  11.508 -0.6136  0.4158 -0.2899
 8275TIP3    H149020   4.243   3.163  11.507 -1.3711  0.0650  1.9936
 8275TIP3    H249021   4.123   3.249  11.543 -0.1495  2.1141  1.3379
 8276TIP3   OH249022   0.003   1.608  10.392 -0.1812 -0.0143  0.3366
 8276TIP3    H149023  -0.075   1.663  10.390 -0.2726 -0.1479 -1.7760
 8276TIP3    H249024   0.073   1.665  10.359  0.4109 -0.2388  1.1605
 8277TIP3   OH249025   5.657   3.853   8.583  0.1126  0.4085  0.5149
 8277TIP3    H149026   5.725   3.794   8.615 -0.8781 -0.8782  0.3626
 8277TIP3    H249027   5.593   3.856   8.654 -0.9933 -0.6363 -0.3914
 8278TIP3   OH249028   4.521   1.818   9.009  0.1842 -0.8011  0.8774
 8278TIP3    H149029   4.522   1.844   8.917  1.5815 -1.1338  0.7832
 8278TIP3    H249030   4.550   1.895   9.057 -0.6503 -0.5919  1.0711
 8279TIP3   OH249031   3.818   0.539  11.724 -0.4256 -0.5335 -0.1087
 8279TIP3    H149032   3.755   0.486  11.676 -0.4889 -0.2149 -0.3855
 8279TIP3    H249033   3.901   0.494  11.713 -0.4348 -0.4445 -0.5482
 8280TIP3   OH249034   2.375   0.801  11.622  0.5586  0.0002 -0.1492
 8280TIP3    H149035   2.431   0.847  11.560 -0.0375 -1.0166 -1.4966
 8280TIP3    H249036   2.435   0.772  11.691  1.7221 -1.0430 -1.5326
 8281TIP3   OH249037   1.518   4.684  11.763  0.5107 -0.0381 -0.1979
 8281TIP3    H149038   1.502   4.628  11.838  0.7810  0.5370  0.2980
 8281TIP3    H249039   1.598   4.650  11.724 -0.3772 -1.2068 -1.0619
 8282TIP3   OH249040   6.649   5.146   9.857  0.6912  0.4881 -0.2494
 8282TIP3    H149041   6.659   5.051   9.852  0.5107  0.4482  0.0788
 8282TIP3    H249042   6.555   5.160   9.845  0.6160  0.5688  0.4108
 8283TIP3   OH249043   3.788   0.899  11.109 -0.4276 -0.4017  0.0106
 8283TIP3    H149044   3.865   0.868  11.157  2.2051  0.9495 -2.9532
 8283TIP3    H249045   3.769   0.984  11.147  0.0445 -0.4147  0.2829
 8284TIP3   OH249046   1.156   5.408   8.955  0.1743  0.3497  0.1953
 8284TIP3    H149047   1.153   5.323   8.999  2.2167  0.4958  0.7166
 8284TIP3    H249048   1.151   5.472   9.027  3.8650  0.5934  0.4098
 8285TIP3   OH249049   3.379   1.521   8.791 -0.5368 -0.2904  0.6962
 8285TIP3    H149050   3.411   1.514   8.880  1.8036  0.2275 -0.0465
 8285TIP3    H249051   3.403   1.610   8.763 -1.1267 -0.4757 -0.4940
 8286TIP3   OH249052   2.622   5.466  10.041 -0.3603  0.5820 -0.3702
 8286TIP3    H149053   2.650   5.490   9.953  1.3391 -2.5222 -0.7849
 8286TIP3    H249054   2.574   5.384  10.031 -0.7027  0.4831  1.5565
 8287TIP3   OH249055   0.508   0.692   9.180 -0.2545 -0.1375  0.4270
 8287TIP3    H149056   0.487   0.601   9.160  1.2174 -0.7176  1.3719
 8287TIP3    H249057   0.522   0.733   9.094 -0.0620 -1.0257  0.0250
 8288TIP3   OH249058   2.670   6.266   9.265  0.3753  0.1979 -0.3863
 8288TIP3    H149059   2.580   6.293   9.281  0.4828 -0.2081  1.0717
 8288TIP3    H249060   2.707   6.335   9.211 -0.5325  0.8566 -0.1806
 8289TIP3   OH249061   0.172   3.942  10.003  0.3729  0.2169  0.0942
 8289TIP3    H149062   0.154   3.958   9.910  1.2517 -0.3025 -0.1849
 8289TIP3    H249063   0.095   3.975  10.049 -0.2252  0.1616 -0.8466
 8290TIP3   OH249064   3.313   4.110   9.534 -0.6119  0.1287 -0.0415
 8290TIP3    H149065   3.285   4.128   9.624  0.4773  1.0427  0.1437
 8290TIP3    H249066   3.232   4.103   9.484 -1.2231 -0.1539  0.9697
 8291TIP3   OH249067   5.334   6.769  10.633  0.8626 -0.5567 -0.8555
 8291TIP3    H149068   5.349   6.677  10.653 -0.4377 -0.6149 -0.0640
 8291TIP3    H249069   5.255   6.770  10.580 -0.9069  0.2670  1.6235
 8292TIP3   OH249070   2.358   4.710   9.851 -0.7570 -0.2322  0.2102
 8292TIP3    H149071   2.432   4.685   9.907 -1.6176 -0.7020  1.1964
 8292TIP3    H249072   2.376   4.670   9.767  1.4890  2.0243 -0.4793
 8293TIP3   OH249073   1.121   3.420  10.377  0.5468  0.4087  0.2508
 8293TIP3    H149074   1.175   3.349  10.341 -1.0771 -0.4726 -0.5411
 8293TIP3    H249075   1.117   3.485  10.308 -1.5967 -0.7582 -0.8205
 8294TIP3   OH249076   6.144   5.531   9.250 -0.0169  0.3734  0.4580
 8294TIP3    H149077   6.227   5.572   9.276 -0.7105  1.6885  0.6764
 8294TIP3    H249078   6.088   5.540   9.327 -1.1604  1.7577 -0.4894
 8295TIP3   OH249079   1.911   4.887  11.513  0.0952  0.3024 -0.4700
 8295TIP3    H149080   1.965   4.966  11.509 -1.0567  1.2710  1.7898
 8295TIP3    H249081   1.967   4.822  11.556  0.2335  0.5920 -0.2096
 8296TIP3   OH249082   1.820   0.936  10.093 -0.0628 -0.1965  0.0549
 8296TIP3    H149083   1.850   0.951  10.182 -1.2065 -1.5364  0.7033
 8296TIP3    H249084   1.742   0.881  10.102 -0.4280 -0.0559 -1.7491
 8297TIP3   OH249085   3.852   2.875  11.300  0.0943 -0.3960  0.0424
 8297TIP3    H149086   3.827   2.908  11.387 -0.5650 -1.3988  0.2526
 8297TIP3    H249087   3.946   2.859  11.307 -0.1499 -1.5602  0.9651
 8298TIP3   OH249088   1.532   0.140   8.716 -0.1161 -0.1815  0.2318
 8298TIP3    H149089   1.449   0.184   8.698  0.4323  0.5045 -0.7190
 8298TIP3    H249090   1.528   0.058   8.667 -0.0120  0.1172 -0.2865
 8299TIP3   OH249091   5.419   0.775  10.985  0.1927 -0.2951 -0.2957
 8299TIP3    H149092   5.427   0.759  11.079 -2.0690 -0.4006 -0.0677
 8299TIP3    H249093   5.338   0.824  10.975  1.3848  1.5192 -2.0445
 8300TIP3   OH249094   5.208   6.726  10.999 -0.1469 -0.5386 -0.1427
 8300TIP3    H149095   5.197   6.631  10.997 -3.4221 -0.2730 -2.4565
 8300TIP3    H249096   5.165   6.753  11.080  0.0813 -0.9715  0.1259
 8301TIP3   OH249097   2.682   3.342  11.074  0.2949 -0.0533  0.0370
 8301TIP3    H149098   2.775   3.327  11.055  0.3697 -0.2595  0.5264
 8301TIP3    H249099   2.678   3.344  11.170 -0.1715  0.1844  0.0131
 8302TIP3   OH249100   0.427   3.553  10.203 -0.1105  0.2762  0.5681
 8302TIP3    H149101   0.343   3.598  10.188 -0.1092  0.2959  0.6186
 8302TIP3    H249102   0.484   3.584  10.133 -0.6885 -1.1401 -0.5770
 8303TIP3   OH249103   4.156   3.922   9.965 -0.2801 -0.3611 -0.3969
 8303TIP3    H149104   4.190   3.842   9.924 -0.5604 -0.9190  0.4187
 8303TIP3    H249105   4.118   3.972   9.893 -2.5534 -2.2153 -0.6176
 8304TIP3   OH249106   3.329   3.983   8.703  0.3429 -0.7441 -0.2838
 8304TIP3    H149107   3.278   3.937   8.636  0.7701 -1.6297 -0.0104
 8304TIP3    H249108   3.265   4.039   8.747  0.2773  0.8447 -2.2394
 8305TIP3   OH249109   4.806   6.205   9.411 -0.1517  0.1884  0.0630
 8305TIP3    H149110   4.740   6.244   9.469 -0.4797 -0.3430  0.0529
 8305TIP3    H249111   4.817   6.268   9.340 -1.7001 -0.3493 -0.6910
 8306TIP3   OH249112   4.400   0.515   9.115 -0.2530  0.3766 -0.3860
 8306TIP3    H149113   4.425   0.423   9.129  0.4236  0.8438  1.8550
 8306TIP3    H249114   4.450   0.563   9.181 -4.9220  1.7427  2.6519
 8307TIP3   OH249115   4.238   2.410  11.166 -0.4809  0.1980  0.6271
 8307TIP3    H149116   4.187   2.458  11.232  0.1487 -1.1077  2.1328
 8307TIP3    H249117   4.254   2.474  11.097 -3.4948  0.8870  0.4117
 8308TIP3   OH249118   2.710   5.101  10.755  0.3411  0.4438  0.1773
 8308TIP3    H149119   2.685   5.185  10.717 -1.0535  0.0398  0.1520
 8308TIP3    H249120   2.803   5.093  10.735  0.1551  1.2770 -1.1567
 8309TIP3   OH249121   2.195   2.008   9.599 -0.5130 -0.0610 -0.0876
 8309TIP3    H149122   2.251   1.938   9.566  0.3357  0.7703 -0.4857
 8309TIP3    H249123   2.157   2.047   9.520 -1.1535 -0.2089  0.1429
 8310TIP3   OH249124   0.083   2.421   9.090  0.0441 -0.5460  0.5029
 8310TIP3    H149125   0.118   2.363   9.158  2.9636  1.9265  1.3396
 8310TIP3    H249126   0.081   2.507   9.131 -0.6267  0.5980 -1.7820
 8311TIP3   OH249127   6.010   5.375   8.949 -0.4534 -0.0757  0.0179
 8311TIP3    H149128   6.017   5.342   8.860 -0.7131  1.0124 -0.4111
 8311TIP3    H249129   6.070   5.449   8.953 -0.1890 -0.3202  0.8523
 8312TIP3   OH249130   1.150   2.206   9.162 -0.3596 -0.3717  0.0532
 8312TIP3    H149131   1.222   2.255   9.201 -1.5941  0.5859  1.2087
 8312TIP3    H249132   1.151   2.121   9.206  0.8106 -0.8420 -0.8348
 8313TIP3   OH249133   1.881   1.768   9.981  0.0927 -0.7200 -0.0218
 8313TIP3    H149134   1.863   1.674   9.977  1.2633 -0.9630  0.2143
 8313TIP3    H249135   1.906   1.791   9.892  0.4671 -0.7703  0.0705
 8314TIP3   OH249136   4.339   6.228   9.463 -0.3605  0.1463 -0.2362
 8314TIP3    H149137   4.358   6.289   9.392 -2.1087 -0.4725 -1.2977
 8314TIP3    H249138   4.375   6.271   9.542 -0.4592  1.9508 -1.1191
 8315TIP3   OH249139   6.604   6.614  10.477 -0.0970  0.4146 -0.3674
 8315TIP3    H149140   6.594   6.704  10.447  0.9852  0.4870 -0.5384
 8315TIP3    H249141   6.577   6.616  10.569  3.3378  1.7251  0.7487
 8316TIP3   OH249142   4.699   5.949  11.051 -0.2378 -0.1081 -0.4609
 8316TIP3    H149143   4.771   5.956  10.987 -0.9838 -0.0868 -1.3247
 8316TIP3    H249144   4.626   5.911  11.001 -1.1189  0.7271  0.1490
 8317TIP3   OH249145   5.198   1.528   8.916 -0.2876  0.2619 -0.4825
 8317TIP3    H149146   5.128   1.510   8.853 -1.4917  0.4011  0.7498
 8317TIP3    H249147   5.166   1.604   8.965  0.1385 -0.4178  0.9168
 8318TIP3   OH249148   0.325   5.277   9.051  0.6933  0.0193  0.6476
 8318TIP3    H149149   0.245   5.230   9.027 -0.1953  2.0763 -0.7407
 8318TIP3    H249150   0.338   5.256   9.143 -0.7614 -1.3265  0.5900
 8319TIP3   OH249151   1.244   3.533  11.498 -0.3752 -0.5185 -0.5798
 8319TIP3    H149152   1.213   3.549  11.587 -0.8616 -0.7345 -0.7061
 8319TIP3    H249153   1.314   3.468  11.508  0.7272  0.6789 -0.1981
 8320TIP3   OH249154   1.168   2.377  10.236 -0.0302  0.6171 -0.4874
 8320TIP3    H149155   1.081   2.337  10.246  0.2780 -0.0679 -0.5259
 8320TIP3    H249156   1.180   2.386  10.142  0.1971  0.1324 -0.5079
 8321TIP3   OH249157   3.218   1.112   9.805 -0.3433 -0.1015  0.0824
 8321TIP3    H149158   3.130   1.078   9.816 -0.5879  0.4730 -0.0412
 8321TIP3    H249159   3.243   1.143   9.892  0.1813 -1.2867  0.3661
 8322TIP3   OH249160   5.138   3.422  10.260 -0.2830  0.3446 -0.0892
 8322TIP3    H149161   5.150   3.472  10.179 -0.3720 -1.5073 -1.2893
 8322TIP3    H249162   5.227   3.398  10.287 -0.3281 -0.0430 -0.2875
 8323TIP3   OH249163   5.358   5.689   9.621  0.6899  0.0891  0.4502
 8323TIP3    H149164   5.267   5.671   9.595  0.5728 -0.4056  1.1942
 8323TIP3    H249165   5.410   5.628   9.569  0.4123 -1.3035  1.7538
 8324TIP3   OH249166   2.074   5.152   9.893  0.8654  0.2327 -0.3938
 8324TIP3    H149167   2.151   5.097   9.883 -0.9901 -2.6843  0.1949
 8324TIP3    H249168   2.070   5.172   9.986  1.5374  1.5105 -0.6036
 8325TIP3   OH249169   1.937   2.252   9.792  0.5308  0.3534  0.1707
 8325TIP3    H149170   1.996   2.192   9.837 -0.2390 -0.1477  0.5459
 8325TIP3    H249171   1.982   2.336   9.794  1.1793  0.0095  0.5376
 8326TIP3   OH249172   2.893   2.013  10.848 -0.4777  0.8515 -0.2758
 8326TIP3    H149173   2.818   1.962  10.878 -1.9127  2.7676 -0.3922
 8326TIP3    H249174   2.967   1.981  10.899 -0.9874 -2.1810 -1.2435
 8327TIP3   OH249175   5.342   2.047   8.780 -0.0503  0.4355 -0.1677
 8327TIP3    H149176   5.436   2.049   8.763 -0.1647  0.8725 -0.7697
 8327TIP3    H249177   5.335   2.060   8.875  0.4911  0.4361 -0.1246
 8328TIP3   OH249178   6.292   6.349   9.498 -0.4609 -0.6013  0.1394
 8328TIP3    H149179   6.221   6.365   9.436  0.6879 -3.4084 -2.1274
 8328TIP3    H249180   6.307   6.255   9.494  2.6763 -0.2916  1.3479
 8329TIP3   OH249181   2.654   6.579   9.058  0.1833 -0.1206  0.7559
 8329TIP3    H149182   2.727   6.520   9.078 -1.7049 -2.1723  2.0674
 8329TIP3    H249183   2.685   6.665   9.084  2.0103 -0.9688  1.5695
 8330TIP3   OH249184   3.782   3.702  10.473 -0.3345 -0.1834  0.4571
 8330TIP3    H149185   3.752   3.611  10.478  0.9082 -0.5654  1.4635
 8330TIP3    H249186   3.758   3.739  10.558  1.4649 -0.3385  1.0614
 8331TIP3   OH249187   3.709   4.486   8.584  0.1759 -0.3563  0.6388
 8331TIP3    H149188   3.780   4.500   8.646  0.3301 -1.0850  0.6270
 8331TIP3    H249189   3.751   4.450   8.506 -0.2890 -1.5598  0.9198
 8332TIP3   OH249190   6.027   1.491   9.161 -0.5187  0.5805  0.4767
 8332TIP3    H149191   5.982   1.472   9.243 -1.5882 -1.3115 -0.4939
 8332TIP3    H249192   6.052   1.406   9.126 -2.2159  1.1007 -2.3257
 8333TIP3   OH249193   2.081   6.644   9.383 -0.8850 -0.0919  0.2865
 8333TIP3    H149194   2.016   6.711   9.364 -1.2794 -0.1916  1.2354
 8333TIP3    H249195   2.165   6.688   9.374 -1.1191  0.3097  0.0763
 8334TIP3   OH249196   2.553   2.156  11.993  0.7126 -0.2337  0.4438
 8334TIP3    H149197   2.504   2.206  12.059  0.1539 -0.1061 -0.0561
 8334TIP3    H249198   2.633   2.207  11.978  0.2056  0.4503  0.0352
 8335TIP3   OH249199   2.139   5.947  10.866 -0.5480 -0.1567 -0.2744
 8335TIP3    H149200   2.222   5.902  10.884 -1.6926 -1.9505  0.8868
 8335TIP3    H249201   2.162   6.018  10.806  1.9587 -0.0004  0.7801
 8336TIP3   OH249202   0.608   4.619  19.141 -0.4758  0.0439 -0.0724
 8336TIP3    H149203   0.524   4.653  19.109 -0.5192 -1.3352 -1.5645
 8336TIP3    H249204   0.609   4.641  19.234 -1.4056  2.1975 -0.5036
 8337TIP3   OH249205   2.093   5.947  11.733 -0.5246  0.3647 -0.2156
 8337TIP3    H149206   2.156   5.890  11.688 -0.7485  0.6019 -0.8449
 8337TIP3    H249207   2.069   5.899  11.812 -0.5519 -0.3144 -0.6312
 8338TIP3   OH249208   0.198   0.151   9.065  0.1364  0.0603 -0.6808
 8338TIP3    H149209   0.148   0.083   9.110  0.3072 -0.1563 -0.8167
 8338TIP3    H249210   0.276   0.163   9.120  0.6391 -0.6316 -1.2329
 8339TIP3   OH249211   6.341   5.970   8.920  0.3008  0.2712 -0.0469
 8339TIP3    H149212   6.274   5.982   8.988  0.9435 -0.7312  0.8085
 8339TIP3    H249213   6.390   5.892   8.949  0.7509 -0.0253 -1.5437
 8340TIP3   OH249214   6.191   5.557  10.183  0.2131 -0.1771 -0.6131
 8340TIP3    H149215   6.282   5.564  10.214 -0.1477  1.5342  0.2103
 8340TIP3    H249216   6.170   5.464  10.190  1.5078 -0.4317  0.3940
 8341TIP3   OH249217   1.574   5.009  10.948  0.3070  0.6874  0.2497
 8341TIP3    H149218   1.599   5.038  11.036 -0.2278  1.9570  0.0021
 8341TIP3    H249219   1.629   4.932  10.932  0.7358  0.7088  1.5090
 8342TIP3   OH249220   1.156   3.698   9.068  0.0676  0.2652  0.4103
 8342TIP3    H149221   1.223   3.717   9.134 -0.1072  0.5126  0.5179
 8342TIP3    H249222   1.195   3.728   8.986 -0.3364  1.4412  0.6229
 8343TIP3   OH249223   3.984   3.054  10.145  0.4921 -0.0984 -0.3341
 8343TIP3    H149224   3.939   3.134  10.175 -0.3588 -0.7777  0.2435
 8343TIP3    H249225   4.046   3.034  10.214  1.5314  0.6973 -1.0157
 8344TIP3   OH249226   5.937   0.392  10.945 -0.1883 -0.0325  0.1855
 8344TIP3    H149227   5.858   0.445  10.936 -0.5669 -0.6914 -0.4096
 8344TIP3    H249228   5.982   0.401  10.860  1.2437  1.6818  1.0487
 8345TIP3   OH249229   2.382   3.740  10.211  0.1322 -0.6174 -0.0550
 8345TIP3    H149230   2.465   3.785  10.193 -0.0031  0.0096  0.8275
 8345TIP3    H249231   2.319   3.781  10.153  0.1477 -0.1138  0.2824
 8346TIP3   OH249232   1.345   3.065   8.575 -0.3757 -0.2361 -0.2182
 8346TIP3    H149233   1.421   3.007   8.567 -0.7991 -0.8279 -0.0379
 8346TIP3    H249234   1.283   3.033   8.509 -0.4940  0.1938 -0.3152
 8347TIP3   OH249235   5.022   5.337  10.427 -0.1347 -0.2732  0.1611
 8347TIP3    H149236   5.046   5.300  10.512  0.0182 -1.6065 -0.4368
 8347TIP3    H249237   5.031   5.431  10.439  0.7340 -0.4784  1.3756
 8348TIP3   OH249238   1.548   4.346  16.901 -0.4722  0.9078  0.0252
 8348TIP3    H149239   1.452   4.338  16.906 -0.3782  0.3301  1.3679
 8348TIP3    H249240   1.570   4.415  16.963  0.1338 -0.4551  1.3746
 8349TIP3   OH249241   3.936   4.714   9.250 -0.2927 -0.0293  0.2502
 8349TIP3    H149242   3.844   4.735   9.233  0.1069  0.0621 -2.0023
 8349TIP3    H249243   3.944   4.622   9.226  0.6587  0.5297 -1.8151
 8350TIP3   OH249244   2.275   5.447  11.041 -0.1802 -0.1577 -0.1259
 8350TIP3    H149245   2.337   5.518  11.060 -1.4994  0.5479  1.8161
 8350TIP3    H249246   2.313   5.403  10.965  2.1033  0.9274  0.2825
 8351TIP3   OH249247   6.366   4.942   8.368  0.1785 -0.3146  0.1984
 8351TIP3    H149248   6.449   4.898   8.383 -0.0158 -1.0795 -0.8538
 8351TIP3    H249249   6.302   4.891   8.418  0.0189 -0.9959 -0.6877
 8352TIP3   OH249250   2.810   5.243  11.647  0.8678  0.0826  0.9010
 8352TIP3    H149251   2.818   5.154  11.613 -1.7568  0.0902  0.0360
 8352TIP3    H249252   2.804   5.233  11.742  0.0607 -0.7469  0.7755
 8353TIP3   OH249253   2.600   5.216  10.315  0.0076 -0.0591  1.0223
 8353TIP3    H149254   2.658   5.266  10.257 -1.6049 -0.6436 -1.2662
 8353TIP3    H249255   2.548   5.282  10.360  0.8243  0.4081  1.2931
 8354TIP3   OH249256   3.361   6.305  11.602 -0.0990 -0.2951 -0.3654
 8354TIP3    H149257   3.401   6.390  11.624  0.9170 -0.3876 -1.6944
 8354TIP3    H249258   3.407   6.278  11.522 -0.6843 -1.9194 -0.1742
 8355TIP3   OH249259   3.750   1.763   9.301  0.3497 -0.0550 -0.1676
 8355TIP3    H149260   3.787   1.689   9.348 -1.7947 -1.8652 -1.1433
 8355TIP3    H249261   3.656   1.759   9.319 -0.1423  0.9265 -2.2051
 8356TIP3   OH249262   5.131   6.759  11.612  0.2751  0.1770  0.4289
 8356TIP3    H149263   5.047   6.775  11.570  0.4864  0.8149  0.2354
 8356TIP3    H249264   5.132   6.817  11.688  1.0261  1.0674 -0.2396
 8357TIP3   OH249265   2.174   1.268   9.482 -0.8102  0.2592  0.9103
 8357TIP3    H149266   2.181   1.230   9.569 -3.3831  0.5027  1.2951
 8357TIP3    H249267   2.174   1.362   9.496 -0.0968  0.3219  0.5231
 8358TIP3   OH249268   2.107   2.510   8.512  0.0703  0.4968 -0.1410
 8358TIP3    H149269   2.156   2.591   8.498  0.8084 -0.0995 -1.1801
 8358TIP3    H249270   2.110   2.496   8.607  2.6886  0.0498 -0.1979
 8359TIP3   OH249271   0.560   2.742   9.753 -0.0636 -0.1502 -0.2186
 8359TIP3    H149272   0.520   2.673   9.807 -0.2053 -0.8059 -1.1498
 8359TIP3    H249273   0.488   2.776   9.701 -0.7488  2.9094  2.3783
 8360TIP3   OH249274   0.409   5.599  10.437  0.3318  0.1437 -0.2404
 8360TIP3    H149275   0.367   5.554  10.511 -0.3136  0.7174 -0.2481
 8360TIP3    H249276   0.445   5.528  10.384  0.5132 -0.2955  0.4492
 8361TIP3   OH249277   5.376   3.180   9.602  0.5418 -0.2173 -0.6058
 8361TIP3    H149278   5.289   3.218   9.612 -0.0296 -1.0752 -2.0181
 8361TIP3    H249279   5.436   3.247   9.636 -0.7227 -0.2470  1.8412
 8362TIP3   OH249280   1.392   6.631   9.005 -0.4773  0.0366  0.1647
 8362TIP3    H149281   1.343   6.608   8.926  0.9497 -3.2053  0.0816
 8362TIP3    H249282   1.476   6.664   8.973 -0.2775 -0.3179  0.3214
 8363TIP3   OH249283   4.369   3.500  11.145  0.0162 -0.6650 -0.3921
 8363TIP3    H149284   4.395   3.592  11.146 -0.3103 -0.5747 -0.1163
 8363TIP3    H249285   4.288   3.499  11.093  0.4628 -0.9180 -1.0945
 8364TIP3   OH249286   1.565   1.260   8.363  0.1376  0.0604 -0.0526
 8364TIP3    H149287   1.470   1.269   8.357 -0.1286 -2.2693 -0.1066
 8364TIP3    H249288   1.591   1.327   8.426 -1.1586  2.5832 -2.0300
 8365TIP3   OH249289   0.858   3.419  10.625  0.4577  0.1409  0.0257
 8365TIP3    H149290   0.806   3.400  10.704  1.9190  2.5969  1.7126
 8365TIP3    H249291   0.922   3.348  10.621 -1.2989 -1.4872 -0.5850
 8366TIP3   OH249292   6.055   4.610  10.529  0.1624  0.3139  0.1808
 8366TIP3    H149293   6.028   4.547  10.461 -0.4550  1.0759 -0.2941
 8366TIP3    H249294   6.089   4.555  10.599  0.1768 -0.5312 -0.4602
 8367TIP3   OH249295   3.582   4.682   9.805 -0.1722 -0.5187 -0.1745
 8367TIP3    H149296   3.509   4.717   9.857  1.3225  2.8365 -0.0670
 8367TIP3    H249297   3.634   4.632   9.868  0.2261  1.3134  1.0224
 8368TIP3   OH249298   1.531   5.752  11.259  0.1889 -0.4490  0.2530
 8368TIP3    H149299   1.565   5.771  11.171  2.1791  1.2303  1.3107
 8368TIP3    H249300   1.506   5.837  11.294 -0.8658 -1.1400  1.2229
 8369TIP3   OH249301   1.401   2.481   8.867 -0.0338 -0.1981 -0.0432
 8369TIP3    H149302   1.398   2.464   8.773  0.0743 -0.2589 -0.0365
 8369TIP3    H249303   1.494   2.492   8.886 -0.0936  0.3045 -0.0299
 8370TIP3   OH249304   4.450   6.240  11.359  0.2100  0.5405 -0.1553
 8370TIP3    H149305   4.425   6.159  11.314  0.4107  0.5664 -0.3174
 8370TIP3    H249306   4.541   6.225  11.385  1.1600  1.6882 -2.5059
 8371TIP3   OH249307   3.492   0.083   9.612  0.4316 -0.0611  0.7311
 8371TIP3    H149308   3.463   0.023   9.543 -1.2198  1.4014  0.0793
 8371TIP3    H249309   3.558   0.034   9.661 -1.3435 -2.6726  0.6889
 8372TIP3   OH249310   2.990   5.935  11.998 -0.5845 -0.3412  0.4876
 8372TIP3    H149311   2.974   5.973  12.084  0.8890 -0.1352  0.6875
 8372TIP3    H249312   2.932   5.983  11.939 -1.0749  0.0040  1.2387
 8373TIP3   OH249313   3.212   2.991   8.702  0.7969  0.0225  0.1082
 8373TIP3    H149314   3.285   2.991   8.764  2.7301  0.1337 -2.0343
 8373TIP3    H249315   3.187   2.899   8.695  0.6033  0.0005  0.9910
 8374TIP3   OH249316   3.235   3.255  10.964 -0.2335  0.0089  0.1806
 8374TIP3    H149317   3.301   3.251  11.034  0.3466 -1.1372 -0.4034
 8374TIP3    H249318   3.261   3.186  10.903  1.3539  3.1616 -3.0122
 8375TIP3   OH249319   2.701   2.672  11.236 -0.5306  0.7758 -0.1589
 8375TIP3    H149320   2.733   2.710  11.318  1.2122 -2.5432  0.8586
 8375TIP3    H249321   2.612   2.642  11.257 -0.0645 -0.1276  0.5756
 8376TIP3   OH249322   2.103   0.668   8.817 -0.4083  0.5041 -0.5678
 8376TIP3    H149323   2.129   0.741   8.874 -0.8371 -0.8049  1.4215
 8376TIP3    H249324   2.184   0.638   8.777  0.5431 -0.6410  2.0097
 8377TIP3   OH249325   2.758   1.916   9.454 -0.3580  0.0156  0.2653
 8377TIP3    H149326   2.710   1.869   9.386 -0.4961 -0.7956  0.9162
 8377TIP3    H249327   2.821   1.969   9.406 -0.8901 -0.0536 -0.5252
 8378TIP3   OH249328   4.216   0.609  11.237 -0.0266 -0.1944  0.0634
 8378TIP3    H149329   4.245   0.697  11.214 -0.3324 -0.2979 -0.7465
 8378TIP3    H249330   4.286   0.552  11.207  0.4100 -0.1980  1.0543
 8379TIP3   OH249331   2.450   4.420   9.597 -0.5129  0.4701 -0.2124
 8379TIP3    H149332   2.418   4.391   9.682  0.9179  0.9358  0.5232
 8379TIP3    H249333   2.446   4.516   9.602  0.3052  0.5193 -0.3581
 8380TIP3   OH249334   4.360   5.576  11.991 -0.0563 -0.4973  0.6704
 8380TIP3    H149335   4.300   5.635  12.035  0.4908  0.1235  0.5980
 8380TIP3    H249336   4.439   5.578  12.044  0.7394  0.5252 -0.4888
 8381TIP3   OH249337   3.618   3.144  11.345 -0.3196  0.1510  0.2816
 8381TIP3    H149338   3.688   3.129  11.281 -0.8145 -0.7564 -0.0653
 8381TIP3    H249339   3.545   3.092  11.312 -0.8687  0.3833  1.1174
 8382TIP3   OH249340   4.819   2.419   9.274  0.3298 -0.0378  0.6001
 8382TIP3    H149341   4.749   2.469   9.317 -0.8321 -1.1670  0.0931
 8382TIP3    H249342   4.828   2.339   9.326  0.9328 -0.1021  0.4074
 8383TIP3   OH249343   3.630   2.140  11.316  0.1037 -0.3402  0.0832
 8383TIP3    H149344   3.698   2.086  11.275  0.0595 -2.8899  3.0291
 8383TIP3    H249345   3.638   2.225  11.272  3.3222 -1.3315 -1.6050
 8384TIP3   OH249346   1.961   2.717   9.242 -0.1013 -0.3863 -0.1997
 8384TIP3    H149347   1.991   2.727   9.333  0.5700  0.0882 -0.4707
 8384TIP3    H249348   1.865   2.714   9.250 -0.6107  5.3240  0.1555
 8385TIP3   OH249349   4.876   0.688   9.853  0.4418  0.6865  0.3597
 8385TIP3    H149350   4.934   0.668   9.780  1.3711  0.2339  1.1943
 8385TIP3    H249351   4.861   0.604   9.896 -2.7552  0.3513 -1.1473
 8386TIP3   OH249352   6.083   0.642   9.265  0.2475  0.3638  0.2536
 8386TIP3    H149353   6.094   0.684   9.351  1.6462  0.7802 -0.1060
 8386TIP3    H249354   6.170   0.613   9.241 -0.2266 -0.2493 -0.7936
 8387TIP3   OH249355   4.283   3.391   8.962 -0.4342 -0.0410 -0.0337
 8387TIP3    H149356   4.224   3.353   8.897 -2.8990 -0.0275  2.0693
 8387TIP3    H249357   4.250   3.361   9.046  1.0964  1.9879  1.4105
 8388TIP3   OH249358   0.725   6.163  10.075  0.7775 -0.2587  0.2105
 8388TIP3    H149359   0.661   6.110  10.122  0.1551  1.3292  1.2636
 8388TIP3    H249360   0.716   6.136   9.983 -0.8382 -0.6613  0.4468
 8389TIP3   OH249361   4.089   4.385   9.149  0.7247  0.4363 -0.2646
 8389TIP3    H149362   4.145   4.334   9.092  0.8111  2.8886 -2.5884
 8389TIP3    H249363   4.150   4.428   9.210  1.3433  1.9774 -1.8675
 8390TIP3   OH249364   0.453   4.056  10.973 -0.0514 -0.0451  0.4920
 8390TIP3    H149365   0.492   4.007  11.046  1.1764  1.0063  0.5913
 8390TIP3    H249366   0.467   4.148  10.997  1.2803  0.3241 -1.5139
 8391TIP3   OH249367   3.394   2.910  12.431 -0.4088  0.3339  0.4230
 8391TIP3    H149368   3.351   2.927  12.347  1.3215 -2.3265 -1.1474
 8391TIP3    H249369   3.328   2.862  12.482 -0.3832 -1.0896 -0.8059
 8392TIP3   OH249370   5.545   5.405  10.325 -0.0715  0.3230 -0.1593
 8392TIP3    H149371   5.464   5.387  10.374  0.5465  0.2073  0.8624
 8392TIP3    H249372   5.578   5.487  10.362  0.3234  0.3224 -0.5008
 8393TIP3   OH249373   4.866   6.541   9.355 -0.1486 -0.2235  0.0734
 8393TIP3    H149374   4.961   6.548   9.361 -0.0732 -1.7860  1.4813
 8393TIP3    H249375   4.850   6.480   9.284 -0.1146  0.1588 -0.2657
 8394TIP3   OH249376   6.289   6.461  12.078 -0.2712 -0.3241  0.1490
 8394TIP3    H149377   6.370   6.508  12.094 -1.0328  1.2242 -0.3422
 8394TIP3    H249378   6.293   6.437  11.985 -0.1459 -0.6967  0.2512
 8395TIP3   OH249379   0.424   5.056   8.752 -0.6421  0.2479 -0.3447
 8395TIP3    H149380   0.355   5.007   8.796 -1.4712  0.7019 -1.1285
 8395TIP3    H249381   0.452   5.122   8.816 -0.4392 -0.3884  0.2263
 8396TIP3   OH249382   5.354   5.480  10.495 -0.0161 -0.5115 -0.3246
 8396TIP3    H149383   5.356   5.574  10.476 -0.5715 -0.2528  0.7921
 8396TIP3    H249384   5.339   5.475  10.589 -0.2439 -1.7276 -0.4078
 8397TIP3   OH249385   2.349   4.070  12.316  0.6516 -0.7536  0.5111
 8397TIP3    H149386   2.281   4.010  12.286 -0.6723  0.9569 -0.0931
 8397TIP3    H249387   2.355   4.054  12.410 -0.3488 -1.1801  0.5167
 8398TIP3   OH249388   4.799   2.249   9.842  0.3594  0.9253 -0.3399
 8398TIP3    H149389   4.750   2.321   9.882 -0.6994 -0.5251  1.1124
 8398TIP3    H249390   4.737   2.176   9.839  1.9587 -0.5221  0.0912
 8399TIP3   OH249391   5.826   2.900   9.349 -0.0334 -0.3835 -0.3402
 8399TIP3    H149392   5.841   2.962   9.420 -0.9092  0.2964 -0.7417
 8399TIP3    H249393   5.753   2.846   9.378  0.1010 -0.6057 -0.4063
 8400TIP3   OH249394   5.909   1.486  10.988 -0.3252 -0.3492 -0.5038
 8400TIP3    H149395   5.958   1.562  11.019 -0.3514 -0.0249 -1.2470
 8400TIP3    H249396   5.817   1.506  11.009 -0.2374 -0.5705  0.0995
 8401TIP3   OH249397   4.329   2.651  11.371 -0.3125 -0.2388 -0.1365
 8401TIP3    H149398   4.418   2.665  11.337  0.3938  0.1680  1.7658
 8401TIP3    H249399   4.320   2.715  11.442 -3.2832  1.8816 -2.1894
 8402TIP3   OH249400   5.589   3.746  10.921 -0.2070  0.5632  0.2955
 8402TIP3    H149401   5.641   3.686  10.868 -0.5400 -0.0038  0.5985
 8402TIP3    H249402   5.610   3.723  11.011 -0.4764  0.7738  0.4141
 8403TIP3   OH249403   2.642   5.845  10.689 -0.5505  0.1382  0.0077
 8403TIP3    H149404   2.736   5.827  10.693 -0.2846  1.3953  0.1044
 8403TIP3    H249405   2.629   5.916  10.753 -1.7523 -0.7172  0.7485
 8404TIP3   OH249406   4.689   3.380   9.873 -0.2980  0.3999  0.0123
 8404TIP3    H149407   4.715   3.309   9.931 -1.1867 -0.5115 -0.6644
 8404TIP3    H249408   4.645   3.336   9.800 -2.8398  1.7465  0.6165
 8405TIP3   OH249409   5.897   4.691  10.100  0.5497  0.0997 -0.4981
 8405TIP3    H149410   5.913   4.748  10.025 -0.5142  1.0407 -0.0475
 8405TIP3    H249411   5.922   4.744  10.176 -0.7212  0.1018 -0.0519
 8406TIP3   OH249412   2.902   4.393   8.938 -0.4301  0.7043 -0.1858
 8406TIP3    H149413   2.970   4.420   8.999  0.3741  0.2691 -0.8732
 8406TIP3    H249414   2.894   4.298   8.952 -1.7328  0.9177  0.7146
 8407TIP3   OH249415   5.611   0.913  11.817  0.0078 -0.4872 -0.1147
 8407TIP3    H149416   5.622   0.988  11.875 -0.2063 -0.6291  0.1069
 8407TIP3    H249417   5.667   0.933  11.741  0.9259 -0.6772  0.4973
 8408TIP3   OH249418   3.269   3.147   9.836 -0.2978 -0.0582  0.4302
 8408TIP3    H149419   3.324   3.213   9.793  0.4745 -1.0834 -0.2030
 8408TIP3    H249420   3.180   3.174   9.817 -0.0367  1.5233  1.2967
 8409TIP3   OH249421   0.014   2.771   9.677 -0.7109 -0.1031  0.1701
 8409TIP3    H149422  -0.014   2.703   9.739 -0.4347 -1.6029 -1.2795
 8409TIP3    H249423  -0.055   2.773   9.611 -0.3659  0.5427 -0.1779
 8410TIP3   OH249424   0.245   2.499   8.829 -0.6251  0.2002  0.1224
 8410TIP3    H149425   0.185   2.445   8.880 -0.3655 -0.9062 -0.7131
 8410TIP3    H249426   0.200   2.513   8.745  0.2024 -0.5232 -0.4574
 8411TIP3   OH249427   0.947   4.236  10.613  0.3874  0.1118  0.4751
 8411TIP3    H149428   0.978   4.327  10.612 -0.2993  0.3538 -0.6284
 8411TIP3    H249429   0.935   4.216  10.706 -2.1255  2.1072  0.6868
 8412TIP3   OH249430   5.507   6.222   9.537 -0.1205  0.6061  0.3195
 8412TIP3    H149431   5.449   6.149   9.556  0.6347 -0.4392 -1.1864
 8412TIP3    H249432   5.595   6.188   9.550  0.3181  0.6972 -1.8967
 8413TIP3   OH249433   4.113   6.220  10.160 -0.1748  0.2038 -0.2307
 8413TIP3    H149434   4.079   6.134  10.133 -2.0535  0.6897  0.4575
 8413TIP3    H249435   4.036   6.269  10.189  0.9768  1.8224  0.2610
 8414TIP3   OH249436   6.693   5.174  10.144 -0.1776 -0.3382  1.0223
 8414TIP3    H149437   6.639   5.185  10.066 -0.6596  3.1448  1.7013
 8414TIP3    H249438   6.782   5.197  10.115 -0.1450 -0.1550  1.2690
 8415TIP3   OH249439   1.923   2.564  10.870 -0.2407  0.2755  0.0618
 8415TIP3    H149440   2.002   2.512  10.887 -1.1949 -1.2420 -0.0015
 8415TIP3    H249441   1.957   2.649  10.841  1.3735  0.5618  2.4940
 8416TIP3   OH249442   1.888   1.204  10.199 -0.7638 -0.2660 -0.3367
 8416TIP3    H149443   1.829   1.264  10.153 -1.4481 -0.4304  0.3018
 8416TIP3    H249444   1.955   1.180  10.134  0.3705  2.2927 -0.2290
 8417TIP3   OH249445   6.110   5.352   9.732  0.4154  0.2880 -0.0721
 8417TIP3    H149446   6.096   5.264   9.697  0.9265  0.0719  0.2421
 8417TIP3    H249447   6.183   5.387   9.680  1.5906 -0.2693  1.1372
 8418TIP3   OH249448   2.589   5.479  11.341  0.6689 -0.0191 -0.0765
 8418TIP3    H149449   2.552   5.556  11.299 -2.5697 -0.1426  2.1971
 8418TIP3    H249450   2.638   5.513  11.416  0.4555 -0.1254  0.1103
 8419TIP3   OH249451   2.306   5.455   9.828  0.0497 -0.1900 -0.2409
 8419TIP3    H149452   2.339   5.396   9.896  0.2581  1.9226  1.6354
 8419TIP3    H249453   2.299   5.540   9.872  0.2700  1.3296 -2.9220
 8420TIP3   OH249454   1.249   6.590   9.248  0.3026  0.5304 -0.1485
 8420TIP3    H149455   1.322   6.569   9.190  1.7132 -0.2277  1.8099
 8420TIP3    H249456   1.182   6.626   9.190  1.8423  0.3331 -2.1451
 8421TIP3   OH249457   0.990   1.111   8.717 -0.2163  0.3805 -0.4606
 8421TIP3    H149458   0.899   1.089   8.696  0.2607 -0.4836 -1.7819
 8421TIP3    H249459   0.986   1.151   8.804 -1.6337 -1.5107  0.4138
 8422TIP3   OH249460   4.697   4.398   9.828 -0.4084  0.3743 -0.5593
 8422TIP3    H149461   4.742   4.335   9.772  2.0142  0.1032  1.4868
 8422TIP3    H249462   4.687   4.477   9.775  0.6403 -0.2766 -1.7525
 8423TIP3   OH249463   0.791   1.415  10.703 -0.3738  0.0713  0.2116
 8423TIP3    H149464   0.843   1.403  10.623  0.9789  1.8891  0.7485
 8423TIP3    H249465   0.702   1.429  10.672 -0.5769 -2.7444 -0.7580
 8424TIP3   OH249466   0.933   2.566  10.471  0.1896 -0.3041 -0.9793
 8424TIP3    H149467   0.854   2.543  10.422  0.6556  0.0559 -1.9392
 8424TIP3    H249468   0.979   2.627  10.413  0.7642  0.1389 -0.0755
 8425TIP3   OH249469   2.450   1.203  11.707 -0.7915 -0.1065  0.0425
 8425TIP3    H149470   2.433   1.171  11.618  0.0986 -1.4074  0.2998
 8425TIP3    H249471   2.405   1.140  11.764  1.3278 -1.2354  0.5855
 8426TIP3   OH249472   0.262   4.968  10.175  0.4956 -0.3579 -0.1525
 8426TIP3    H149473   0.303   4.935  10.255  2.0418  0.8696 -0.3841
 8426TIP3    H249474   0.306   4.920  10.104 -0.3775 -0.9427 -0.3100
 8427TIP3   OH249475   4.863   5.009   9.385  0.0935  0.1718  0.3050
 8427TIP3    H149476   4.837   4.919   9.365  3.2365 -0.7622 -0.0411
 8427TIP3    H249477   4.931   5.030   9.321 -1.7401  3.5477 -0.8181
 8428TIP3   OH249478   4.762   5.110   9.044  0.3409  0.1373  0.1250
 8428TIP3    H149479   4.852   5.107   9.077  0.7128  0.2253 -0.8317
 8428TIP3    H249480   4.766   5.062   8.961 -0.2833  0.9500 -0.3902
 8429TIP3   OH249481   2.061   2.222  11.028 -0.6523 -0.1410  0.2247
 8429TIP3    H149482   2.022   2.187  10.948 -1.0197  0.2189  0.2427
 8429TIP3    H249483   1.987   2.250  11.081 -0.4989 -1.7629  1.3666
 8430TIP3   OH249484   6.091   3.009  10.540  0.1913 -0.1072 -0.7661
 8430TIP3    H149485   6.047   2.930  10.508 -2.0560  0.6074  0.3282
 8430TIP3    H249486   6.032   3.045  10.606  1.6085  1.9610 -0.4995
 8431TIP3   OH249487   4.327   4.653  11.839  0.7106 -0.6102 -0.1262
 8431TIP3    H149488   4.252   4.661  11.899  1.7802  0.4963  1.1416
 8431TIP3    H249489   4.376   4.578  11.873  1.9923  0.7774  1.2516
 8432TIP3   OH249490   0.091   5.038   9.629  0.3162  0.0801 -0.3928
 8432TIP3    H149491  -0.003   5.022   9.633  0.2832  0.4622  0.5173
 8432TIP3    H249492   0.128   4.955   9.598 -0.2991 -0.1523 -0.5112
 8433TIP3   OH249493   5.374   5.879  10.666 -0.2851 -0.3165 -0.0413
 8433TIP3    H149494   5.394   5.972  10.658 -0.3377 -0.2971  0.0458
 8433TIP3    H249495   5.324   5.872  10.747 -4.1765  0.2519 -2.1154
 8434TIP3   OH249496   2.278   3.118  10.050 -0.1868 -0.4039 -0.0396
 8434TIP3    H149497   2.224   3.039  10.042 -1.9425  0.7659 -0.4145
 8434TIP3    H249498   2.309   3.135   9.961 -0.5358 -0.2112 -0.1287
 8435TIP3   OH249499   0.903   1.878   8.910 -0.1480 -0.2450  0.3139
 8435TIP3    H149500   0.866   1.964   8.888 -2.0291 -0.6871  1.5093
 8435TIP3    H249501   0.923   1.884   9.003 -2.7626 -1.8321  1.0985
 8436TIP3   OH249502   3.865   4.326  11.910 -0.8244  0.0065  0.5038
 8436TIP3    H149503   3.932   4.259  11.926 -0.0706  0.8672  1.1176
 8436TIP3    H249504   3.911   4.394  11.860 -1.5236  0.1584  0.0523
 8437TIP3   OH249505   1.946   5.738  11.266 -0.5609  0.0377  0.1934
 8437TIP3    H149506   1.964   5.715  11.174  1.1690 -2.5726  1.0712
 8437TIP3    H249507   1.864   5.693  11.286  1.4461 -3.5726  1.1282
 8438TIP3   OH249508   0.012   5.719  11.440 -0.0356  0.5491 -0.6305
 8438TIP3    H149509  -0.080   5.717  11.414 -0.4179  1.6646  0.5531
 8438TIP3    H249510   0.025   5.637  11.489 -0.7594  1.0038  0.3332
 8439TIP3   OH249511   2.735   5.545   9.757 -0.3072 -0.3965  0.1337
 8439TIP3    H149512   2.818   5.573   9.718 -0.0391 -0.0532  0.9155
 8439TIP3    H249513   2.670   5.605   9.720 -0.0719 -0.1241  0.1564
 8440TIP3   OH249514   0.762   3.778  10.239 -0.0565  0.1870  0.7593
 8440TIP3    H149515   0.779   3.734  10.322 -0.5607  1.1959  1.4180
 8440TIP3    H249516   0.724   3.862  10.264  1.9889  1.5365 -0.4146
 8441TIP3   OH249517   4.938   5.392  10.948 -0.1383 -0.1491 -0.4397
 8441TIP3    H149518   4.864   5.335  10.925  0.3291 -0.8632 -0.2241
 8441TIP3    H249519   5.007   5.331  10.975  0.7138  0.4884 -1.1449
 8442TIP3   OH249520   0.402   2.406   9.553  0.4092  0.1716  0.0237
 8442TIP3    H149521   0.355   2.444   9.479  1.0489 -0.7681 -0.8941
 8442TIP3    H249522   0.491   2.394   9.522  0.4739 -1.0970  0.6285
 8443TIP3   OH249523   3.399   3.801  11.329 -0.3094  0.7234 -0.6826
 8443TIP3    H149524   3.482   3.771  11.292  0.3905  0.7643  0.7897
 8443TIP3    H249525   3.398   3.895  11.315 -0.1416  0.7093 -0.7785
 8444TIP3   OH249526   5.014   0.093  10.033 -0.2374  0.1788 -0.3948
 8444TIP3    H149527   4.991   0.149  10.107 -0.5324  0.1303 -0.4485
 8444TIP3    H249528   4.931   0.052  10.007 -0.0577 -0.1419 -0.4725
 8445TIP3   OH249529   6.188   0.097  10.026 -0.7865  0.6512  0.1421
 8445TIP3    H149530   6.228   0.181  10.003 -0.7025  1.0433  1.6110
 8445TIP3    H249531   6.102   0.120  10.061 -1.2241  0.0201 -0.4867
 8446TIP3   OH249532   4.922   2.801  10.052 -0.3545  0.3884  0.4067
 8446TIP3    H149533   5.005   2.777  10.010  1.6459  2.0537  3.0694
 8446TIP3    H249534   4.870   2.841   9.983  1.1881 -0.4183 -1.2795
 8447TIP3   OH249535   1.994   1.627  10.397  0.1527 -0.0147 -0.4493
 8447TIP3    H149536   1.969   1.706  10.348 -0.7841  0.8870  1.3896
 8447TIP3    H249537   2.090   1.626  10.392  0.2271  1.6035 -0.0381
 8448TIP3   OH249538   1.775   0.286  10.423  0.7298  0.3464  0.1459
 8448TIP3    H149539   1.817   0.371  10.409  1.9210 -0.3586 -0.7511
 8448TIP3    H249540   1.742   0.291  10.513  0.9614  1.6750  0.1860
 8449TIP3   OH249541   0.299   6.113   8.771 -0.5724 -0.2600  0.1635
 8449TIP3    H149542   0.300   6.022   8.740 -1.4978  0.0692 -0.8905
 8449TIP3    H249543   0.237   6.157   8.713  1.4050  1.5310 -0.7369
 8450TIP3   OH249544   1.850   2.604  11.156  0.2468 -0.2992 -0.7367
 8450TIP3    H149545   1.883   2.618  11.067  0.7335  0.2531 -0.4779
 8450TIP3    H249546   1.819   2.690  11.184  0.3762 -0.4045 -0.2635
 8451TIP3   OH249547   1.033   3.289   9.249  0.3262 -0.3779  0.8204
 8451TIP3    H149548   0.982   3.346   9.191 -1.0130 -1.5641  0.7508
 8451TIP3    H249549   0.969   3.257   9.313  1.4169 -0.4385  1.9258
 8452TIP3   OH249550   4.380   0.919  10.533  0.3796 -0.1766  0.4454
 8452TIP3    H149551   4.389   0.826  10.512  1.7946 -0.2180  1.1189
 8452TIP3    H249552   4.382   0.922  10.629  1.5989  0.6289  0.4166
 8453TIP3   OH249553   0.531   1.446  10.635 -0.3417 -0.6444  0.6815
 8453TIP3    H149554   0.503   1.415  10.549  2.8664 -2.0735  0.0271
 8453TIP3    H249555   0.516   1.372  10.693  0.6724 -0.9118  0.6150
 8454TIP3   OH249556   2.810   4.015  10.220  0.7670  0.5000 -0.2514
 8454TIP3    H149557   2.739   3.970  10.267  0.9175  0.5971  0.0691
 8454TIP3    H249558   2.782   4.107  10.217  0.4300  0.3796 -0.9606
 8455TIP3   OH249559   3.881   5.937  10.900  0.1161 -0.3715 -0.8204
 8455TIP3    H149560   3.935   6.011  10.874 -0.3752  0.3571  0.1657
 8455TIP3    H249561   3.862   5.890  10.819 -1.0684  1.5882 -1.7334
 8456TIP3   OH249562   6.208   5.129   9.260  0.7599 -0.8223  0.3096
 8456TIP3    H149563   6.264   5.119   9.183  0.3620  0.6337 -0.2122
 8456TIP3    H249564   6.131   5.176   9.227  0.3649 -0.5956  1.5038
 8457TIP3   OH249565   1.532   0.064  11.921  0.5438 -0.5243 -0.0583
 8457TIP3    H149566   1.582   0.034  11.997  1.8127 -1.1509 -1.0837
 8457TIP3    H249567   1.465   0.121  11.957  1.5243 -0.2710  1.4727
 8458TIP3   OH249568   4.293   0.265  11.330  0.0081  0.0807  0.0438
 8458TIP3    H149569   4.246   0.209  11.268  0.9376 -0.6682 -0.0023
 8458TIP3    H249570   4.315   0.206  11.403 -2.1525  1.1939  1.7317
 8459TIP3   OH249571   1.438   0.342  10.511 -0.0611  0.3188 -0.1109
 8459TIP3    H149572   1.515   0.334  10.568 -0.1455  2.1558  0.3431
 8459TIP3    H249573   1.422   0.253  10.480  3.1402  0.0563 -1.4398
 8460TIP3   OH249574   3.833   3.359   9.143 -0.2843  0.0509 -0.0780
 8460TIP3    H149575   3.852   3.445   9.179  0.5463  1.2717 -3.1770
 8460TIP3    H249576   3.914   3.309   9.156 -0.0400  0.4316 -0.1204
 8461TIP3   OH249577   5.250   6.014  10.046  0.3949  0.9639 -0.1483
 8461TIP3    H149578   5.173   5.977  10.003  0.0899 -0.1061  1.2662
 8461TIP3    H249579   5.308   6.038   9.973 -0.6330  0.4009 -1.1893
 8462TIP3   OH249580   4.248   3.313   9.877 -0.0823  0.1196 -0.5777
 8462TIP3    H149581   4.180   3.251   9.853  0.0665 -0.0873 -0.4631
 8462TIP3    H249582   4.208   3.368   9.945 -0.2131  0.1498 -0.6799
 8463TIP3   OH249583   6.363   2.152   9.207  0.3234 -0.1398  0.4572
 8463TIP3    H149584   6.363   2.199   9.123 -2.2178  0.5041  0.7376
 8463TIP3    H249585   6.340   2.061   9.183 -0.1758 -0.0071  0.4195
 8464TIP3   OH249586   5.286   5.262   8.391  0.1510  0.1718 -0.2152
 8464TIP3    H149587   5.260   5.275   8.300 -0.2552  0.4050 -0.0680
 8464TIP3    H249588   5.205   5.238   8.436  0.7813 -2.5372 -0.3807
 8465TIP3   OH249589   0.197   5.814  11.292 -0.0983 -0.2635 -0.4046
 8465TIP3    H149590   0.124   5.794  11.350  0.4892  0.6472  0.6956
 8465TIP3    H249591   0.156   5.843  11.210 -0.9792  0.1636  0.1698
 8466TIP3   OH249592   5.416   1.372  10.136  0.3919 -0.2173 -0.1767
 8466TIP3    H149593   5.467   1.356  10.215  1.6953 -0.9102 -1.1200
 8466TIP3    H249594   5.452   1.454  10.101  0.1289 -0.1490 -0.2857
 8467TIP3   OH249595   2.010   3.273  11.955  0.3631  0.3853 -0.1980
 8467TIP3    H149596   2.079   3.338  11.939 -0.2176  0.8054 -1.0633
 8467TIP3    H249597   1.956   3.276  11.876  0.3555 -1.1890 -0.2720
 8468TIP3   OH249598   4.016   5.102  10.475  0.1577  0.0561  0.2620
 8468TIP3    H149599   3.928   5.085  10.441 -0.6478  1.1718  1.6565
 8468TIP3    H249600   4.065   5.023  10.453 -1.0480 -0.4127 -0.9599
 8469TIP3   OH249601   5.154   2.993   9.827  0.1508  0.1198  0.3235
 8469TIP3    H149602   5.084   2.938   9.794  0.6211 -1.1330  1.3158
 8469TIP3    H249603   5.154   3.070   9.770 -0.0370 -1.2459 -1.5915
 8470TIP3   OH249604   2.296   3.635   9.885  0.5348 -0.5994 -0.5755
 8470TIP3    H149605   2.333   3.582   9.814  1.1794 -0.1753 -0.5683
 8470TIP3    H249606   2.366   3.639   9.950  0.6007  0.4623 -0.6883
 8471TIP3   OH249607   2.978   0.474   9.384 -0.1365 -0.1735 -0.2369
 8471TIP3    H149608   3.030   0.513   9.314  0.2227  0.1427  0.2059
 8471TIP3    H249609   3.030   0.400   9.415  0.2136  0.3374  0.4268
 8472TIP3   OH249610   3.716   1.025   9.754 -0.2695 -0.4533 -0.5563
 8472TIP3    H149611   3.809   1.005   9.746  0.6411  2.1512  1.7790
 8472TIP3    H249612   3.712   1.120   9.759 -3.0528 -0.4939 -0.2956
 8473TIP3   OH249613   1.140   4.672   9.069 -0.5162  0.0543  0.2612
 8473TIP3    H149614   1.142   4.596   9.127 -1.1865  0.9879  1.5633
 8473TIP3    H249615   1.076   4.731   9.109  0.1509  1.4032 -0.5748
 8474TIP3   OH249616   4.070   6.480  11.534 -0.3702 -0.0176 -0.1690
 8474TIP3    H149617   4.111   6.566  11.528  0.2636 -0.4166 -2.3663
 8474TIP3    H249618   4.143   6.418  11.529 -0.8306 -0.7018  1.2669
 8475TIP3   OH249619   1.529   4.020  10.225  0.6285  0.2819 -0.0265
 8475TIP3    H149620   1.602   3.988  10.278 -1.2396 -1.6859  1.5497
 8475TIP3    H249621   1.535   3.970  10.143 -0.2321 -1.7117  1.0455
 8476TIP3   OH249622   2.549   6.714   9.762  0.4076  0.8889  0.1500
 8476TIP3    H149623   2.642   6.716   9.786  0.9396  0.3203 -1.7197
 8476TIP3    H249624   2.549   6.713   9.667 -1.4614 -1.7960  0.0845
 8477TIP3   OH249625   4.356   3.254   8.694 -0.0645  0.4663 -0.3039
 8477TIP3    H149626   4.314   3.215   8.771  0.5446 -0.1597 -0.2820
 8477TIP3    H249627   4.448   3.227   8.701  0.2728  1.5185 -0.5387
 8478TIP3   OH249628   2.281   6.370  12.090 -0.2261 -0.6923 -0.5339
 8478TIP3    H149629   2.252   6.402  12.176 -1.4663 -0.0732 -1.1451
 8478TIP3    H249630   2.276   6.448  12.034  1.9807 -0.7383 -0.8636
 8479TIP3   OH249631   6.005   5.241   8.696 -0.4890  0.1904 -0.6607
 8479TIP3    H149632   5.987   5.147   8.687 -1.1750  0.3466 -1.0493
 8479TIP3    H249633   5.919   5.283   8.686  0.0186  0.9606 -2.1800
 8480TIP3   OH249634   2.269   6.165   9.547  0.1112 -0.0742 -0.3909
 8480TIP3    H149635   2.318   6.243   9.572 -0.0042 -0.4059  0.9219
 8480TIP3    H249636   2.185   6.199   9.515 -0.5764  0.3255  1.6625
 8481TIP3   OH249637   1.356   4.089  10.927 -0.0258 -0.3732 -0.0269
 8481TIP3    H149638   1.408   4.108  11.005  1.8913  2.0000 -1.7369
 8481TIP3    H249639   1.314   4.172  10.906  2.5772  0.2355 -3.6000
 8482TIP3   OH249640   4.003   2.518   9.776 -0.5894 -0.4373  0.2188
 8482TIP3    H149641   4.087   2.472   9.781 -0.3779 -0.2405 -1.1213
 8482TIP3    H249642   3.969   2.514   9.865 -0.0178 -2.1177  0.4056
 8483TIP3   OH249643   5.870   1.142   9.123  0.0252 -0.2498  0.8208
 8483TIP3    H149644   5.965   1.155   9.118  0.3477 -2.3385  0.7172
 8483TIP3    H249645   5.846   1.169   9.211  0.9897 -1.1873  1.3844
 8484TIP3   OH249646   4.731   1.556  11.214 -0.5274 -0.5509  0.4091
 8484TIP3    H149647   4.712   1.593  11.300  1.2270  1.8791 -0.1504
 8484TIP3    H249648   4.657   1.581  11.160 -0.0891  0.8473  0.4281
 8485TIP3   OH249649   4.162   4.260   8.828 -0.3032 -0.0752 -0.3209
 8485TIP3    H149650   4.167   4.219   8.742 -1.6232  1.1569 -1.0300
 8485TIP3    H249651   4.195   4.349   8.814 -0.9340  0.2730  0.3358
 8486TIP3   OH249652   0.667   0.166   9.433 -0.7006 -0.1320 -0.1881
 8486TIP3    H149653   0.582   0.207   9.417 -0.4504  0.1636 -0.8295
 8486TIP3    H249654   0.716   0.180   9.351  0.2666  0.4578  0.4689
 8487TIP3   OH249655   0.405   0.969  10.391 -0.1770 -0.0850  0.0336
 8487TIP3    H149656   0.446   0.952  10.476  0.8050  1.0400 -0.1958
 8487TIP3    H249657   0.410   0.886  10.345  1.3040 -0.1311  0.2427
 8488TIP3   OH249658   0.602   4.903   8.979  1.4264 -0.1300  0.1509
 8488TIP3    H149659   0.664   4.976   8.987  1.1536 -0.1209  3.2212
 8488TIP3    H249660   0.601   4.863   9.066 -3.0599  0.0121  0.3680
 8489TIP3   OH249661   3.546   5.962   9.588 -0.2915  0.4454  0.1547
 8489TIP3    H149662   3.495   6.028   9.635  1.2451 -0.2968  3.0677
 8489TIP3    H249663   3.631   6.003   9.573 -0.0124 -0.1436  0.0912
 8490TIP3   OH249664   0.655   0.461   9.698 -0.3467 -0.8551  0.1949
 8490TIP3    H149665   0.572   0.487   9.657 -0.4220 -0.2790  0.6906
 8490TIP3    H249666   0.636   0.463   9.792 -0.1429 -2.0208  0.2809
 8491TIP3   OH249667   0.482   0.227  10.674 -0.2386  0.1604  0.2997
 8491TIP3    H149668   0.559   0.177  10.649 -1.2647 -1.0008 -0.6372
 8491TIP3    H249669   0.516   0.313  10.700  1.2106  0.2260 -1.6633
 8492TIP3   OH249670   1.051   5.807  10.851  0.6290 -0.7341 -0.1776
 8492TIP3    H149671   1.004   5.733  10.889  0.7930 -0.0382  1.4700
 8492TIP3    H249672   1.134   5.809  10.898  0.3758  0.8632  0.2670
 8493TIP3   OH249673   2.726   0.453   9.284 -0.4396  0.1472  0.3424
 8493TIP3    H149674   2.692   0.524   9.338 -1.8710 -1.4384  1.6430
 8493TIP3    H249675   2.812   0.434   9.321 -0.2720  0.8525  0.3164
 8494TIP3   OH249676   0.918   4.826  10.079 -0.1029 -0.1667 -0.6847
 8494TIP3    H149677   0.977   4.769  10.127 -0.0763  0.7987  0.4827
 8494TIP3    H249678   0.962   4.911  10.077 -0.7837  0.1912 -1.1080
 8495TIP3   OH249679   5.512   5.880   9.054 -0.5341 -0.0387  0.5529
 8495TIP3    H149680   5.478   5.813   9.112 -0.4006  0.0166  0.6942
 8495TIP3    H249681   5.434   5.922   9.018 -0.6182 -0.2445  0.4897
 8496TIP3   OH249682   1.231   3.218  11.271 -0.1638  0.3547 -0.0417
 8496TIP3    H149683   1.228   3.125  11.294  1.5326  0.0503 -0.8656
 8496TIP3    H249684   1.302   3.253  11.324  0.7506  0.6383 -1.3980
 8497TIP3   OH249685   0.367   6.561  11.526  0.6563  0.2108  0.3666
 8497TIP3    H149686   0.283   6.595  11.496  0.2269 -0.1401  1.1513
 8497TIP3    H249687   0.427   6.636  11.520  0.8668 -0.0873 -2.3171
 8498TIP3   OH249688   0.048   1.926  11.052  0.3277 -0.0329  0.3563
 8498TIP3    H149689   0.078   1.839  11.024 -1.6052 -0.3586 -0.8986
 8498TIP3    H249690   0.081   1.935  11.141  3.7089 -0.4846 -0.6934
 8499TIP3   OH249691   3.885   0.596  10.995  0.3269 -0.7235  0.0013
 8499TIP3    H149692   3.888   0.666  11.060  0.1409 -0.0350 -0.7027
 8499TIP3    H249693   3.946   0.530  11.027  0.7361 -0.1019  0.5319
 8500TIP3   OH249694   4.589   3.744  10.736 -0.1852  0.0120  0.0007
 8500TIP3    H149695   4.659   3.681  10.754 -0.6782 -0.6616 -0.3516
 8500TIP3    H249696   4.565   3.727  10.644 -1.1134 -0.0893  0.2490
 8501TIP3   OH249697   5.742   1.825   9.838  0.3125  0.1596  0.0767
 8501TIP3    H149698   5.736   1.870   9.922 -0.9539  0.8265 -0.3464
 8501TIP3    H249699   5.825   1.777   9.842  1.0035  1.3874  1.0998
 8502TIP3   OH249700   0.513   4.379   9.374 -0.1741 -0.1717 -0.2307
 8502TIP3    H149701   0.521   4.410   9.284  0.4728  0.4536  0.0221
 8502TIP3    H249702   0.419   4.376   9.391 -0.2924  1.6431 -0.3055
 8503TIP3   OH249703   2.479   6.504   9.963  0.1618 -0.4786 -0.3825
 8503TIP3    H149704   2.497   6.540   9.876  0.4332  0.4736  0.0517
 8503TIP3    H249705   2.388   6.528   9.981 -0.1083 -1.2500 -0.6631
 8504TIP3   OH249706   3.424   5.100  11.302  0.3146  0.6712 -0.1303
 8504TIP3    H149707   3.398   5.033  11.238 -1.3198 -0.7257  1.8594
 8504TIP3    H249708   3.349   5.160  11.305  0.7269  1.1917 -0.1097
 8505TIP3   OH249709   5.974   6.637  10.130 -0.4672  0.1948 -0.0641
 8505TIP3    H149710   5.926   6.571  10.080 -0.7118 -1.3791  2.0731
 8505TIP3    H249711   6.065   6.609  10.126 -0.8298 -1.9622  2.9301
 8506TIP3   OH249712   1.615   4.902   9.513  0.3129 -0.0651  0.2211
 8506TIP3    H149713   1.592   4.949   9.593  1.0134  0.2870  0.2243
 8506TIP3    H249714   1.711   4.909   9.508  0.6466 -2.7088  1.0018
 8507TIP3   OH249715   5.993   6.694  12.046  0.3053 -0.4929 -0.5464
 8507TIP3    H149716   6.015   6.787  12.050 -0.2166 -0.4047  0.7020
 8507TIP3    H249717   5.898   6.691  12.054  0.0349 -1.0255 -3.0129
 8508TIP3   OH249718   0.404   6.544  10.231 -0.1471  0.0713  0.3851
 8508TIP3    H149719   0.409   6.463  10.181 -0.2365 -0.8161  1.7737
 8508TIP3    H249720   0.483   6.544  10.284  0.1387  1.1961 -0.0014
 8509TIP3   OH249721   6.335   5.361  11.079  0.3125 -0.1052  0.2059
 8509TIP3    H149722   6.335   5.315  11.163  0.4170 -0.1865  0.1624
 8509TIP3    H249723   6.259   5.327  11.033 -0.0589  0.3460  0.4873
 8510TIP3   OH249724   2.265   4.430  10.635 -0.8606  0.1520 -0.4045
 8510TIP3    H149725   2.338   4.371  10.652 -1.4996 -0.6463 -0.3277
 8510TIP3    H249726   2.300   4.495  10.575 -0.0457 -0.1167 -0.2355
 8511TIP3   OH249727   6.183   4.421  10.674 -0.6966 -0.3454 -1.1021
 8511TIP3    H149728   6.247   4.366  10.629  0.2636  1.0613 -1.5251
 8511TIP3    H249729   6.109   4.363  10.691 -0.2948 -1.4116 -2.7781
 8512TIP3   OH249730   2.517   5.047  11.790  0.4143 -0.1357 -0.5839
 8512TIP3    H149731   2.524   5.136  11.826 -0.7120 -0.0479 -0.5598
 8512TIP3    H249732   2.521   4.990  11.867  1.5021 -0.1420 -0.6266
 8513TIP3   OH249733   6.067   6.455  10.607  0.4028 -0.3201  0.3249
 8513TIP3    H149734   6.099   6.522  10.546 -0.2187  0.1136  0.4629
 8513TIP3    H249735   6.107   6.479  10.691  2.8384 -2.0255 -0.2275
 8514TIP3   OH249736   4.821   3.969   9.363  0.3206  0.1893 -0.3442
 8514TIP3    H149737   4.915   3.977   9.346  0.4678  0.8552  0.6739
 8514TIP3    H249738   4.802   3.876   9.354  1.3066 -0.1098  0.5098
 8515TIP3   OH249739   4.514   2.345   9.848  0.8270  0.1772  0.9568
 8515TIP3    H149740   4.553   2.262   9.820  0.6334  0.6443 -0.8575
 8515TIP3    H249741   4.425   2.343   9.812  1.3664  1.8549 -0.6853
 8516TIP3   OH249742   5.350   6.088  11.662 -0.3972 -0.7584  0.2960
 8516TIP3    H149743   5.429   6.064  11.709 -0.7050 -2.0545  0.1980
 8516TIP3    H249744   5.310   6.004  11.638 -0.5579 -0.1490 -1.7399
 8517TIP3   OH249745   0.655   6.295   9.603  0.1114 -0.0719 -0.0693
 8517TIP3    H149746   0.744   6.265   9.622  1.0562  1.5735 -1.5903
 8517TIP3    H249747   0.650   6.382   9.644 -0.5134  0.1925 -0.6896
 8518TIP3   OH249748   3.020   4.035  10.401 -0.0381  0.0253 -0.2067
 8518TIP3    H149749   3.022   4.126  10.431  0.4502 -0.6077  1.8587
 8518TIP3    H249750   2.946   4.031  10.341 -2.4313  1.0102  2.4484
 8519TIP3   OH249751   2.929   0.308  10.175 -0.4025  0.2583  0.2954
 8519TIP3    H149752   2.937   0.353  10.091 -1.3599 -0.4440 -0.1923
 8519TIP3    H249753   2.932   0.215  10.153 -0.8177  0.0630  1.0237
 8520TIP3   OH249754   1.673   1.075  11.124 -0.0303  0.3417 -0.0929
 8520TIP3    H149755   1.632   1.055  11.040  0.2314 -0.0829 -0.1218
 8520TIP3    H249756   1.619   1.145  11.161 -1.6074 -1.1224  0.5026
 8521TIP3   OH249757   2.228   3.963   8.948  0.1413 -0.1234  0.5080
 8521TIP3    H149758   2.224   3.876   8.908 -3.1661 -0.0267  0.3502
 8521TIP3    H249759   2.233   4.023   8.874  3.8615 -0.0537  0.6293
 8522TIP3   OH249760   0.392   5.247  10.154  0.0366  0.0814  0.2606
 8522TIP3    H149761   0.335   5.323  10.155 -0.0305  0.1554 -2.7220
 8522TIP3    H249762   0.337   5.174  10.184 -0.9860  0.5401 -0.4911
 8523TIP3   OH249763   6.366   4.163  10.665 -0.3594  0.5186  0.3233
 8523TIP3    H149764   6.408   4.088  10.623  1.9275  1.6471  0.4112
 8523TIP3    H249765   6.437   4.209  10.709 -1.9990  1.7073  1.8949
 8524TIP3   OH249766   4.927   4.217   8.615  0.3665 -0.9140 -0.1908
 8524TIP3    H149767   4.989   4.291   8.613  0.5469 -1.0517  0.4303
 8524TIP3    H249768   4.969   4.150   8.562  0.5262 -0.8292 -0.1734
 8525TIP3   OH249769   3.581   2.770   9.520  0.7608  0.8234 -0.6734
 8525TIP3    H149770   3.489   2.790   9.509  0.3363 -0.6695 -0.1400
 8525TIP3    H249771   3.588   2.677   9.499  1.4622 -0.0032  2.6051
 8526TIP3   OH249772   1.263   5.332  10.514  0.0481 -0.1686  0.2032
 8526TIP3    H149773   1.216   5.316  10.596 -1.4496  0.1796 -0.5505
 8526TIP3    H249774   1.338   5.272  10.518 -1.6134 -2.3592  0.5251
 8527TIP3   OH249775   6.706   3.847  11.484 -0.1089 -0.1434 -0.1478
 8527TIP3    H149776   6.681   3.763  11.446 -0.2651  0.3305 -1.1154
 8527TIP3    H249777   6.726   3.903  11.409 -0.8349  0.9496  0.4463
 8528TIP3   OH249778   1.074   3.610   8.811 -0.3598  0.2651  0.5816
 8528TIP3    H149779   1.113   3.525   8.788 -0.1505  0.3283  0.6953
 8528TIP3    H249780   1.095   3.621   8.904  1.9110  1.6271 -0.0086
 8529TIP3   OH249781   0.319   5.494  11.942  0.3925  0.3649  0.5150
 8529TIP3    H149782   0.276   5.579  11.943 -0.6033 -0.1137  1.3202
 8529TIP3    H249783   0.250   5.432  11.966  1.2617 -0.5795  0.6771
 8530TIP3   OH249784   5.860   2.718  11.060  0.1641 -0.3464 -1.0210
 8530TIP3    H149785   5.943   2.721  11.107 -0.6459 -0.9040  0.5521
 8530TIP3    H249786   5.853   2.628  11.029 -1.6095 -1.6406  2.4766
 8531TIP3   OH249787   5.708   5.762   8.591 -0.2254  0.1283 -0.1997
 8531TIP3    H149788   5.778   5.745   8.655 -0.2001  0.0686 -0.2432
 8531TIP3    H249789   5.641   5.810   8.641  0.1851  0.8693 -0.3391
 8532TIP3   OH249790   1.758   0.988  11.447  0.5910 -0.6212 -0.7104
 8532TIP3    H149791   1.688   0.945  11.399  1.6735 -0.7182 -2.2552
 8532TIP3    H249792   1.745   1.082  11.430 -0.2964 -0.4691  0.6289
 8533TIP3   OH249793   5.286   5.494   8.589  0.3436 -0.0421  0.0958
 8533TIP3    H149794   5.280   5.423   8.526 -1.1440  1.7067 -1.9037
 8533TIP3    H249795   5.376   5.526   8.580  0.3514 -0.2467 -0.6633
 8534TIP3   OH249796   6.650   5.843   8.890 -0.4400 -0.2286 -0.0487
 8534TIP3    H149797   6.662   5.937   8.878  0.5638 -0.2825  0.4123
 8534TIP3    H249798   6.706   5.821   8.965  0.2791 -1.3935 -0.8877
 8535TIP3   OH249799   1.586   3.298  10.856 -0.3316 -0.1768  0.0166
 8535TIP3    H149800   1.664   3.260  10.816 -0.3177  2.7692 -3.2342
 8535TIP3    H249801   1.604   3.295  10.950  2.6204 -1.6673 -0.4508
 8536TIP3   OH249802   3.699   0.415  10.280  0.0799 -0.4671  0.2998
 8536TIP3    H149803   3.646   0.445  10.206 -0.0405 -0.7283  0.2792
 8536TIP3    H249804   3.635   0.397  10.349  0.2415  0.4279  0.7002
 8537TIP3   OH249805   4.001   5.261  10.011 -0.0465 -0.1277 -0.0477
 8537TIP3    H149806   3.936   5.331  10.014 -0.7524 -0.6262 -2.0550
 8537TIP3    H249807   3.951   5.182   9.991  1.0184 -0.7704 -0.2532
 8538TIP3   OH249808   3.043   2.772   9.295 -0.1373  0.2516 -0.5622
 8538TIP3    H149809   3.018   2.680   9.292  2.7903 -0.6295 -3.5425
 8538TIP3    H249810   2.990   2.813   9.227 -1.1593  0.7817  0.5056
 8539TIP3   OH249811   1.842   5.072  12.591  0.6954 -0.6833  0.2231
 8539TIP3    H149812   1.923   5.110  12.625  0.6200 -0.6013  0.3090
 8539TIP3    H249813   1.819   5.127  12.516  0.8288 -0.8280  0.0737
 8540TIP3   OH249814   6.767   0.047  10.622  0.5232 -0.3816 -0.5603
 8540TIP3    H149815   6.815   0.039  10.539  2.2151 -1.9959  0.5009
 8540TIP3    H249816   6.801  -0.023  10.677 -1.2664  0.0231  1.1961
 8541TIP3   OH249817   5.260   0.636  10.166 -0.3844  0.5458  0.1288
 8541TIP3    H149818   5.310   0.631  10.248  1.0331  1.7602 -0.6201
 8541TIP3    H249819   5.303   0.705  10.116 -0.5771 -0.8727 -2.1012
 8542TIP3   OH249820   6.404   3.469   9.806 -0.1395 -0.0596  0.2557
 8542TIP3    H149821   6.476   3.429   9.854 -0.4798 -2.2547 -0.9530
 8542TIP3    H249822   6.443   3.498   9.724 -0.3449  0.0559  0.1976
 8543TIP3   OH249823   1.516   6.219  11.934  0.2235 -0.0878 -0.1314
 8543TIP3    H149824   1.426   6.246  11.948 -0.1023 -0.3908 -1.5134
 8543TIP3    H249825   1.524   6.208  11.839  1.4186 -1.0707  0.0514
 8544TIP3   OH249826   2.885   2.524  11.546  0.2696  0.6079  0.2587
 8544TIP3    H149827   2.946   2.495  11.614  1.2299 -0.4903 -0.9965
 8544TIP3    H249828   2.815   2.458  11.548 -0.0299  0.9344  0.5989
 8545TIP3   OH249829   4.646   4.545   9.136 -0.4631 -0.0656  0.1564
 8545TIP3    H149830   4.714   4.479   9.151  1.2151  1.5756  0.1030
 8545TIP3    H249831   4.644   4.595   9.218  0.2576  1.4918 -0.7347
 8546TIP3   OH249832   5.339   3.054   8.915  0.2633 -0.4719  0.3252
 8546TIP3    H149833   5.295   2.986   8.863  1.0382  0.1264 -1.1847
 8546TIP3    H249834   5.317   3.136   8.870  1.2254  0.0345  0.7605
 8547TIP3   OH249835   1.677   4.523   9.810  0.7698 -0.3678 -0.1979
 8547TIP3    H149836   1.631   4.561   9.736  0.6995  0.9328  0.4760
 8547TIP3    H249837   1.612   4.469   9.854 -0.2185  1.5590  0.8253
 8548TIP3   OH249838   3.324   2.336   9.044  0.4713  0.1917  0.0631
 8548TIP3    H149839   3.366   2.302   9.123 -0.4214 -2.3016 -0.4363
 8548TIP3    H249840   3.230   2.322   9.059 -0.0139  2.7586 -0.1230
 8549TIP3   OH249841   5.998   5.143  10.398  0.3067 -0.0130  0.1872
 8549TIP3    H149842   5.970   5.056  10.369  2.4959 -0.9488  0.6456
 8549TIP3    H249843   5.940   5.203  10.352  0.0264 -1.6367 -1.7704
 8550TIP3   OH249844   5.032   5.868  16.679  0.6713  0.3123  0.2705
 8550TIP3    H149845   4.976   5.797  16.651 -0.3762  0.9581  0.6778
 8550TIP3    H249846   5.009   5.941  16.621 -0.8026  1.3584  2.0779
 8551TIP3   OH249847   5.048   2.927   9.261  0.0279  0.3226  0.1076
 8551TIP3    H149848   5.021   2.836   9.261  0.3143  0.1919  2.4500
 8551TIP3    H249849   5.134   2.927   9.302 -0.3059  1.7228  0.8781
 8552TIP3   OH249850   3.183   1.220  11.182 -0.1254  0.4145  0.4888
 8552TIP3    H149851   3.124   1.246  11.253 -2.2064 -2.8548  0.1579
 8552TIP3    H249852   3.126   1.214  11.105  1.6700  1.7484 -1.0289
 8553TIP3   OH249853   3.783   4.468   9.363  0.5558 -0.3054 -0.0838
 8553TIP3    H149854   3.720   4.427   9.421  1.4529 -0.9385  0.4601
 8553TIP3    H249855   3.748   4.556   9.348  0.4821  0.0227  1.7323
 8554TIP3   OH249856   4.988   6.298  12.022  0.5044  0.0251  0.3293
 8554TIP3    H149857   4.921   6.260  12.079  1.4074 -1.9673  0.1475
 8554TIP3    H249858   4.942   6.322  11.942 -0.3219  0.5026  0.9365
 8555TIP3   OH249859   1.564   2.743   9.023 -0.2628  0.3496  0.6947
 8555TIP3    H149860   1.486   2.796   9.010  0.1387  0.8390  0.2083
 8555TIP3    H249861   1.590   2.717   8.934  0.1644  0.2506  0.8449
 8556TIP3   OH249862   5.054   0.431  11.974 -0.0924 -0.0922  0.4378
 8556TIP3    H149863   5.082   0.420  11.883  1.0397  0.4784  0.6897
 8556TIP3    H249864   4.977   0.487  11.969  1.6705  2.5064 -0.0642
 8557TIP3   OH249865   3.018   5.676  10.375  0.6258  0.0586  0.7843
 8557TIP3    H149866   2.923   5.682  10.363  0.4276 -2.0472  0.8393
 8557TIP3    H249867   3.047   5.766  10.386 -1.7508  0.6300  3.6360
 8558TIP3   OH249868   3.419   2.075  10.935 -0.3265  0.0881 -0.0198
 8558TIP3    H149869   3.477   2.141  10.972  0.7780 -0.4993 -0.6536
 8558TIP3    H249870   3.474   2.024  10.875 -1.2322 -1.1683  0.1541
 8559TIP3   OH249871   0.725   6.177  12.090 -0.1079 -0.3647 -0.6765
 8559TIP3    H149872   0.659   6.169  12.020 -0.4800 -2.0139 -0.1888
 8559TIP3    H249873   0.788   6.107  12.072  0.3412 -0.1659  0.0701
 8560TIP3   OH249874   3.384   0.865  10.091 -0.3001  0.6527  0.0894
 8560TIP3    H149875   3.349   0.952  10.113  0.4257  0.7779  0.7882
 8560TIP3    H249876   3.396   0.867   9.996  0.5021  1.6217  0.1972
 8561TIP3   OH249877   4.538   1.149  10.450 -0.0337 -0.0663  1.0795
 8561TIP3    H149878   4.559   1.103  10.369  0.3469  1.0997  0.5090
 8561TIP3    H249879   4.459   1.104  10.483  0.9323 -1.8310  1.1268
 8562TIP3   OH249880   2.449   0.007  16.469  0.5105  0.5962 -0.3313
 8562TIP3    H149881   2.530   0.056  16.462 -0.2223  1.8154 -0.5443
 8562TIP3    H249882   2.394   0.041  16.399 -0.5246  0.4768  0.3875
 8563TIP3   OH249883   5.464   2.529   9.643 -0.2049 -0.4968  0.9476
 8563TIP3    H149884   5.394   2.579   9.600  0.1825 -1.1221 -0.4969
 8563TIP3    H249885   5.535   2.593   9.654 -0.5386 -0.1720  1.2406
 8564TIP3   OH249886   1.953   5.485  10.492 -0.1503 -0.4618  0.0980
 8564TIP3    H149887   1.995   5.542  10.556  0.2743  0.6423 -1.1075
 8564TIP3    H249888   1.881   5.444  10.539 -0.1894  0.7434  1.1268
 8565TIP3   OH249889   1.107   5.554   9.961  0.2802 -0.2593  0.1495
 8565TIP3    H149890   1.128   5.552   9.867  0.0936  1.7902  0.0205
 8565TIP3    H249891   1.180   5.601  10.001 -0.7235  0.9087  0.6768
 8566TIP3   OH249892   1.346   0.695   9.958 -0.3543  0.3045 -0.2280
 8566TIP3    H149893   1.261   0.700   9.915 -0.2666  1.2641 -0.2954
 8566TIP3    H249894   1.367   0.601   9.957 -0.3485  0.2874 -2.2821
 8567TIP3   OH249895   1.206   0.316  10.639  0.5947  0.2851  0.4099
 8567TIP3    H149896   1.195   0.365  10.721 -0.8151  0.6842  0.0117
 8567TIP3    H249897   1.292   0.343  10.607  0.7505  0.8787  1.2650
 8568TIP3   OH249898   4.034   5.841  10.043  0.3963 -0.0090  0.4433
 8568TIP3    H149899   4.119   5.803  10.019 -0.1810 -1.1210  0.1001
 8568TIP3    H249900   4.023   5.817  10.135  0.4047  0.0628  0.4634
 8569TIP3   OH249901   0.101   3.495  10.415  0.1285 -0.0017 -0.0355
 8569TIP3    H149902   0.159   3.427  10.382  0.9702 -0.1686  1.6825
 8569TIP3    H249903   0.053   3.453  10.486 -2.4524  0.0064 -1.6326
 8570TIP3   OH249904   3.587   2.540   9.070  0.3730  0.4553 -0.0355
 8570TIP3    H149905   3.626   2.619   9.107  0.1482  0.9140 -0.7425
 8570TIP3    H249906   3.533   2.504   9.140  0.7308  0.7485  0.3939
 8571TIP3   OH249907   0.710   2.813   9.960 -0.3677 -0.4916 -0.6644
 8571TIP3    H149908   0.641   2.789   9.899 -0.9025 -0.5480 -0.0449
 8571TIP3    H249909   0.670   2.876  10.019  0.4724  0.4287 -1.0574
 8572TIP3   OH249910   4.909   5.224  10.193 -0.9060  0.4352 -0.1938
 8572TIP3    H149911   4.897   5.286  10.120 -1.9657  0.4499 -0.0198
 8572TIP3    H249912   4.937   5.278  10.266 -1.6694  0.6991 -0.0880
 8573TIP3   OH249913   1.747   5.960  10.609  0.6123  0.4341  0.1204
 8573TIP3    H149914   1.798   5.926  10.536 -0.8903  0.4113 -0.9852
 8573TIP3    H249915   1.656   5.943  10.584  0.0635 -0.0934  2.2774
 8574TIP3   OH249916   6.057   3.806  10.938  0.3405  0.4123 -0.0554
 8574TIP3    H149917   6.122   3.840  10.876 -0.4289 -2.5169 -2.7865
 8574TIP3    H249918   6.085   3.715  10.952 -1.1194  0.1999  1.7219
 8575TIP3   OH249919   0.923   5.758   8.991 -0.4338  0.1408 -0.2422
 8575TIP3    H149920   0.886   5.670   8.984  0.5582 -0.6868  3.0573
 8575TIP3    H249921   1.007   5.752   8.946  0.3218 -1.1343  1.2399
 8576TIP3   OH249922   1.096   2.874  10.320  0.5649 -0.5593  0.0313
 8576TIP3    H149923   1.035   2.910  10.256 -1.1773 -1.6530  0.9916
 8576TIP3    H249924   1.105   2.942  10.386 -0.1395 -0.6381  0.2090
 8577TIP3   OH249925   0.896   4.750  12.137 -0.0528  0.6083 -0.4491
 8577TIP3    H149926   0.801   4.765  12.139 -1.0155 -3.9304 -1.4923
 8577TIP3    H249927   0.919   4.725  12.227 -0.6161 -1.4018 -0.8114
 8578TIP3   OH249928   1.380   4.467  11.295  0.2173 -0.3399  0.5339
 8578TIP3    H149929   1.439   4.449  11.368  2.3440 -0.9107 -1.2108
 8578TIP3    H249930   1.378   4.563  11.290  2.3639 -0.2932 -0.3457
 8579TIP3   OH249931   4.346   5.094   9.656 -0.1356  0.0847  0.3023
 8579TIP3    H149932   4.345   5.083   9.561  0.5685 -1.7576  0.4629
 8579TIP3    H249933   4.256   5.076   9.683 -0.2189  0.0958  0.0378
 8580TIP3   OH249934   3.880   1.695   9.890  0.0520 -0.4828 -1.0707
 8580TIP3    H149935   3.821   1.640   9.942  0.4253  0.4919  0.4362
 8580TIP3    H249936   3.858   1.785   9.915  2.9994 -0.0784  0.5727
 8581TIP3   OH249937   2.799   4.833   8.561  0.0250 -0.3125 -0.1260
 8581TIP3    H149938   2.816   4.756   8.616  0.3906 -0.2024 -0.0814
 8581TIP3    H249939   2.882   4.849   8.515  0.2823  0.6551  0.6282
 8582TIP3   OH249940   0.937   4.254  11.564  0.2282  0.1377  0.2671
 8582TIP3    H149941   1.007   4.306  11.524  1.3259 -1.0552  0.5643
 8582TIP3    H249942   0.914   4.302  11.644 -0.4773  1.3955 -0.6480
 8583TIP3   OH249943   0.753   0.836   9.847  0.0631  0.1123  0.0809
 8583TIP3    H149944   0.683   0.785   9.808 -0.3280  1.4545 -1.0487
 8583TIP3    H249945   0.775   0.902   9.781  1.7599  0.3014  0.7828
 8584TIP3   OH249946   6.705   1.151  11.121 -0.2881 -0.7002  0.6832
 8584TIP3    H149947   6.689   1.151  11.027  1.2916 -1.2293  0.3951
 8584TIP3    H249948   6.619   1.172  11.159 -0.8850 -0.1541 -0.8611
 8585TIP3   OH249949   3.544   2.649  10.895  0.5698  0.0362 -0.0434
 8585TIP3    H149950   3.624   2.682  10.854  0.2623 -0.2517 -0.8950
 8585TIP3    H249951   3.570   2.630  10.986  1.9831 -1.8324 -0.7606
 8586TIP3   OH249952   6.663   1.981   9.443  0.0768  0.1742  0.2470
 8586TIP3    H149953   6.571   2.000   9.422 -0.5985 -1.3929  1.5325
 8586TIP3    H249954   6.682   2.033   9.521  0.4729  0.9224 -0.3400
 8587TIP3   OH249955   4.269   1.689   8.832  0.4004  0.3585 -0.3103
 8587TIP3    H149956   4.302   1.772   8.865  0.2550 -0.0439  0.9220
 8587TIP3    H249957   4.344   1.646   8.792  0.9676  0.2315  0.8504
 8588TIP3   OH249958   1.061   5.976   9.589 -0.0083 -0.0647 -0.4067
 8588TIP3    H149959   1.133   5.952   9.647  1.4606  1.0317 -1.6779
 8588TIP3    H249960   1.080   5.932   9.506 -0.2331  1.0405 -1.0709
 8589TIP3   OH249961   0.305   1.610   9.283 -0.8219 -0.2544  0.6526
 8589TIP3    H149962   0.282   1.607   9.376 -1.1691  0.2316  0.5868
 8589TIP3    H249963   0.334   1.699   9.269 -1.0997 -0.2317  0.2172
 8590TIP3   OH249964   6.078   6.455   9.350 -0.4738  0.2913  0.1691
 8590TIP3    H149965   6.000   6.438   9.403  0.4821  2.0242  2.2813
 8590TIP3    H249966   6.073   6.549   9.330  1.3317  0.5658  0.8431
 8591TIP3   OH249967   3.268   5.509  10.509  0.0996 -0.2640 -0.1810
 8591TIP3    H149968   3.276   5.582  10.571 -0.4055  0.1181 -0.5582
 8591TIP3    H249969   3.241   5.550  10.427 -2.6562 -1.1074  0.2238
 8592TIP3   OH249970   3.693   5.870  11.119  0.2599 -0.5391 -0.0686
 8592TIP3    H149971   3.619   5.895  11.064 -0.9199 -2.2292  0.6764
 8592TIP3    H249972   3.769   5.912  11.078 -1.1414  1.6504 -0.5712
 8593TIP3   OH249973   6.128   2.902   8.643  0.2329  0.1816  0.0810
 8593TIP3    H149974   6.128   2.827   8.585  2.6651 -0.2922  0.5944
 8593TIP3    H249975   6.190   2.964   8.603 -0.3481  1.1399  0.6130
 8594TIP3   OH249976   1.723   6.100   9.149  0.0176 -0.5850  0.3012
 8594TIP3    H149977   1.667   6.114   9.225  0.6698 -0.0534  0.7054
 8594TIP3    H249978   1.770   6.183   9.139 -0.3502 -0.5099 -0.9343
 8595TIP3   OH249979   4.885   2.204   8.652 -0.1211  0.2787 -0.1594
 8595TIP3    H149980   4.944   2.186   8.578 -0.0840 -0.2163 -0.0065
 8595TIP3    H249981   4.943   2.222   8.725 -0.1583  0.7605 -0.2421
 8596TIP3   OH249982   5.838   3.148   9.197  0.7157 -0.5058 -0.2089
 8596TIP3    H149983   5.927   3.160   9.163  0.9264  0.9123  0.7726
 8596TIP3    H249984   5.836   3.056   9.225  1.6908 -0.6949 -0.6951
 8597TIP3   OH249985   1.547   2.920   9.386 -0.1151  0.2122  0.5866
 8597TIP3    H149986   1.492   2.990   9.350 -1.4155 -1.5735 -1.1183
 8597TIP3    H249987   1.536   2.927   9.481 -0.1551  2.3180  0.4724
 8598TIP3   OH249988   2.290   3.574  11.101  0.4496  0.3239 -0.7178
 8598TIP3    H149989   2.288   3.663  11.066  0.6556  0.1302 -1.2257
 8598TIP3    H249990   2.375   3.539  11.073  1.4887  0.8055  1.5683
 8599TIP3   OH249991   3.231   1.414  10.495  0.4305 -0.7907  0.0232
 8599TIP3    H149992   3.259   1.356  10.566 -0.6144  0.1151  1.2302
 8599TIP3    H249993   3.141   1.439  10.519  0.3881  0.2694 -1.1369
 8600TIP3   OH249994   0.305   1.794   8.807 -0.3603  0.2088 -0.2821
 8600TIP3    H149995   0.394   1.772   8.777  0.7625  1.7721  1.6188
 8600TIP3    H249996   0.255   1.806   8.727  0.8220 -1.7847 -1.4195
 8601TIP3   OH249997   5.541   1.104  10.341  0.3762  0.2272  0.2361
 8601TIP3    H149998   5.587   1.131  10.421 -0.6456  0.6502  0.6979
 8601TIP3    H249999   5.596   1.136  10.270  0.1206  2.0002  0.7754
 8602TIP3   OH250000   1.641   6.786   9.660 -0.3859  0.3959 -0.0896
 8602TIP3    H150001   1.562   6.754   9.616 -1.1312  2.1221 -0.0558
 8602TIP3    H250002   1.615   6.800   9.751  0.1041  0.5037  0.0386
 8603TIP3   OH250003   3.903   4.906  11.504 -0.0396  0.4043 -0.0383
 8603TIP3    H150004   3.892   4.813  11.484 -0.2831  0.8656 -2.3756
 8603TIP3    H250005   3.813   4.938  11.514  0.0260  0.4601  0.3598
 8604TIP3   OH250006   2.245   3.850  10.994  0.4665  0.6137  0.1291
 8604TIP3    H150007   2.171   3.907  11.018  0.6114  0.0456  2.0870
 8604TIP3    H250008   2.218   3.809  10.913 -1.6377  0.0200  1.0600
 8605TIP3   OH250009   5.368   6.690   9.881 -0.0454 -0.1756  0.2156
 8605TIP3    H150010   5.355   6.784   9.891 -0.9755 -0.2194 -0.4211
 8605TIP3    H250011   5.436   6.668   9.944  0.0228  0.8846  0.5281
 8606TIP3   OH250012   0.244   2.464   9.775 -0.6659  0.0310 -0.3229
 8606TIP3    H150013   0.302   2.440   9.703 -0.2303  0.1278 -0.0125
 8606TIP3    H250014   0.291   2.533   9.822 -1.2862  0.5148 -0.3969
 8607TIP3   OH250015   1.337   6.455  11.475  0.1623  0.3482 -0.5810
 8607TIP3    H150016   1.317   6.382  11.416 -0.4744  1.4113 -1.7299
 8607TIP3    H250017   1.298   6.429  11.558  1.3991 -1.3554 -0.4625
 8608TIP3   OH250018   0.551   1.747   8.722 -0.5468 -0.0348 -0.5481
 8608TIP3    H150019   0.581   1.803   8.795 -1.0074 -2.2844  1.5057
 8608TIP3    H250020   0.625   1.744   8.662  1.1379 -0.6708  1.4480
 8609TIP3   OH250021   0.940   2.285  11.887  0.5421  0.6338  0.4014
 8609TIP3    H150022   1.018   2.273  11.940  0.8726 -1.1135 -0.4088
 8609TIP3    H250023   0.883   2.340  11.940  0.7331 -1.2567  2.7354
 8610TIP3   OH250024   3.883   1.498   9.426 -0.6165  0.4861  0.1960
 8610TIP3    H150025   3.886   1.441   9.503  0.5280 -1.0703 -0.9371
 8610TIP3    H250026   3.920   1.445   9.355 -1.3789  1.9565 -1.3828
 8611TIP3   OH250027   2.931   2.752   9.957  0.0967  0.4059  0.3876
 8611TIP3    H150028   2.964   2.663   9.968  0.1529  0.4760  0.8211
 8611TIP3    H250029   3.010   2.806   9.949  0.0517  0.2821 -1.0631
 8612TIP3   OH250030   6.420   5.548   9.899 -0.2292 -0.1634 -0.8714
 8612TIP3    H150031   6.424   5.461   9.941 -0.2375  0.3338  0.1973
 8612TIP3    H250032   6.326   5.567   9.893 -0.2145  0.6106  0.7527
 8613TIP3   OH250033   5.121   0.840   8.953 -0.1039  0.5407 -0.0057
 8613TIP3    H150034   5.091   0.910   8.895 -1.2225  1.0693  1.1397
 8613TIP3    H250035   5.049   0.777   8.953  1.0874 -0.9037 -1.3942
 8614TIP3   OH250036   1.684   2.420  10.875  0.1513 -0.1244 -0.2209
 8614TIP3    H150037   1.615   2.457  10.820 -1.2142  0.0867  1.5324
 8614TIP3    H250038   1.750   2.489  10.882  0.0079  0.0990 -0.9990
 8615TIP3   OH250039   0.656   4.772  11.178  0.5798 -0.0339 -0.0593
 8615TIP3    H150040   0.667   4.677  11.180  1.4746 -0.0483 -2.5174
 8615TIP3    H250041   0.572   4.786  11.135 -0.6085  0.3273  2.2338
 8616TIP3   OH250042   3.642   2.272  11.001  0.4246  0.0612 -0.1233
 8616TIP3    H150043   3.592   2.330  11.058 -0.1617 -0.5904  0.0289
 8616TIP3    H250044   3.733   2.297  11.016  0.3599 -0.7015  1.7754
 8617TIP3   OH250045   2.431   6.404   9.318  0.3088 -0.0643 -0.3019
 8617TIP3    H150046   2.338   6.383   9.329  0.1910 -0.2852 -1.4874
 8617TIP3    H250047   2.441   6.490   9.357 -1.1907  1.5267 -3.0919
 8618TIP3   OH250048   6.599   2.301   8.525 -0.2617 -0.0493 -0.0911
 8618TIP3    H150049   6.663   2.276   8.458  0.0478  0.1943  0.1127
 8618TIP3    H250050   6.537   2.228   8.528 -0.7315  0.2782 -1.2100
 8619TIP3   OH250051   2.003   4.366  10.730  0.6684 -0.2106  0.2726
 8619TIP3    H150052   2.090   4.398  10.703  0.2145  1.1176  0.2794
 8619TIP3    H250053   1.959   4.345  10.648 -0.0687  2.0968  0.0033
 8620TIP3   OH250054   2.653   3.784  11.875 -0.1836 -0.1072  0.3337
 8620TIP3    H150055   2.701   3.745  11.802  0.7159  0.2124  0.7406
 8620TIP3    H250056   2.692   3.745  11.953 -2.2775 -1.7663  0.6488
 8621TIP3   OH250057   5.208   6.052   9.646 -0.3315 -0.1062 -0.3209
 8621TIP3    H150058   5.213   5.988   9.575 -1.6048 -1.5223  0.8078
 8621TIP3    H250059   5.138   6.112   9.619 -1.2359 -0.9950 -0.0243
 8622TIP3   OH250060   3.213   5.380   8.830  0.4730  0.0163 -0.2340
 8622TIP3    H150061   3.301   5.352   8.855  0.7435  0.2235 -0.9392
 8622TIP3    H250062   3.224   5.470   8.799 -0.1675  0.4412  0.7266
 8623TIP3   OH250063   2.625   4.858  11.003  0.0866 -0.4736 -0.0178
 8623TIP3    H150064   2.555   4.909  11.043 -1.1049 -2.0882  0.0148
 8623TIP3    H250065   2.666   4.811  11.077  0.5203 -0.3625 -0.1813
 8624TIP3   OH250066   4.289   3.192   9.503 -0.1543 -0.0665  0.2454
 8624TIP3    H150067   4.299   3.106   9.463  2.1150  0.7842 -1.2769
 8624TIP3    H250068   4.249   3.246   9.435  1.1348  0.7293  0.0697
 8625TIP3   OH250069   1.755   3.173  11.960  0.1261  0.2260 -0.3247
 8625TIP3    H150070   1.788   3.162  11.871  0.2048 -1.2764 -0.1368
 8625TIP3    H250071   1.832   3.198  12.011  0.4594 -0.6551 -0.3751
 8626TIP3   OH250072   4.272   4.990  10.562  0.1109 -0.0727  0.0128
 8626TIP3    H150073   4.234   5.043  10.492 -1.3029 -0.3523  0.5250
 8626TIP3    H250074   4.351   5.037  10.588 -1.2020  1.9422  0.6094
 8627TIP3   OH250075   5.129   5.902  11.536 -0.3528  0.6270  1.0115
 8627TIP3    H150076   5.101   5.934  11.622 -1.9329  0.4178  0.6022
 8627TIP3    H250077   5.063   5.837  11.513  0.5782  0.0066  0.0387
 8628TIP3   OH250078   0.905   6.052   8.861  0.2848 -0.3554 -0.3796
 8628TIP3    H150079   1.000   6.040   8.863  0.3539  0.1466 -0.6609
 8628TIP3    H250080   0.872   5.982   8.918  0.7653 -1.0653 -0.9437
 8629TIP3   OH250081   0.597   4.415  10.456 -0.1850  0.2677  0.3229
 8629TIP3    H150082   0.649   4.344  10.419  1.2208  0.4949  1.7313
 8629TIP3    H250083   0.539   4.372  10.519 -0.7125  0.1708 -0.2220
 8630TIP3   OH250084   5.346   3.954   9.864  0.0858 -0.0178 -0.8244
 8630TIP3    H150085   5.404   3.898   9.916 -0.0682 -1.4271 -2.0983
 8630TIP3    H250086   5.364   3.929   9.774 -0.9662  1.0638 -1.3548
 8631TIP3   OH250087   6.122   1.463   9.722 -0.5528 -0.6640 -0.0662
 8631TIP3    H150088   6.119   1.368   9.729  0.9203 -0.6603  1.0470
 8631TIP3    H250089   6.043   1.493   9.768 -1.0066 -1.3246 -0.3967
 8632TIP3   OH250090   5.959   3.328  10.611  0.2417 -0.4918  0.3272
 8632TIP3    H150091   5.983   3.262  10.676  4.3834  0.2468 -0.1365
 8632TIP3    H250092   5.999   3.297  10.530  0.2414  1.3850 -0.4474
 8633TIP3   OH250093   0.587   3.846   9.574  0.6628 -0.4262  0.0278
 8633TIP3    H150094   0.642   3.768   9.562  0.8954 -0.4658  1.2501
 8633TIP3    H250095   0.625   3.912   9.517  1.0740 -0.9070 -0.2590
 8634TIP3   OH250096   3.466   5.512  10.151  0.7149  0.0809 -0.4949
 8634TIP3    H150097   3.407   5.588  10.149  0.3630 -0.2011 -1.0861
 8634TIP3    H250098   3.540   5.541  10.204 -0.7135 -0.1164  1.7496
 8635TIP3   OH250099   4.135   4.478  11.364 -0.3979  0.6781  0.2901
 8635TIP3    H150100   4.182   4.421  11.426  0.2589  0.5480 -0.3193
 8635TIP3    H250101   4.118   4.422  11.288 -2.4134  0.4335  0.8593
 8636TIP3   OH250102   6.353   5.142   9.479  0.2380  0.2458  0.1155
 8636TIP3    H150103   6.280   5.102   9.431  1.2648  0.0400 -1.3490
 8636TIP3    H250104   6.364   5.228   9.439  0.2610  0.6217  0.9155
 8637TIP3   OH250105   5.878   3.733  11.251  0.0227 -0.3650  0.2369
 8637TIP3    H150106   5.920   3.647  11.247 -0.2329 -0.4430 -1.2852
 8637TIP3    H250107   5.800   3.725  11.197 -1.8270 -0.1023  2.6767
 8638TIP3   OH250108   6.187   3.609   9.781 -0.8116 -0.0787  0.1649
 8638TIP3    H150109   6.181   3.692   9.828  0.9137  0.1652  0.0202
 8638TIP3    H250110   6.272   3.573   9.807 -1.3673 -1.6092 -0.0775
 8639TIP3   OH250111   2.760   4.616   9.863 -0.1123 -0.0577  0.6586
 8639TIP3    H150112   2.744   4.538   9.810  0.8712  0.0431  0.1758
 8639TIP3    H250113   2.855   4.617   9.876 -0.2321  0.4810  1.5614
 8640TIP3   OH250114   2.975   4.795   9.020  0.7265  0.2132  0.3878
 8640TIP3    H150115   3.014   4.717   8.981  1.3590  1.0547 -0.7009
 8640TIP3    H250116   3.022   4.868   8.980 -0.9210  1.2092  0.2009
 8641TIP3   OH250117   1.505   3.367  10.396  0.4610  0.1901 -0.3219
 8641TIP3    H150118   1.536   3.453  10.426 -2.0690  1.0567  0.0586
 8641TIP3    H250119   1.518   3.309  10.472 -1.9126  1.3679  1.1188
 8642TIP3   OH250120   2.820   1.662  11.061  0.2330  0.0912 -0.2559
 8642TIP3    H150121   2.857   1.680  11.147 -0.1369 -1.7077  0.3360
 8642TIP3    H250122   2.835   1.568  11.048 -2.5457 -0.3731 -0.7199
 8643TIP3   OH250123   5.852   6.596   8.871 -0.4567 -0.4120  0.7554
 8643TIP3    H150124   5.893   6.573   8.788 -0.1031 -0.3718  0.9171
 8643TIP3    H250125   5.895   6.539   8.935 -0.4021 -0.1154  0.9820
 8644TIP3   OH250126   5.246   4.476   8.864 -0.4428 -0.4865  0.1650
 8644TIP3    H150127   5.212   4.465   8.953  1.2173  1.5529  1.1539
 8644TIP3    H250128   5.241   4.570   8.848 -1.0209 -0.8592 -2.0688
 8645TIP3   OH250129   2.545   0.994  11.489  0.1532  0.0183  0.2554
 8645TIP3    H150130   2.502   1.079  11.477  1.3262  0.7387  0.9727
 8645TIP3    H250131   2.578   0.973  11.402  1.6970  1.3549  0.4735
 8646TIP3   OH250132   5.861   4.057   8.761  0.1285  0.6918 -0.4526
 8646TIP3    H150133   5.791   4.119   8.784 -1.2505  0.3722 -3.4138
 8646TIP3    H250134   5.833   3.974   8.798 -0.5428  0.7923 -0.7285
 8647TIP3   OH250135   2.339   5.011   8.780 -0.6217  0.2829 -0.2134
 8647TIP3    H150136   2.377   4.947   8.720 -0.2985  1.1714 -0.9957
 8647TIP3    H250137   2.415   5.054   8.820 -0.8107 -1.2895  1.9897
 8648TIP3   OH250138   4.000   1.098   9.167  0.0168 -0.6412  0.8315
 8648TIP3    H150139   4.027   1.045   9.241  0.1585 -1.4992  0.1766
 8648TIP3    H250140   3.908   1.074   9.152  0.2069 -1.0409  0.2623
 8649TIP3   OH250141   1.941   2.586  12.596 -0.0058  0.1653 -0.3754
 8649TIP3    H150142   1.888   2.594  12.516  0.3640  0.1711 -0.6248
 8649TIP3    H250143   1.927   2.668  12.642 -0.4382  0.0516 -0.2997
 8650TIP3   OH250144   2.076   4.304  10.132  0.1446 -0.2273  0.4103
 8650TIP3    H150145   2.110   4.290  10.044  1.5228 -0.5874  0.9792
 8650TIP3    H250146   2.030   4.388  10.127 -0.7445 -0.7612 -0.9034
 8651TIP3   OH250147   3.732   3.860  10.229 -0.1562  0.6126 -0.6575
 8651TIP3    H150148   3.738   3.823  10.318 -3.0122  2.4467  0.4644
 8651TIP3    H250149   3.822   3.883  10.207  0.7753 -0.6883  1.3996
 8652TIP3   OH250150   1.730   4.319   9.229  0.2844  0.0362  0.8829
 8652TIP3    H150151   1.746   4.407   9.262 -1.9377  1.2254 -0.8563
 8652TIP3    H250152   1.662   4.331   9.162  1.5925 -2.6824 -1.1513
 8653TIP3   OH250153   4.538   6.390   9.623 -0.6497  0.2063 -0.1036
 8653TIP3    H150154   4.522   6.484   9.637 -1.0934 -0.0970  1.7136
 8653TIP3    H250155   4.630   6.378   9.647  0.4163  0.6717 -3.4631
 8654TIP3   OH250156   0.445   1.390  10.376 -0.9270 -0.3999  0.3242
 8654TIP3    H150157   0.482   1.424  10.295 -0.8015 -0.5492  0.3194
 8654TIP3    H250158   0.454   1.295  10.368  1.4203 -0.3390  1.6355
 8655TIP3   OH250159   3.349   6.312  10.277  0.5329 -0.2643  0.2080
 8655TIP3    H150160   3.330   6.398  10.238  1.5850 -0.0407  0.1738
 8655TIP3    H250161   3.287   6.253  10.235  0.8064  0.2002 -0.8804
 8656TIP3   OH250162   5.734   4.822   8.559 -0.1416 -0.3025  0.3912
 8656TIP3    H150163   5.664   4.818   8.494 -1.7567 -1.1356  2.1033
 8656TIP3    H250164   5.697   4.873   8.632  1.5014  0.3366  0.8344
 8657TIP3   OH250165   3.182   6.776   8.880 -0.3390  0.2053 -0.1829
 8657TIP3    H150166   3.168   6.842   8.812  1.2034 -0.4579 -1.2017
 8657TIP3    H250167   3.233   6.821   8.948 -2.0876  0.9375  0.6973
 8658TIP3   OH250168   3.736   5.184  10.844 -0.2232 -0.4269  0.0296
 8658TIP3    H150169   3.757   5.180  10.750  0.7420  1.5289  0.1205
 8658TIP3    H250170   3.775   5.105  10.881  0.9489 -0.3208 -0.9394
 8659TIP3   OH250171   3.380   0.455   9.581 -0.4152 -0.2919  0.7110
 8659TIP3    H150172   3.376   0.498   9.495  0.2815 -1.0980  0.2636
 8659TIP3    H250173   3.382   0.527   9.644  0.3339  0.3334 -0.0071
 8660TIP3   OH250174   1.684   2.785  10.683  0.5790  0.1403  0.2679
 8660TIP3    H150175   1.684   2.804  10.589  0.5719 -2.1529 -0.2732
 8660TIP3    H250176   1.653   2.694  10.688 -1.7858  0.9588  2.6875
 8661TIP3   OH250177   5.086   4.179  10.199 -0.3605 -0.1177  0.5863
 8661TIP3    H150178   5.024   4.194  10.127 -0.1221 -0.6239  0.2731
 8661TIP3    H250179   5.117   4.089  10.186  2.1270  0.7984 -0.5969
 8662TIP3   OH250180   0.748   6.619  10.288  0.3980 -0.2982  0.0713
 8662TIP3    H150181   0.817   6.647  10.348  0.6059 -0.2306 -0.2011
 8662TIP3    H250182   0.792   6.562  10.225  0.7603  1.9080 -1.7681
 8663TIP3   OH250183   3.597   4.432  13.028 -0.3236 -0.5139  0.1398
 8663TIP3    H150184   3.539   4.362  12.999  2.3581 -2.3101 -1.1876
 8663TIP3    H250185   3.612   4.485  12.949  1.1546 -1.0727  0.0294
 8664TIP3   OH250186   3.674   2.431  11.769 -0.1107  0.1786 -0.1159
 8664TIP3    H150187   3.732   2.393  11.836  0.5973 -0.1767 -0.9050
 8664TIP3    H250188   3.610   2.362  11.752  0.0162  0.0737 -0.1726
 8665TIP3   OH250189   1.296   3.236  10.273  0.2414  0.0658 -0.1616
 8665TIP3    H150190   1.339   3.161  10.233  0.4756  0.1094  0.0025
 8665TIP3    H250191   1.367   3.298  10.290  0.4583 -0.6891  1.9984
 8666TIP3   OH250192   0.808   6.096   8.542 -0.2296  0.7064  0.3293
 8666TIP3    H150193   0.803   6.126   8.633 -0.2842  1.3678  0.1117
 8666TIP3    H250194   0.857   6.014   8.547 -0.8562  0.3561  1.0419
 8667TIP3   OH250195   5.825   6.074  11.459  0.5749  0.7674 -0.0293
 8667TIP3    H150196   5.785   6.060  11.373 -0.2460  1.2387  0.2649
 8667TIP3    H250197   5.771   6.142  11.500 -0.0094 -0.5313  1.4822
 8668TIP3   OH250198   6.790   2.128  11.509 -0.7606  0.2951 -0.2821
 8668TIP3    H150199   6.809   2.186  11.582 -1.3425  1.5168 -1.0621
 8668TIP3    H250200   6.700   2.147  11.486 -0.7448 -0.4373 -1.0038
 8669TIP3   OH250201   3.704   4.921  11.221 -0.6534 -0.1775  0.0306
 8669TIP3    H150202   3.697   4.826  11.209  1.1070 -0.6690  2.1396
 8669TIP3    H250203   3.616   4.949  11.245 -0.7869 -1.6623  1.4057
 8670TIP3   OH250204   0.686   4.126  10.705 -0.3386  0.1091 -0.0954
 8670TIP3    H150205   0.706   4.128  10.799 -0.3585  0.0826 -0.0904
 8670TIP3    H250206   0.766   4.158  10.663 -0.0065 -0.7343 -0.1246
 8671TIP3   OH250207   1.759   3.890  10.338 -0.4374  0.0840 -0.6002
 8671TIP3    H150208   1.829   3.954  10.322  0.9268 -1.0676  0.5302
 8671TIP3    H250209   1.725   3.914  10.424 -1.3108  0.5043 -1.0526
 8672TIP3   OH250210   1.513   6.716   9.405 -0.8672  0.2523 -0.3881
 8672TIP3    H150211   1.528   6.774   9.331 -2.4652  1.5030  0.1859
 8672TIP3    H250212   1.422   6.687   9.394 -0.9099 -0.0706  0.6937
 8673TIP3   OH250213   1.954   2.261  11.459  0.0706 -0.3874  0.0458
 8673TIP3    H150214   1.911   2.228  11.381  0.9742  0.9183 -1.0454
 8673TIP3    H250215   1.884   2.271  11.523 -0.7065 -1.3280 -0.6330
 8674TIP3   OH250216   3.670   1.121  11.251 -0.0507 -0.4276  0.1777
 8674TIP3    H150217   3.599   1.164  11.203 -0.5724 -0.0297  1.2672
 8674TIP3    H250218   3.714   1.192  11.297  2.3637 -0.3602 -1.9899
 8675TIP3   OH250219   2.526   3.443  11.871  0.1139  0.5174 -0.1398
 8675TIP3    H150220   2.558   3.394  11.794 -0.1103  1.2804 -0.7283
 8675TIP3    H250221   2.511   3.532  11.838  0.4956  0.9802  0.9138
 8676TIP3   OH250222   3.299   5.738  10.131  0.1618  0.0896 -0.1154
 8676TIP3    H150223   3.212   5.775  10.118  0.4844  0.8131 -0.2328
 8676TIP3    H250224   3.324   5.766  10.219  1.2332  1.8911 -0.9430
 8677TIP3   OH250225   0.296   6.680  10.512 -0.1002 -0.5935  0.4024
 8677TIP3    H150226   0.392   6.674  10.513  0.2027  2.1851 -0.9011
 8677TIP3    H250227   0.269   6.626  10.438  0.8072  0.8735 -1.0775
 8678TIP3   OH250228   5.457   5.262  10.076  0.1881 -0.0096 -0.3314
 8678TIP3    H150229   5.475   5.334  10.136  1.3152 -1.2324  0.8800
 8678TIP3    H250230   5.379   5.220  10.113 -0.1520  0.2750 -0.7270
 8679TIP3   OH250231   1.107   0.025  10.234 -0.1992  0.1894  0.1654
 8679TIP3    H150232   1.022   0.065  10.213 -0.7264  0.4841  2.6118
 8679TIP3    H250233   1.162   0.099  10.259  1.4317  0.2275 -3.0389
 8680TIP3   OH250234   3.966   4.540   9.551  0.3809 -0.1018 -0.6060
 8680TIP3    H150235   4.035   4.474   9.553 -0.5476 -1.0928  1.3524
 8680TIP3    H250236   3.908   4.511   9.480 -0.6090 -2.1485  0.9046
 8681TIP3   OH250237   0.125   2.049   9.464  0.0931  0.4743 -0.3740
 8681TIP3    H150238   0.077   2.106   9.525 -0.6805  0.1059 -0.6251
 8681TIP3    H250239   0.058   2.018   9.403  0.7360  0.2736 -0.9808
 8682TIP3   OH250240   5.275   5.372   9.743  0.1977 -0.6440  0.4558
 8682TIP3    H150241   5.192   5.382   9.790 -0.0833 -0.1279 -0.1368
 8682TIP3    H250242   5.335   5.432   9.787  0.1032 -0.6100  0.5387
 8683TIP3   OH250243   1.056   0.844   9.513 -0.2809 -0.1590 -0.0707
 8683TIP3    H150244   1.025   0.827   9.424 -1.8926  2.7615 -0.2066
 8683TIP3    H250245   1.137   0.894   9.501  0.2245 -0.9141  0.1472
 8684TIP3   OH250246   4.790   4.521   8.854  0.9492  0.0084 -0.3719
 8684TIP3    H150247   4.738   4.441   8.843 -1.9688  1.7979 -0.5805
 8684TIP3    H250248   4.769   4.552   8.942  0.8538  1.2741 -0.8110
 8685TIP3   OH250249   2.667   3.289  10.298 -0.5119  0.1118  0.1842
 8685TIP3    H150250   2.735   3.236  10.340 -1.8783 -1.2417  0.7967
 8685TIP3    H250251   2.667   3.262  10.207 -0.2804  0.0509  0.2035
 8686TIP3   OH250252   6.378   6.132  10.466  0.3611 -0.1693 -0.1996
 8686TIP3    H150253   6.402   6.210  10.514  0.8905  0.4840 -1.4816
 8686TIP3    H250254   6.289   6.111  10.496  0.7895  0.0210  1.2577
 8687TIP3   OH250255   1.228   3.893  12.052  0.0515  0.5898  0.3139
 8687TIP3    H150256   1.179   3.974  12.040  0.8791  1.0919  0.2573
 8687TIP3    H250257   1.161   3.827  12.072 -0.7308  1.0601 -0.6667
 8688TIP3   OH250258   2.823   4.256   8.441  0.0360 -0.0829 -0.6285
 8688TIP3    H150259   2.840   4.315   8.367  1.9990 -0.4655 -0.5526
 8688TIP3    H250260   2.863   4.300   8.516 -2.0605  0.3677  0.2945
 8689TIP3   OH250261   2.901   2.125  11.584  0.4669 -0.0005 -0.0804
 8689TIP3    H150262   2.817   2.078  11.589  2.5252 -4.2555 -1.0439
 8689TIP3    H250263   2.930   2.131  11.675  1.1015 -2.8811  0.0185
 8690TIP3   OH250264   3.887   3.161  10.550 -0.7248 -0.0619  0.9285
 8690TIP3    H150265   3.982   3.156  10.564 -0.3397  0.9874 -0.9277
 8690TIP3    H250266   3.858   3.070  10.547  0.3689 -0.4173  0.6875
 8691TIP3   OH250267   3.267   2.410   8.624 -0.5128 -0.0087 -0.2511
 8691TIP3    H150268   3.299   2.438   8.710  0.9660 -2.3901  0.0651
 8691TIP3    H250269   3.341   2.363   8.585 -1.2246  0.8182 -2.7709
 8692TIP3   OH250270   5.315   4.129  10.775  0.3188 -0.1748  0.0415
 8692TIP3    H150271   5.312   4.038  10.805 -0.2368 -0.4920 -0.9052
 8692TIP3    H250272   5.354   4.123  10.687  2.1438  0.7379  0.7429
 8693TIP3   OH250273   3.324   4.796   9.875 -0.5402 -0.6520  0.2731
 8693TIP3    H150274   3.321   4.837   9.788 -1.0470 -1.3903 -0.0649
 8693TIP3    H250275   3.330   4.870   9.936 -0.6864 -0.1045 -0.3624
 8694TIP3   OH250276   2.618   5.976   9.554 -0.4829  0.6892 -0.4355
 8694TIP3    H150277   2.627   6.058   9.604  1.4818  0.2155  0.0871
 8694TIP3    H250278   2.617   6.003   9.463 -0.6452  1.3393 -0.2473
 8695TIP3   OH250279   2.855   6.133   9.860 -0.1098  0.6688  0.7769
 8695TIP3    H150280   2.763   6.108   9.846 -0.2224  0.0774  2.3577
 8695TIP3    H250281   2.904   6.053   9.841  0.2699  1.3572 -1.4776
 8696TIP3   OH250282   5.687   6.015   9.363  0.2332 -0.2508 -0.3656
 8696TIP3    H150283   5.762   5.981   9.412 -0.9849 -1.6276  0.6321
 8696TIP3    H250284   5.610   5.978   9.407 -1.0408  0.8347 -1.5544
 8697TIP3   OH250285   3.784   3.397  10.466  0.2345  0.4317  0.1877
 8697TIP3    H150286   3.814   3.318  10.511  0.0984  1.1552  1.6025
 8697TIP3    H250287   3.696   3.412  10.501 -0.9245 -0.3531 -2.1839
 8698TIP3   OH250288   4.939   1.049  11.358  0.1310 -0.0659 -0.2523
 8698TIP3    H150289   4.942   1.118  11.291  1.3369 -1.7347 -2.0508
 8698TIP3    H250290   4.861   1.069  11.409  0.4312  2.6040 -0.6870
 8699TIP3   OH250291   6.529   3.791   9.348 -0.1698  0.0079 -0.1506
 8699TIP3    H150292   6.560   3.857   9.410  0.2282 -1.6063  1.4579
 8699TIP3    H250293   6.578   3.808   9.268  1.2122  0.5990  0.7868
 8700TIP3   OH250294   5.221   3.256   9.341 -0.1384 -0.5871 -0.0605
 8700TIP3    H150295   5.283   3.199   9.295  0.0113 -0.7361  0.3158
 8700TIP3    H250296   5.272   3.335   9.358 -0.2839 -0.4177 -0.4058
 8701TIP3   OH250297   2.416   3.297   8.585 -0.0130  0.2344  0.1993
 8701TIP3    H150298   2.414   3.303   8.489  0.1087 -0.3071  0.1605
 8701TIP3    H250299   2.330   3.264   8.609  0.0166  0.2048  0.2648
 8702TIP3   OH250300   4.898   1.447  10.918 -0.2008  0.5375 -0.4347
 8702TIP3    H150301   4.825   1.385  10.911  0.5056 -0.3932  0.2818
 8702TIP3    H250302   4.855   1.531  10.938 -1.0891  0.0505 -0.2156
 8703TIP3   OH250303   3.342   6.701  10.177  0.0565 -0.0052 -0.2734
 8703TIP3    H150304   3.296   6.784  10.189 -1.3435 -0.4695 -1.9602
 8703TIP3    H250305   3.273   6.638  10.154  1.3218 -1.1600 -1.0964
 8704TIP3   OH250306   5.180   2.432  11.473 -0.3703 -0.1186  0.2596
 8704TIP3    H150307   5.255   2.480  11.508  0.5685 -1.2593 -0.1263
 8704TIP3    H250308   5.218   2.366  11.416 -1.5609 -1.9205  1.4674
 8705TIP3   OH250309   5.688   0.796  10.995  0.0824 -0.4440 -0.3493
 8705TIP3    H150310   5.734   0.730  10.942  0.2644  0.8968 -1.9566
 8705TIP3    H250311   5.595   0.778  10.980  0.1319 -0.3843 -0.7513
 8706TIP3   OH250312   5.542   2.785   8.694  0.1489 -0.0782 -0.1561
 8706TIP3    H150313   5.603   2.739   8.636 -1.2062 -1.8908 -0.2217
 8706TIP3    H250314   5.497   2.716   8.742 -1.9856  1.1574 -0.2307
 8707TIP3   OH250315   6.457   2.251   8.950  0.4793 -0.2867  0.1824
 8707TIP3    H150316   6.495   2.337   8.965 -0.4512  0.3030 -0.7448
 8707TIP3    H250317   6.531   2.191   8.951  1.1282  0.5137  0.8893
 8708TIP3   OH250318   6.290   3.656   9.383 -0.6928 -0.1318 -0.2373
 8708TIP3    H150319   6.362   3.691   9.330 -0.3974 -0.6269 -0.1715
 8708TIP3    H250320   6.221   3.636   9.321 -0.7495  0.2834 -0.3099
 8709TIP3   OH250321   0.418   0.452   9.092 -0.7655  0.1731 -0.0649
 8709TIP3    H150322   0.343   0.461   9.033 -0.7141 -0.9139 -0.3133
 8709TIP3    H250323   0.494   0.452   9.035 -0.4739  2.1320  0.2451
 8710TIP3   OH250324   0.837   5.805   8.579 -0.5995 -0.0894 -0.2223
 8710TIP3    H150325   0.930   5.821   8.592 -1.0574  1.2592  1.8433
 8710TIP3    H250326   0.830   5.710   8.568  0.9132 -0.3259  0.6517
 8711TIP3   OH250327   4.030   2.331   8.526 -0.4801 -0.5922  0.0552
 8711TIP3    H150328   4.033   2.426   8.521 -1.1185 -0.6143 -1.1619
 8711TIP3    H250329   4.018   2.312   8.619  1.5527  0.4285  0.5781
 8712TIP3   OH250330   1.627   1.194   9.048 -0.1881 -0.3879 -0.5772
 8712TIP3    H150331   1.595   1.282   9.067 -0.5622 -0.2155 -1.9136
 8712TIP3    H250332   1.678   1.203   8.968  0.0686 -1.3219 -0.5333
 8713TIP3   OH250333   5.237   5.166  10.213  0.2886 -0.5816  0.6422
 8713TIP3    H150334   5.179   5.119  10.152  1.6792 -3.3880  1.2961
 8713TIP3    H250335   5.207   5.139  10.300  0.5253  0.5638  1.0873
 8714TIP3   OH250336   5.533   4.709   8.913 -0.4476 -0.1455  0.6498
 8714TIP3    H150337   5.518   4.792   8.867 -0.5731  0.4988  1.8024
 8714TIP3    H250338   5.466   4.708   8.981  0.0558 -0.8315  1.1414
 8715TIP3   OH250339   6.674   0.933  10.642 -0.0381  0.2340 -0.1167
 8715TIP3    H150340   6.725   0.870  10.692 -0.3449 -0.0955 -0.2097
 8715TIP3    H250341   6.683   0.904  10.551 -0.1659  0.3320 -0.1613
 8716TIP3   OH250342   4.657   4.173  11.391 -0.2836 -0.0686  0.2975
 8716TIP3    H150343   4.656   4.147  11.483  3.0788 -0.9580  0.2004
 8716TIP3    H250344   4.627   4.096  11.344  0.4527 -0.4934  0.5209
 8717TIP3   OH250345   1.066   1.980   9.436 -0.1484  0.1729  0.1318
 8717TIP3    H150346   1.130   1.919   9.473  1.6101  1.4537 -0.6520
 8717TIP3    H250347   0.982   1.935   9.446  0.8761 -1.6925  0.9736
 8718TIP3   OH250348   1.976   4.633  10.525  0.2433 -0.3821  0.2636
 8718TIP3    H150349   1.894   4.641  10.476 -0.5028 -1.1816  1.3512
 8718TIP3    H250350   2.043   4.666  10.465 -0.7343 -0.6883 -1.0313
 8719TIP3   OH250351   6.796   1.367   9.801  0.0821 -0.3784 -0.4436
 8719TIP3    H150352   6.859   1.343   9.732  0.0826 -0.1470 -0.5231
 8719TIP3    H250353   6.806   1.299   9.867 -0.2940 -0.9059 -0.9136
 8720TIP3   OH250354   6.445   0.932  10.963  0.0793  0.5131  1.2863
 8720TIP3    H150355   6.447   0.997  10.893  1.0862  0.8317  1.5934
 8720TIP3    H250356   6.425   0.982  11.042  1.6082  0.5839  1.6456
 8721TIP3   OH250357   0.487   5.487  11.732 -0.5283 -0.5753 -0.4851
 8721TIP3    H150358   0.413   5.455  11.680 -1.1470 -0.0750  0.0645
 8721TIP3    H250359   0.453   5.490  11.822  0.8193 -2.4088  0.1537
 8722TIP3   OH250360   0.320   3.766   9.563  0.1518  0.2259 -0.5443
 8722TIP3    H150361   0.270   3.843   9.534  1.1866  0.4421 -1.8644
 8722TIP3    H250362   0.408   3.799   9.577 -0.2567  0.1317  3.0530
 8723TIP3   OH250363   5.965   0.713  10.785 -0.4841  0.0978  0.2862
 8723TIP3    H150364   6.047   0.737  10.828 -0.0018 -0.0874 -0.5251
 8723TIP3    H250365   5.971   0.751  10.697 -0.7692 -0.8798 -0.1711
 8724TIP3   OH250366   2.032   4.008   9.468  0.6517  0.4512  0.2191
 8724TIP3    H150367   2.053   3.988   9.377 -3.3665 -3.5339 -0.1621
 8724TIP3    H250368   1.958   4.068   9.462  0.2193 -0.0127  0.8370
 8725TIP3   OH250369   5.526   5.571  10.889 -0.3267  0.0600  0.0313
 8725TIP3    H150370   5.493   5.647  10.937 -0.7835 -0.8414  1.1761
 8725TIP3    H250371   5.453   5.544  10.833 -0.4162  0.0183  0.1692
 8726TIP3   OH250372   3.992   6.064   8.800 -0.5070  0.2698  0.4800
 8726TIP3    H150373   4.058   6.131   8.785 -0.2540  0.6800  3.0289
 8726TIP3    H250374   4.040   5.981   8.801 -0.6865  0.0951 -1.7475
 8727TIP3   OH250375   6.785   2.143   9.673  0.7647 -0.0227 -0.7944
 8727TIP3    H150376   6.744   2.211   9.727 -0.4956 -1.2100 -0.1812
 8727TIP3    H250377   6.856   2.109   9.728  1.4686  0.8501 -1.1465
 8728TIP3   OH250378   2.438   4.786  10.408  0.1838  0.1585  0.6834
 8728TIP3    H150379   2.462   4.790  10.500  3.3814  0.7232 -0.0669
 8728TIP3    H250380   2.430   4.693  10.389  0.6607 -0.0066  1.2750
 8729TIP3   OH250381   2.558   3.557   9.953  0.6349 -0.0956  0.2636
 8729TIP3    H150382   2.640   3.595   9.983  0.9112 -1.3793  1.2164
 8729TIP3    H250383   2.565   3.464   9.974 -1.1668 -0.1946  0.5965
 8730TIP3   OH250384   3.413   3.954   9.138 -0.8740  0.0573  0.1530
 8730TIP3    H150385   3.425   3.874   9.087 -1.0812  0.4032 -0.4568
 8730TIP3    H250386   3.485   4.011   9.110 -1.3043  0.4533 -0.1582
 8731TIP3   OH250387   1.383   3.964  12.684 -0.1062 -0.0077  0.1726
 8731TIP3    H150388   1.357   4.018  12.609 -0.6095 -0.1546  0.2404
 8731TIP3    H250389   1.470   3.930  12.660  0.5046  1.3194  0.3903
 8732TIP3   OH250390   5.745   3.252   8.286  0.9344  0.0043  0.2608
 8732TIP3    H150391   5.696   3.331   8.262  0.9223  0.4074  1.5223
 8732TIP3    H250392   5.806   3.282   8.353  0.9731 -1.0466  0.7109
 8733TIP3   OH250393   6.064   1.851  10.303  0.3033 -0.1074  0.0566
 8733TIP3    H150394   5.997   1.785  10.318 -0.9173  1.0137 -0.2999
 8733TIP3    H250395   6.110   1.822  10.224  1.1351 -1.5635  1.0377
 8734TIP3   OH250396   5.491   2.286  10.993 -0.1282  0.1041  0.0698
 8734TIP3    H150397   5.513   2.378  11.006 -0.0535  0.0954  0.0037
 8734TIP3    H250398   5.433   2.285  10.917  0.4518  0.0201 -0.3770
 8735TIP3   OH250399   0.744   3.434  10.882 -0.2166  0.5438 -0.3194
 8735TIP3    H150400   0.659   3.479  10.875  0.8199  2.5257 -0.8482
 8735TIP3    H250401   0.802   3.500  10.920  1.7829  0.2071 -2.6280
 8736TIP3   OH250402   1.740   4.571  11.618  0.5243 -0.0166 -0.0549
 8736TIP3    H150403   1.802   4.522  11.564 -0.0521 -0.7804 -0.0405
 8736TIP3    H250404   1.792   4.605  11.691  0.8217 -1.1709  0.2888
 8737TIP3   OH250405   2.680   3.091   9.258  0.2361  0.2970  0.0138
 8737TIP3    H150406   2.593   3.126   9.278  0.9518  0.5325  3.0828
 8737TIP3    H250407   2.681   3.004   9.298  1.7198  0.6776  0.8681
 8738TIP3   OH250408   3.181   1.035   9.139  0.4193 -0.7779 -0.0126
 8738TIP3    H150409   3.207   1.083   9.218  1.1098  0.6514 -1.0749
 8738TIP3    H250410   3.242   1.064   9.072 -3.8682  3.1153 -2.8100
 8739TIP3   OH250411   4.001   3.489  11.196 -0.3370 -0.1623  0.0278
 8739TIP3    H150412   4.079   3.469  11.143  0.3733  1.2121  0.5056
 8739TIP3    H250413   3.941   3.531  11.134  0.3604  1.1398  0.1994
 8740TIP3   OH250414   5.587   3.691  11.183 -0.0016 -0.4314 -0.0656
 8740TIP3    H150415   5.573   3.785  11.191  1.5402 -0.0976 -0.8509
 8740TIP3    H250416   5.505   3.651  11.213 -0.4390  1.1306  0.8813
 8741TIP3   OH250417   1.612   0.992   9.275 -0.5706 -0.1588  0.3489
 8741TIP3    H150418   1.653   1.036   9.201  1.3255  0.5049  1.7005
 8741TIP3    H250419   1.672   0.921   9.297 -0.0298  0.8440  2.4024
 8742TIP3   OH250420   0.990   2.482   8.934 -0.3141  0.0817 -0.5296
 8742TIP3    H150421   1.053   2.554   8.928  0.0606 -0.2492 -0.6215
 8742TIP3    H250422   1.041   2.404   8.912 -0.3501 -0.4108  1.0210
 8743TIP3   OH250423   6.659   0.821  10.395 -0.5886 -0.3639  0.0544
 8743TIP3    H150424   6.682   0.885  10.327  0.1455 -1.1924 -0.5028
 8743TIP3    H250425   6.738   0.768  10.404 -1.6191 -2.0670 -0.4768
 8744TIP3   OH250426   2.387   2.660   8.814 -0.5785  0.1616 -1.0284
 8744TIP3    H150427   2.375   2.744   8.858 -1.1004 -1.0915  1.3820
 8744TIP3    H250428   2.468   2.625   8.850 -0.3640 -0.4062 -2.0073
 8745TIP3   OH250429   5.331   4.978  10.918 -0.6723  0.0850 -0.3585
 8745TIP3    H150430   5.352   4.946  11.006  0.5658  0.1112 -0.6273
 8745TIP3    H250431   5.235   4.973  10.913 -0.8099  0.6024  1.1822
 8746TIP3   OH250432   2.799   3.138  11.899  0.3209  0.1796 -0.1287
 8746TIP3    H150433   2.813   3.232  11.902 -2.8063  0.7833 -0.4913
 8746TIP3    H250434   2.790   3.117  11.806 -2.7236  0.3461  0.0078
 8747TIP3   OH250435   2.912   2.579   8.550  0.6455 -0.6084  0.4563
 8747TIP3    H150436   2.848   2.510   8.533 -0.8032  0.8073  0.0109
 8747TIP3    H250437   2.987   2.556   8.494 -1.3975  0.3190 -2.9728
 8748TIP3   OH250438   2.214   1.334  10.106 -0.1607 -0.0896 -0.1592
 8748TIP3    H150439   2.179   1.415  10.067 -0.0880 -0.4086 -0.9015
 8748TIP3    H250440   2.309   1.348  10.109 -0.1334 -0.2153 -0.4433
 8749TIP3   OH250441   0.907   1.681  10.783  0.3061 -0.1740  0.0416
 8749TIP3    H150442   0.970   1.628  10.832 -0.3933 -0.8318  0.2401
 8749TIP3    H250443   0.853   1.617  10.736 -0.7816  0.3472  0.5580
 8750TIP3   OH250444   6.357   5.836  11.668  0.0877 -0.3199 -0.2799
 8750TIP3    H150445   6.319   5.830  11.755 -1.3245 -1.1446 -0.9291
 8750TIP3    H250446   6.316   5.913  11.628 -1.7212 -1.7646 -1.3280
 8751TIP3   OH250447   6.417   1.163   9.960 -0.1578 -0.9813 -0.3349
 8751TIP3    H150448   6.443   1.219   9.887 -0.1542 -1.6336 -0.8442
 8751TIP3    H250449   6.354   1.102   9.923 -3.1168  1.0351  1.0132
 8752TIP3   OH250450   2.942   1.185   8.823 -1.0084  0.7459 -0.5780
 8752TIP3    H150451   2.848   1.172   8.830 -1.5350  3.6812 -0.8034
 8752TIP3    H250452   2.969   1.207   8.912 -0.8544  1.5222 -0.8107
 8753TIP3   OH250453   6.087   1.537   8.889 -0.2289  0.0993 -0.3976
 8753TIP3    H150454   6.037   1.521   8.969  0.0368 -0.6539 -0.3759
 8753TIP3    H250455   6.070   1.629   8.868  1.6017  1.0708  1.8714
 8754TIP3   OH250456   1.123   5.162   9.674 -0.6208  0.4511 -0.1911
 8754TIP3    H150457   1.118   5.090   9.611 -1.3366 -0.6808  1.0967
 8754TIP3    H250458   1.215   5.189   9.672 -0.6088  0.3813 -1.6257
 8755TIP3   OH250459   3.561   1.579  11.515 -0.5615 -0.2067  0.0213
 8755TIP3    H150460   3.567   1.632  11.436  1.2771 -0.1969  0.1133
 8755TIP3    H250461   3.512   1.633  11.577  0.7816  1.1890 -0.0730
 8756TIP3   OH250462   0.912   5.331   9.527  0.4148  0.5707 -0.6711
 8756TIP3    H150463   0.930   5.351   9.618  0.9992  1.8093 -1.0369
 8756TIP3    H250464   0.908   5.236   9.523 -2.4560  0.4937  1.1759
 8757TIP3   OH250465   4.994   1.160   9.539  0.1169  0.3111 -0.3679
 8757TIP3    H150466   5.000   1.194   9.449 -0.6027  2.1140  0.2212
 8757TIP3    H250467   4.923   1.096   9.536  1.3563 -1.1112 -1.4628
 8758TIP3   OH250468   3.474   1.780   9.309  0.3593 -0.1402 -0.3567
 8758TIP3    H150469   3.441   1.778   9.399 -0.1955  2.2506 -0.4459
 8758TIP3    H250470   3.400   1.813   9.258  0.7434 -1.2531 -1.6964
 8759TIP3   OH250471   3.747   5.782  10.424  0.3273  0.0837 -0.1386
 8759TIP3    H150472   3.704   5.838  10.359  0.0844 -0.8539 -0.8160
 8759TIP3    H250473   3.698   5.700  10.420  1.6058 -0.6949 -0.2455
 8760TIP3   OH250474   4.884   3.770  10.132 -0.5069  0.0034 -0.2305
 8760TIP3    H150475   4.913   3.859  10.111  1.4240 -0.6524 -0.5882
 8760TIP3    H250476   4.790   3.778  10.144 -0.5761  1.8709 -1.4581
 8761TIP3   OH250477   0.392   3.538  10.508  0.4218 -0.7843  0.2178
 8761TIP3    H150478   0.421   3.629  10.520 -1.1535 -0.3520  1.1842
 8761TIP3    H250479   0.392   3.525  10.413  0.5325  0.2909  0.0539
 8762TIP3   OH250480   1.721   5.374  10.581  0.3212  0.0009 -0.0782
 8762TIP3    H150481   1.637   5.333  10.600  0.3742 -0.3501 -0.6031
 8762TIP3    H250482   1.750   5.334  10.499  0.3877  1.0671 -0.5838
 8763TIP3   OH250483   2.078   3.005  12.037  0.4015  0.5574 -0.5169
 8763TIP3    H150484   2.085   3.096  12.007 -2.9037  0.8978 -0.5855
 8763TIP3    H250485   2.078   3.010  12.132  1.4027  0.4609 -0.4983
 8764TIP3   OH250486   1.619   0.956  18.267 -0.6664 -0.9486  0.1004
 8764TIP3    H150487   1.639   1.023  18.333 -1.4953  0.6683 -1.2162
 8764TIP3    H250488   1.704   0.924  18.238 -0.1963  0.3620 -0.0318
 8765TIP3   OH250489   5.287   5.262   9.436 -0.0343  0.3317 -0.2514
 8765TIP3    H150490   5.216   5.275   9.500  2.6197  0.8862  2.8163
 8765TIP3    H250491   5.315   5.172   9.448 -0.9079 -0.2998 -2.3707
 8766TIP3   OH250492   6.362   2.596  10.147  0.2305  0.1489 -0.3134
 8766TIP3    H150493   6.420   2.525  10.120 -0.9409 -1.4365  1.1036
 8766TIP3    H250494   6.282   2.551  10.175 -0.9644  2.1295 -0.4332
 8767TIP3   OH250495   1.640   6.724  10.369 -0.1648 -0.6992 -0.2498
 8767TIP3    H150496   1.624   6.632  10.347 -2.3184 -1.2923  3.0624
 8767TIP3    H250497   1.691   6.721  10.449 -0.9254  0.9437  0.3425
 8768TIP3   OH250498   6.025   5.573  12.087  0.9104  0.2699  0.3709
 8768TIP3    H150499   6.120   5.581  12.087  1.0029 -0.4835 -1.4025
 8768TIP3    H250500   5.999   5.585  11.996 -0.6691  0.1658  0.7736
 8769TIP3   OH250501   5.954   6.651  11.440  0.4461  0.1726  0.0913
 8769TIP3    H150502   6.043   6.628  11.466  0.3446 -0.4787 -0.1227
 8769TIP3    H250503   5.898   6.608  11.504  0.2794  0.4298  0.1177
 8770TIP3   OH250504   3.158   0.965  10.430  0.0482 -0.4720  0.4722
 8770TIP3    H150505   3.244   0.996  10.456 -0.1398  0.7483 -0.2559
 8770TIP3    H250506   3.101   0.987  10.504  0.1992 -0.4440  0.5800
 8771TIP3   OH250507   6.487   3.555  10.139 -0.0638 -0.2624 -0.7129
 8771TIP3    H150508   6.439   3.636  10.157 -0.5665 -0.4510 -1.1738
 8771TIP3    H250509   6.545   3.544  10.214 -0.6225  0.0676 -0.2217
 8772TIP3   OH250510   1.272   6.660  10.451 -0.3747 -0.9708 -0.1250
 8772TIP3    H150511   1.254   6.608  10.529 -0.2614 -1.1570 -0.2225
 8772TIP3    H250512   1.277   6.596  10.380  1.5853 -1.0614  0.0304
 8773TIP3   OH250513   1.135   1.902   9.169 -0.1971 -0.9329  0.1487
 8773TIP3    H150514   1.101   1.934   9.253  0.6681 -1.1219  0.5857
 8773TIP3    H250515   1.130   1.807   9.176  0.7321 -0.9753  0.3640
 8774TIP3   OH250516   0.816   3.760  10.651  0.4069 -0.3395 -0.2200
 8774TIP3    H150517   0.818   3.839  10.596  1.4988 -1.1354 -1.3882
 8774TIP3    H250518   0.787   3.691  10.592 -0.2728 -0.8654  0.7238
 8775TIP3   OH250519   1.146   1.125   8.485  0.2738  0.0077  0.3126
 8775TIP3    H150520   1.231   1.107   8.524  0.8027  0.0651 -0.7793
 8775TIP3    H250521   1.083   1.112   8.556  1.2213  0.2814  1.2089
 8776TIP3   OH250522   5.449   5.102  19.170 -0.0712 -0.1083 -0.0765
 8776TIP3    H150523   5.441   5.014  19.206  0.5195  0.0526  0.4809
 8776TIP3    H250524   5.408   5.097  19.084  1.5122 -1.4082 -0.8213
 8777TIP3   OH250525   6.264   3.619  11.031  0.2500 -0.4158  0.4197
 8777TIP3    H150526   6.348   3.657  11.055 -0.3822  1.2085  0.2183
 8777TIP3    H250527   6.278   3.583  10.943  0.7512 -0.2285  0.4213
 8778TIP3   OH250528   1.150   6.004  12.214 -0.0434  0.6882  0.0114
 8778TIP3    H150529   1.218   5.961  12.162  0.7914 -1.2074  2.4212
 8778TIP3    H250530   1.196   6.075  12.259  0.4870 -0.6061  1.6569
 8779TIP3   OH250531   6.411   5.011  10.029  0.7848  0.0311 -0.4726
 8779TIP3    H150532   6.382   4.933   9.981 -0.6638  0.0738  0.2795
 8779TIP3    H250533   6.419   5.079   9.961  0.4841 -0.3539 -0.8984
 8780TIP3   OH250534   4.527   2.677  10.138  0.0143  0.2942  0.4423
 8780TIP3    H150535   4.438   2.704  10.163  0.0754  0.2963  0.6572
 8780TIP3    H250536   4.547   2.603  10.196  0.4072  0.7144  0.8548
 8781TIP3   OH250537   0.337   2.398  10.113  0.5007  0.3417 -1.0180
 8781TIP3    H150538   0.245   2.392  10.088  0.1018 -0.0450  0.4817
 8781TIP3    H250539   0.336   2.439  10.200  1.6549 -0.9180 -0.3813
 8782TIP3   OH250540   6.222   0.764  10.880  0.2176 -0.1379  0.6520
 8782TIP3    H150541   6.288   0.830  10.900  0.2369  0.7135 -1.8752
 8782TIP3    H250542   6.258   0.683  10.916  0.9651  0.8816  2.3527
 8783TIP3   OH250543   2.910   1.570  10.349 -0.1529  0.0645  0.7293
 8783TIP3    H150544   2.968   1.520  10.292 -1.8036 -1.5921  0.3958
 8783TIP3    H250545   2.935   1.544  10.438  0.6313  0.5767  0.6671
 8784TIP3   OH250546   0.472   6.288  11.684  0.2943  0.0120  0.5372
 8784TIP3    H150547   0.397   6.335  11.720  1.7503  1.6307  1.6490
 8784TIP3    H250548   0.509   6.240  11.759  0.7568 -0.2353  0.1626
 8785TIP3   OH250549   2.338   2.692  10.173 -0.0396 -0.1371 -0.3839
 8785TIP3    H150550   2.262   2.722  10.122  0.5972 -1.9214 -2.5580
 8785TIP3    H250551   2.370   2.616  10.125  0.8510 -1.7896  2.5951
 8786TIP3   OH250552   5.757   2.809  12.011 -0.3531  0.5505 -0.3492
 8786TIP3    H150553   5.775   2.755  11.934 -0.3401 -0.2391  0.1975
 8786TIP3    H250554   5.780   2.898  11.983  1.3047  0.0465 -0.7217
 8787TIP3   OH250555   0.639   1.609  10.427  0.0822  0.1181  0.0901
 8787TIP3    H150556   0.590   1.548  10.482 -0.3327  0.1217 -0.2662
 8787TIP3    H250557   0.591   1.610  10.344  0.5488  0.3106 -0.1838
 8788TIP3   OH250558   1.832   3.278  11.116 -0.0095 -0.4655 -0.3404
 8788TIP3    H150559   1.903   3.338  11.141  0.5376 -1.7436  1.3466
 8788TIP3    H250560   1.752   3.330  11.125  0.4398  0.0062  1.2027
 8789TIP3   OH250561   4.433   5.392   9.661  0.1542  1.0239 -0.5342
 8789TIP3    H150562   4.382   5.317   9.631  0.1273  0.7661  0.1417
 8789TIP3    H250563   4.465   5.433   9.581  0.3721  0.1467 -0.9076
 8790TIP3   OH250564   5.205   4.757   9.368 -0.0107  1.1551  0.4173
 8790TIP3    H150565   5.223   4.667   9.397 -0.1056  0.8687 -0.3809
 8790TIP3    H250566   5.172   4.801   9.446  2.3165  1.1960  1.4797
 8791TIP3   OH250567   5.841   1.617   9.378  0.0192 -0.1995  0.1780
 8791TIP3    H150568   5.791   1.609   9.297  0.0689  0.0933  0.1182
 8791TIP3    H250569   5.783   1.581   9.445 -0.3224  0.2431  0.1283
 8792TIP3   OH250570   3.793   1.901   9.038 -0.6262  0.7809 -0.5142
 8792TIP3    H150571   3.841   1.833   8.991  1.5564 -0.0083  2.5238
 8792TIP3    H250572   3.764   1.858   9.119 -0.1199  3.1351  1.0144
 8793TIP3   OH250573   3.273   0.289  10.608 -0.1057 -0.2946  0.4044
 8793TIP3    H150574   3.260   0.194  10.608 -0.0866 -0.3053 -0.1274
 8793TIP3    H250575   3.310   0.307  10.521  1.3552  0.0081  1.0697
 8794TIP3   OH250576   4.303   0.927  12.138 -0.0333 -0.1472 -0.0363
 8794TIP3    H150577   4.380   0.983  12.130 -0.8196  1.3131  1.8972
 8794TIP3    H250578   4.339   0.841  12.162  1.0321  0.7131  1.7094
 8795TIP3   OH250579   2.106   1.791   8.863 -0.0370  0.5140  0.3377
 8795TIP3    H150580   2.183   1.782   8.806 -1.3138  0.3612 -1.4452
 8795TIP3    H250581   2.128   1.738   8.940  1.7631  0.7483  0.0396
 8796TIP3   OH250582   0.847   5.462   9.884 -0.3297  0.6665  0.0482
 8796TIP3    H150583   0.940   5.484   9.891  0.4076 -1.7734 -1.1613
 8796TIP3    H250584   0.819   5.505   9.803  0.4369 -0.6534 -0.9510
 8797TIP3   OH250585   4.980   0.409   9.933 -0.9292  0.0916 -0.4831
 8797TIP3    H150586   4.962   0.370   9.847 -1.6766 -0.4334 -0.0980
 8797TIP3    H250587   4.929   0.356   9.994 -1.4138  1.2480  0.1364
 8798TIP3   OH250588   6.571   5.333  10.771  0.2631 -0.0481 -0.5317
 8798TIP3    H150589   6.477   5.317  10.782  0.4471 -0.5589  0.4006
 8798TIP3    H250590   6.589   5.309  10.680 -0.1918 -1.6633 -0.2257
 8799TIP3   OH250591   2.591   5.041   8.887  0.3288 -0.0861 -0.5267
 8799TIP3    H150592   2.644   4.981   8.940  0.7560  0.3801 -0.4095
 8799TIP3    H250593   2.647   5.118   8.875 -0.4238  0.5433 -0.1546
 8800TIP3   OH250594   6.070   3.147   9.461  0.4609  0.1536  0.2880
 8800TIP3    H150595   6.158   3.118   9.486  0.3182 -0.7658 -0.2384
 8800TIP3    H250596   6.077   3.164   9.367  0.4812  1.6592  0.5375
 8801TIP3   OH250597   1.002   0.296   9.844  0.6953  0.1572 -0.6106
 8801TIP3    H150598   0.950   0.250   9.777 -2.1929  0.6155  1.1244
 8801TIP3    H250599   1.090   0.260   9.835 -0.5441 -2.9586 -1.8355
 8802TIP3   OH250600   2.538   1.320   8.415 -0.4960 -0.4651  0.0303
 8802TIP3    H150601   2.561   1.340   8.506 -0.0940 -2.9858  0.5761
 8802TIP3    H250602   2.589   1.241   8.395  0.7492  0.9605 -2.9914
 8803TIP3   OH250603   4.820   6.528  10.123 -0.2768  0.3473  0.2078
 8803TIP3    H150604   4.777   6.526  10.208 -0.7371 -1.6159 -0.0256
 8803TIP3    H250605   4.795   6.446  10.081  0.2065  1.1108 -1.7050
 8804TIP3   OH250606   2.825   3.146  10.599  0.0440 -0.2597  0.3520
 8804TIP3    H150607   2.729   3.136  10.596 -0.0782  0.0811  2.0482
 8804TIP3    H250608   2.858   3.073  10.547 -1.1397  0.5541 -1.7138
 8805TIP3   OH250609   1.521   0.910  11.315 -0.4676  0.2215  0.5553
 8805TIP3    H150610   1.462   0.961  11.258  0.7809  0.8463 -0.2258
 8805TIP3    H250611   1.490   0.820  11.307 -0.5339  0.3421 -0.8772
 8806TIP3   OH250612   6.174   5.004  11.443 -0.0710 -0.3338 -0.4152
 8806TIP3    H150613   6.209   5.040  11.525  0.3074  2.2720 -1.6313
 8806TIP3    H250614   6.115   4.934  11.471  0.2830  0.2724  2.0682
 8807TIP3   OH250615   2.750   3.609  11.675 -0.1678  0.1764  0.1312
 8807TIP3    H150616   2.709   3.523  11.667 -0.5243  0.3610 -0.0613
 8807TIP3    H250617   2.744   3.647  11.587  1.7921 -0.3968 -0.3000
 8808TIP3   OH250618   0.319   2.853  10.378 -0.5326  0.2918  0.0497
 8808TIP3    H150619   0.265   2.837  10.455 -0.1783  1.2057  0.4915
 8808TIP3    H250620   0.368   2.932  10.398  2.3154 -1.4230  0.3981
 8809TIP3   OH250621   3.726   4.386  10.488  0.3314 -0.6393 -0.1902
 8809TIP3    H150622   3.672   4.364  10.412  0.3769 -0.2262 -0.3448
 8809TIP3    H250623   3.809   4.416  10.450 -0.2107  1.1630 -0.0591
 8810TIP3   OH250624   0.183   0.151  10.475  0.4834  0.4566  0.2956
 8810TIP3    H150625   0.242   0.076  10.487  0.5932  0.2706 -1.1770
 8810TIP3    H250626   0.156   0.175  10.563  0.4409 -1.3244  0.8094
 8811TIP3   OH250627   3.283   5.411   9.472 -0.4478 -0.0742 -0.5228
 8811TIP3    H150628   3.199   5.438   9.508 -1.8293 -2.1220 -2.0045
 8811TIP3    H250629   3.295   5.465   9.395 -1.3536 -0.9948 -1.3431
 8812TIP3   OH250630   0.740   5.236   8.498 -0.0771 -0.6055  0.5758
 8812TIP3    H150631   0.719   5.165   8.558 -1.8167  0.6535  1.5425
 8812TIP3    H250632   0.836   5.238   8.496  0.0791 -3.5086 -0.2263
 8813TIP3   OH250633   6.758   6.094   8.898  0.1145 -0.2153 -0.0682
 8813TIP3    H150634   6.805   6.138   8.969  0.9482  0.0547 -0.7836
 8813TIP3    H250635   6.798   6.127   8.818  0.0495 -1.4797 -0.6504
 8814TIP3   OH250636   1.977   1.581   8.530 -0.7275 -0.0062  0.5404
 8814TIP3    H150637   1.997   1.647   8.597 -0.2369  0.0329  0.3567
 8814TIP3    H250638   2.062   1.546   8.505 -1.0504 -1.4798  1.4006
 8815TIP3   OH250639   3.418   2.591  10.099 -0.3538  0.3772  0.6054
 8815TIP3    H150640   3.498   2.635  10.068 -0.7214  0.7477  0.1683
 8815TIP3    H250641   3.372   2.566  10.019 -0.8536  0.4898  0.8583
 8816TIP3   OH250642   3.967   4.036   8.608  0.0366 -0.4323 -0.0895
 8816TIP3    H150643   3.937   3.994   8.688 -0.0650  1.1962  0.7857
 8816TIP3    H250644   3.949   3.973   8.538 -1.1771 -1.3149  0.9882
 8817TIP3   OH250645   5.112   0.680  10.661 -0.5588 -0.1347 -0.0574
 8817TIP3    H150646   5.119   0.709  10.569  0.5480 -0.7035 -0.1666
 8817TIP3    H250647   5.199   0.694  10.697 -1.2067  0.9349  1.1950
 8818TIP3   OH250648   1.817   4.851  11.267  0.5549 -0.0532 -0.6106
 8818TIP3    H150649   1.847   4.875  11.354  2.0393  2.8652 -1.7910
 8818TIP3    H250650   1.892   4.808  11.226  0.3210 -0.1660 -0.9276
 8819TIP3   OH250651   0.451   5.843  10.160  0.0949 -0.9309  0.5007
 8819TIP3    H150652   0.517   5.778  10.184  1.0735 -0.3606 -0.5673
 8819TIP3    H250653   0.475   5.921  10.210 -0.6801 -1.1699  1.2661
 8820TIP3   OH250654   4.349   5.135  10.881  0.0459 -0.3517  0.1621
 8820TIP3    H150655   4.411   5.067  10.907 -0.5814 -0.5527  1.1976
 8820TIP3    H250656   4.399   5.216  10.883  0.4581 -0.6091  0.2646
 8821TIP3   OH250657   4.942   3.876   8.908  0.2428 -0.2125  0.0440
 8821TIP3    H150658   4.866   3.883   8.849 -0.2337 -2.8820  0.2163
 8821TIP3    H250659   4.904   3.869   8.995  0.6515 -1.4179  0.1469
 8822TIP3   OH250660   2.188   5.009   9.000 -0.0173 -0.4087 -0.1907
 8822TIP3    H150661   2.179   4.915   9.017 -0.7929 -0.7233 -2.0335
 8822TIP3    H250662   2.242   5.013   8.921 -1.0562  0.6281 -0.8663
 8823TIP3   OH250663   3.236   4.524  10.169 -0.4259 -0.1740 -0.4730
 8823TIP3    H150664   3.158   4.572  10.197  0.1574  0.9190 -0.6858
 8823TIP3    H250665   3.293   4.524  10.246  0.0754  0.5307 -0.8353
 8824TIP3   OH250666   0.940   5.705  10.205  0.2675 -0.7995  0.5014
 8824TIP3    H150667   0.978   5.783  10.246 -1.3021 -0.0452  0.5731
 8824TIP3    H250668   0.973   5.707  10.115  0.0841  0.0680  0.4450
 8825TIP3   OH250669   0.351   5.422   9.664  0.4064 -0.0696  0.4229
 8825TIP3    H150670   0.427   5.401   9.609  0.9891 -1.3640  1.6417
 8825TIP3    H250671   0.286   5.458   9.604  1.9863  1.0982 -0.6588
 8826TIP3   OH250672   2.668   2.577   9.717  0.2940  0.2479  0.0851
 8826TIP3    H150673   2.749   2.528   9.730  0.6276  0.9111  0.6005
 8826TIP3    H250674   2.644   2.561   9.626 -0.3695 -1.9724  0.6018
 8827TIP3   OH250675   3.352   4.127  11.703  0.3176  0.2310  0.2836
 8827TIP3    H150676   3.283   4.083  11.654  0.2624  0.4609  0.1521
 8827TIP3    H250677   3.318   4.134  11.792  0.1089  0.4693  0.1875
 8828TIP3   OH250678   6.377   5.161   9.779 -0.0887 -0.0797 -0.7129
 8828TIP3    H150679   6.289   5.168   9.817  0.0601  2.9421 -0.6490
 8828TIP3    H250680   6.362   5.135   9.689 -0.8088 -2.2160 -0.0326
 8829TIP3   OH250681   0.390   4.192   9.638 -0.2843 -0.0791 -0.0131
 8829TIP3    H150682   0.346   4.253   9.697 -0.9147  0.2569 -0.8085
 8829TIP3    H250683   0.483   4.212   9.648 -0.4589  0.7457  0.0244
 8830TIP3   OH250684   3.076   5.295  11.633 -0.6511 -0.4743  0.5737
 8830TIP3    H150685   3.111   5.207  11.624 -0.6924 -0.4700  0.3430
 8830TIP3    H250686   2.981   5.283  11.636 -0.6669 -0.4233  0.3232
 8831TIP3   OH250687   2.988   4.359   8.654  0.7116  0.7393 -0.6570
 8831TIP3    H150688   2.941   4.361   8.738 -0.3033 -0.8324 -1.1475
 8831TIP3    H250689   3.023   4.448   8.644 -1.1444  1.6229  0.2996
 8832TIP3   OH250690   4.829   3.206  12.225 -0.1130 -0.0905  0.0216
 8832TIP3    H150691   4.826   3.110  12.223  0.4167 -0.1307  0.8456
 8832TIP3    H250692   4.777   3.233  12.149 -2.4645 -0.9872  1.2248
 8833TIP3   OH250693   3.301   6.257   9.966 -0.2306  0.0424 -0.0481
 8833TIP3    H150694   3.263   6.207  10.038  0.7196  0.1481  0.5460
 8833TIP3    H250695   3.242   6.331   9.953  0.4380  0.9430  1.7476
 8834TIP3   OH250696   0.605   4.860   9.793  0.7880 -0.2812 -0.1599
 8834TIP3    H150697   0.555   4.820   9.721  1.5600  1.8199 -2.0034
 8834TIP3    H250698   0.682   4.805   9.803 -0.0866 -1.4835  0.1779
 8835TIP3   OH250699   5.669   6.732  10.923 -0.2589  0.6657  0.1200
 8835TIP3    H150700   5.619   6.802  10.882  1.0079  0.6203 -1.6046
 8835TIP3    H250701   5.759   6.745  10.892 -0.0399 -1.8658 -0.4969
 8836TIP3   OH250702   3.303   4.281  12.413  0.3747  0.0244 -0.1949
 8836TIP3    H150703   3.238   4.257  12.480  0.0009  3.2560  0.7673
 8836TIP3    H250704   3.387   4.253  12.450  0.0000  0.2584  0.8843
 8837TIP3   OH250705   4.305   2.721  10.284  0.1854  0.4778  0.1394
 8837TIP3    H150706   4.244   2.648  10.275  0.1550  0.6298 -1.1739
 8837TIP3    H250707   4.250   2.799  10.282  0.3384  0.5829 -0.0061
 8838TIP3   OH250708   5.741   5.830  10.956 -0.4818  0.0059  0.3038
 8838TIP3    H150709   5.672   5.832  11.022  0.5107  2.2788  1.3940
 8838TIP3    H250710   5.823   5.836  11.006  0.5222 -1.9121 -0.9817
 8839TIP3   OH250711   2.066   4.865   9.261  0.1175 -0.0491 -0.2124
 8839TIP3    H150712   2.000   4.811   9.304 -0.3833  0.0251 -0.8821
 8839TIP3    H250713   2.106   4.806   9.197 -2.7133  1.1674 -3.3634
 8840TIP3   OH250714   1.773   2.174  10.367  0.0945  0.2550  0.1872
 8840TIP3    H150715   1.744   2.256  10.329  0.7382  1.0623  1.3876
 8840TIP3    H250716   1.789   2.194  10.459 -2.2407 -1.8181  1.1794
 8841TIP3   OH250717   5.227   3.540   8.998  0.1073  0.0432 -0.1724
 8841TIP3    H150718   5.257   3.610   9.056 -0.5864  1.2851 -1.2718
 8841TIP3    H250719   5.132   3.535   9.014  0.3899 -1.9714  1.2640
 8842TIP3   OH250720   4.375   3.635   8.466 -0.1053  0.6079 -0.5790
 8842TIP3    H150721   4.381   3.730   8.456  0.2546  0.7433  0.7181
 8842TIP3    H250722   4.463   3.608   8.492  0.1913 -0.3031 -2.3844
 8843TIP3   OH250723   1.976   0.529   8.553  0.7616 -0.9876  0.0419
 8843TIP3    H150724   1.939   0.597   8.611 -0.1775 -0.7951 -0.7508
 8843TIP3    H250725   1.915   0.456   8.561  0.3495 -0.7867 -1.0345
 8844TIP3   OH250726   2.441   4.961  11.162 -0.2909  0.2024 -0.5224
 8844TIP3    H150727   2.357   4.989  11.128 -0.0661  1.0449 -0.4058
 8844TIP3    H250728   2.438   4.981  11.256  0.1941  0.6532 -0.5955
 8845TIP3   OH250729   5.237   3.839   8.527 -0.1660 -0.6467  0.2405
 8845TIP3    H150730   5.298   3.828   8.454 -2.8815 -0.1220 -2.3107
 8845TIP3    H250731   5.253   3.928   8.558  0.6586 -0.6726 -0.0909
 8846TIP3   OH250732   1.099   5.276  11.053 -0.5075 -0.2686  0.3236
 8846TIP3    H150733   1.146   5.225  10.988 -2.1875 -1.2129 -0.2315
 8846TIP3    H250734   1.088   5.217  11.127  0.2784  0.3736  0.9671
 8847TIP3   OH250735   4.908   2.530  12.267 -0.2343 -0.0013  0.1830
 8847TIP3    H150736   4.996   2.549  12.235  0.1943  0.1876  1.4249
 8847TIP3    H250737   4.851   2.580  12.208  0.6305  1.7316  0.7271
 8848TIP3   OH250738   6.311   5.209  10.760 -0.0182  0.2246  0.5266
 8848TIP3    H150739   6.277   5.221  10.671  0.3033 -2.4829 -0.0327
 8848TIP3    H250740   6.234   5.185  10.812  0.2457 -1.1531  0.3035
 8849TIP3   OH250741   3.113   6.497   9.869 -0.4429 -0.0338  0.2966
 8849TIP3    H150742   3.037   6.460   9.824 -1.6864  0.4346  1.9064
 8849TIP3    H250743   3.162   6.542   9.800 -1.1162 -1.1272 -0.9357
 8850TIP3   OH250744   0.769   3.005   9.122 -0.0932  0.5389  0.2401
 8850TIP3    H150745   0.715   2.926   9.112  1.1242 -0.0308 -2.7527
 8850TIP3    H250746   0.842   2.976   9.177 -1.1948  0.5017  1.7649
 8851TIP3   OH250747   3.481   0.093  11.898 -0.3448 -0.0356 -0.5526
 8851TIP3    H150748   3.546   0.027  11.873  0.0808 -0.1851  0.9038
 8851TIP3    H250749   3.473   0.085  11.993  0.2252  2.4476 -0.2238
 8852TIP3   OH250750   1.370   0.940   9.410  0.1137  0.0248 -0.5243
 8852TIP3    H150751   1.391   1.005   9.477  0.1139  0.9506 -1.4072
 8852TIP3    H250752   1.453   0.928   9.363  0.5047 -1.6833  0.4943
 8853TIP3   OH250753   3.287   4.718   8.876 -0.0735  0.0474  0.0444
 8853TIP3    H150754   3.346   4.701   8.802  0.4428  0.3361  0.3862
 8853TIP3    H250755   3.317   4.659   8.945 -0.4429 -0.0964  0.0850
 8854TIP3   OH250756   3.959   3.723   8.697 -0.6363  0.4180 -0.1200
 8854TIP3    H150757   4.006   3.716   8.614  0.1209  1.0322  0.2364
 8854TIP3    H250758   3.920   3.637   8.710  1.0458 -0.3748 -0.0742
 8855TIP3   OH250759   4.902   4.044   9.970 -0.8701 -1.0471 -0.5304
 8855TIP3    H150760   4.987   4.078   9.942 -1.6395  1.5383  0.0918
 8855TIP3    H250761   4.865   4.005   9.891 -0.1662  0.0622 -1.4279
 8856TIP3   OH250762   3.196   2.214  11.719  0.1213 -0.4020 -0.5893
 8856TIP3    H150763   3.188   2.148  11.650  0.0513 -0.8936 -0.1244
 8856TIP3    H250764   3.110   2.216  11.760 -0.5329  1.5172 -1.9233
 8857TIP3   OH250765   3.622   4.125  11.808 -0.3427 -0.0452  0.1280
 8857TIP3    H150766   3.672   4.204  11.827 -1.1176  0.9594 -1.7502
 8857TIP3    H250767   3.537   4.157  11.778 -1.6550 -1.6714  1.8397
 8858TIP3   OH250768   4.149   5.920  11.352  0.1777  0.1994  0.2145
 8858TIP3    H150769   4.213   5.869  11.401  1.9305  1.9503 -0.0986
 8858TIP3    H250770   4.150   5.882  11.264  0.1785 -0.2891  0.4230
 8859TIP3   OH250771   1.169   3.603  10.178 -0.5707 -0.3822  0.1485
 8859TIP3    H150772   1.127   3.674  10.130  0.2678 -0.1294 -0.2349
 8859TIP3    H250773   1.260   3.631  10.187 -0.5632 -0.7329  1.3149
 8860TIP3   OH250774   0.618   2.035  11.571 -0.1085  0.4868 -0.1519
 8860TIP3    H150775   0.678   2.042  11.645  0.3622  2.1255 -0.6368
 8860TIP3    H250776   0.618   1.942  11.547 -0.0138 -0.0106  1.6705
 8861TIP3   OH250777   4.127   2.800   8.771  0.2575 -0.1982  0.2342
 8861TIP3    H150778   4.092   2.788   8.860  0.1031  0.0669  0.2114
 8861TIP3    H250779   4.113   2.893   8.753 -2.5815 -0.8085 -1.2534
 8862TIP3   OH250780   4.964   0.859  12.001  0.2425  0.4270 -0.6981
 8862TIP3    H150781   4.888   0.833  11.949 -1.3362 -0.8201  2.0462
 8862TIP3    H250782   4.932   0.931  12.056  0.0912 -1.8257  2.4128
 8863TIP3   OH250783   1.557   2.192  11.354  0.2536 -0.4135  0.2711
 8863TIP3    H150784   1.592   2.236  11.276  0.6039  0.1288  0.7272
 8863TIP3    H250785   1.495   2.128  11.319  2.8563 -2.6041 -0.6912
 8864TIP3   OH250786   2.264   6.143  10.710  0.2211  0.0261 -0.1652
 8864TIP3    H150787   2.271   6.232  10.675  1.7207 -0.1647 -0.4260
 8864TIP3    H250788   2.354   6.108  10.706 -0.6508 -2.2692 -2.1278
 8865TIP3   OH250789   4.335   4.143  11.285  0.1310  0.2462 -0.0272
 8865TIP3    H150790   4.319   4.218  11.343 -2.6289  0.4546 -0.9137
 8865TIP3    H250791   4.356   4.071  11.344 -1.0211  0.8255  1.1387
 8866TIP3   OH250792   6.587   3.475   8.743 -0.4071  0.0458 -0.0338
 8866TIP3    H150793   6.515   3.438   8.692  0.2467 -0.5627 -0.5279
 8866TIP3    H250794   6.570   3.447   8.833 -1.2620  0.6585  0.0194
 8867TIP3   OH250795   3.294   2.783  10.805 -0.2788 -0.0317 -0.5938
 8867TIP3    H150796   3.217   2.744  10.763 -0.1528 -0.5181 -0.3796
 8867TIP3    H250797   3.360   2.713  10.804 -0.5967 -0.3986  1.3086
 8868TIP3   OH250798   5.258   2.072  11.442  0.4309 -0.0445 -0.7825
 8868TIP3    H150799   5.327   2.041  11.383 -0.5151 -0.9590 -1.4373
 8868TIP3    H250800   5.177   2.061  11.393 -0.2877  0.1487  0.3159
 8869TIP3   OH250801   3.226   5.839  11.086 -0.0747  0.3605  0.0025
 8869TIP3    H150802   3.169   5.914  11.106 -0.0998  0.3668 -0.0928
 8869TIP3    H250803   3.281   5.830  11.164 -1.4834 -0.8468  0.9074
 8870TIP3   OH250804   2.635   3.619   9.364  0.5499  0.2141  0.0898
 8870TIP3    H150805   2.634   3.709   9.332  2.1549  0.7778  1.4305
 8870TIP3    H250806   2.644   3.565   9.286  0.9963  1.3134 -0.6461
 8871TIP3   OH250807   2.250   1.813  10.614 -0.0188 -0.3555  0.3965
 8871TIP3    H150808   2.299   1.809  10.696  1.1304 -0.3142 -0.2611
 8871TIP3    H250809   2.159   1.802  10.639  0.2466  0.3778  1.7523
 8872TIP3   OH250810   0.803   4.144   8.605 -0.0629  0.2421 -0.5084
 8872TIP3    H150811   0.756   4.192   8.673  0.5074 -1.6044  1.2636
 8872TIP3    H250812   0.760   4.059   8.601  1.9469 -0.8495 -0.1078
 8873TIP3   OH250813   1.433   1.682   9.167 -0.1973 -0.2863  0.3903
 8873TIP3    H150814   1.393   1.660   9.083 -0.7907 -1.5618  0.9831
 8873TIP3    H250815   1.428   1.777   9.171  0.9680 -0.0922 -1.5534
 8874TIP3   OH250816   4.265   6.381  10.404  0.0019  0.4710 -0.1372
 8874TIP3    H150817   4.225   6.329  10.336  0.5119  0.0610 -0.1322
 8874TIP3    H250818   4.307   6.454  10.357  0.8525 -0.1292 -0.3267
 8875TIP3   OH250819   2.336   2.692  10.753 -0.1454  0.4661 -0.0364
 8875TIP3    H150820   2.278   2.617  10.741  0.3363  0.0073  0.4406
 8875TIP3    H250821   2.281   2.769  10.737 -0.7590  0.0251 -0.0474
 8876TIP3   OH250822   1.979   2.455  10.183  0.3290  0.2431  0.6054
 8876TIP3    H150823   1.896   2.407  10.185 -0.0585  0.9123  0.7731
 8876TIP3    H250824   2.038   2.397  10.136 -0.0437 -0.5405  1.0724
 8877TIP3   OH250825   1.808   2.589   9.612 -0.3577 -0.2362 -0.4640
 8877TIP3    H150826   1.875   2.580   9.680 -0.1006 -0.5486 -0.7534
 8877TIP3    H250827   1.848   2.551   9.534 -0.6765  0.0598 -0.7738
 8878TIP3   OH250828   3.380   1.918  11.158  0.2586  0.1322 -0.0753
 8878TIP3    H150829   3.411   1.972  11.231  1.0167 -1.3641  0.7686
 8878TIP3    H250830   3.399   1.970  11.080  1.6080  0.7924  0.6507
 8879TIP3   OH250831   3.611   2.493   9.428 -0.3646  0.1170 -0.2139
 8879TIP3    H150832   3.615   2.425   9.495 -3.6569 -0.6615 -0.6057
 8879TIP3    H250833   3.680   2.470   9.366 -1.0051 -2.6033 -0.0332
 8880TIP3   OH250834   3.699   3.343   9.405 -0.3828 -0.0468  0.0960
 8880TIP3    H150835   3.750   3.363   9.326  0.6329 -0.3402  0.6571
 8880TIP3    H250836   3.648   3.423   9.421 -0.8166 -0.0819 -1.0000
 8881TIP3   OH250837   1.371   4.862   8.777 -0.5694  0.1817 -0.1156
 8881TIP3    H150838   1.283   4.894   8.799  0.0704  1.2984  1.0435
 8881TIP3    H250839   1.408   4.930   8.721 -0.2295  0.0468 -0.0616
 8882TIP3   OH250840   3.585   1.307   9.349  0.3045  0.2232 -0.2711
 8882TIP3    H150841   3.510   1.353   9.310  0.3531 -0.1402 -0.7946
 8882TIP3    H250842   3.653   1.311   9.282  0.4831 -0.1541 -0.1114
 8883TIP3   OH250843   0.136   6.705  11.474 -0.0385  0.4603  0.5204
 8883TIP3    H150844   0.111   6.777  11.532 -0.4994  2.4014 -1.9589
 8883TIP3    H250845   0.095   6.725  11.390  1.3148 -1.7686 -0.7834
 8884TIP3   OH250846   3.745   5.930   8.832 -0.1286  0.2374 -0.0644
 8884TIP3    H150847   3.812   5.996   8.813 -0.8222  0.7378 -0.8580
 8884TIP3    H250848   3.776   5.851   8.788  0.2789  0.2736  0.1547
 8885TIP3   OH250849   5.877   3.004   9.613  0.1545 -0.2082 -0.2151
 8885TIP3    H150850   5.842   3.040   9.694  1.1348 -1.3089  0.7261
 8885TIP3    H250851   5.905   3.081   9.563 -1.7258  0.5612 -0.1531
 8886TIP3   OH250852   1.934   3.121  10.263 -0.8504  0.5211 -0.2004
 8886TIP3    H150853   1.993   3.193  10.285  1.3849 -1.8429  2.3565
 8886TIP3    H250854   1.877   3.112  10.339 -0.3346 -1.0475  0.0409
 8887TIP3   OH250855   0.050   5.249  11.205 -0.3875  0.0308  0.5229
 8887TIP3    H150856  -0.030   5.241  11.257 -0.8749 -0.3462 -0.2767
 8887TIP3    H250857   0.028   5.312  11.136 -0.0363 -0.1842  0.2091
 8888TIP3   OH250858   0.673   0.789  10.398  0.1683  0.1376 -0.1603
 8888TIP3    H150859   0.616   0.715  10.376  1.4552 -0.9349  0.0164
 8888TIP3    H250860   0.699   0.774  10.489  0.3853  0.8524 -0.0970
 8889TIP3   OH250861   0.123   5.484   9.531 -0.2490 -0.1051  0.3851
 8889TIP3    H150862   0.127   5.403   9.481  4.0463 -0.3435  0.7493
 8889TIP3    H250863   0.092   5.549   9.468  0.4118 -1.2663 -1.1984
 8890TIP3   OH250864   3.407   5.077  10.680 -0.1319 -0.9074 -0.1447
 8890TIP3    H150865   3.419   5.134  10.756 -0.4142  1.0171 -1.4739
 8890TIP3    H250866   3.483   5.019  10.681  0.0621 -0.6625  1.3709
 8891TIP3   OH250867   1.587   0.660   9.184 -0.0798 -0.5909  0.2180
 8891TIP3    H150868   1.610   0.598   9.115 -0.5826 -2.5811  1.7717
 8891TIP3    H250869   1.493   0.648   9.198 -0.2606  0.7662  0.3505
 8892TIP3   OH250870   6.419   4.714  11.637  1.1494  0.2580  0.0225
 8892TIP3    H150871   6.449   4.625  11.654  0.8561  0.1321 -0.1191
 8892TIP3    H250872   6.359   4.706  11.564  1.8330  0.7032 -0.6101
 8893TIP3   OH250873   1.897   1.944   9.269  0.4409  0.4782 -0.3004
 8893TIP3    H150874   1.878   1.925   9.361 -0.2833 -0.1585 -0.5688
 8893TIP3    H250875   1.857   1.871   9.221  1.1599  0.5922 -1.0928
 8894TIP3   OH250876   0.655   1.613  10.982  0.7025  0.2212  0.4944
 8894TIP3    H150877   0.749   1.617  11.000  0.5347  0.3931  1.3918
 8894TIP3    H250878   0.624   1.542  11.039  0.1139  0.9059  1.0414
 8895TIP3   OH250879   3.884   4.340   9.813  0.6171 -0.0637 -0.2109
 8895TIP3    H150880   3.806   4.285   9.812  0.1741  0.3436  2.6744
 8895TIP3    H250881   3.888   4.379   9.725 -1.9126 -0.7785 -0.7060
 8896TIP3   OH250882   2.798   1.023  12.119  0.0742  0.0208 -0.0800
 8896TIP3    H150883   2.892   1.032  12.133  0.0517  2.1200 -0.7934
 8896TIP3    H250884   2.791   0.972  12.038  0.6619  0.6225 -0.5295
 8897TIP3   OH250885   0.374   6.674  10.771  0.3274 -0.2888  0.0933
 8897TIP3    H150886   0.330   6.668  10.686  0.1224 -0.4265  0.2087
 8897TIP3    H250887   0.308   6.710  10.830 -0.1023 -1.8498  0.5972
 8898TIP3   OH250888   3.874   6.001   9.816  0.1311 -0.0351  0.4897
 8898TIP3    H150889   3.953   5.949   9.832  1.1014  1.4580  0.7683
 8898TIP3    H250890   3.868   6.006   9.721  0.9918  0.7046  0.4605
 8899TIP3   OH250891   3.408   4.943  11.034 -0.2654 -0.4917 -0.1962
 8899TIP3    H150892   3.318   4.950  11.002 -0.7444 -0.1960  1.1471
 8899TIP3    H250893   3.436   4.856  11.008 -0.7939 -0.4545 -0.9476
 8900TIP3   OH250894   1.345   2.928   8.941 -0.0260  0.0985  0.0818
 8900TIP3    H150895   1.299   3.003   8.978  1.1709  0.9254 -0.0388
 8900TIP3    H250896   1.417   2.967   8.890  1.5006 -1.1413  1.1883
 8901TIP3   OH250897   4.909   6.034  11.708 -0.3178 -0.5915 -0.4477
 8901TIP3    H150898   4.829   6.078  11.681  0.7872  1.2914 -0.8702
 8901TIP3    H250899   4.889   5.995  11.793 -1.2429  1.2105  0.2070
 8902TIP3   OH250900   2.502   3.497   8.841  0.1962  0.0282  0.3629
 8902TIP3    H150901   2.482   3.570   8.782 -0.2333 -0.3191  0.0733
 8902TIP3    H250902   2.583   3.460   8.807  0.3419  0.2809  0.4284
 8903TIP3   OH250903   3.367   0.755   9.670 -0.1040  0.4270 -0.5254
 8903TIP3    H150904   3.368   0.812   9.747  0.2750  0.1146 -0.2963
 8903TIP3    H250905   3.316   0.804   9.605  2.0150  2.0265 -1.1074
 8904TIP3   OH250906   5.185   0.919  11.304  0.1292 -0.0107 -0.0619
 8904TIP3    H150907   5.209   1.010  11.291 -1.0323  0.1532 -1.3648
 8904TIP3    H250908   5.090   0.920  11.316 -0.2075 -1.1569 -2.0458
 8905TIP3   OH250909   3.066   3.746   9.373  0.2211  0.4106 -0.4429
 8905TIP3    H150910   3.018   3.791   9.443 -0.9826 -0.6994 -0.5064
 8905TIP3    H250911   3.092   3.816   9.313  0.5727  1.2864  0.7042
 8906TIP3   OH250912   5.621   3.078   8.796  0.4117  0.3261  0.2498
 8906TIP3    H150913   5.625   3.093   8.701 -1.0858  1.5148  0.3427
 8906TIP3    H250914   5.535   3.038   8.810  0.5901  0.2326  1.1257
 8907TIP3   OH250915   0.890   4.442  11.747 -0.1297  0.7507  0.2879
 8907TIP3    H150916   0.818   4.434  11.810  0.5584  2.5655  1.3531
 8907TIP3    H250917   0.966   4.466  11.800  0.9999  0.1170 -0.9863
 8908TIP3   OH250918   1.538   2.614   8.508  0.2075  0.2632 -0.0413
 8908TIP3    H150919   1.470   2.547   8.504 -1.0141  1.4000  0.9813
 8908TIP3    H250920   1.620   2.564   8.502 -0.6603 -1.2466 -0.0160
 8909TIP3   OH250921   0.724   2.432   9.716 -0.0062  0.0731  0.4790
 8909TIP3    H150922   0.724   2.356   9.659 -0.9003  0.1889  0.3108
 8909TIP3    H250923   0.710   2.506   9.658  1.3613  0.4296  0.5781
 8910TIP3   OH250924   2.198   2.940  10.707  0.2588 -0.1152  0.0879
 8910TIP3    H150925   2.197   3.004  10.635  0.8916  0.4184  0.5464
 8910TIP3    H250926   2.279   2.958  10.755  0.0825 -0.7841  0.6597
 8911TIP3   OH250927   2.315   1.973  11.156 -0.7033 -0.1102 -0.2633
 8911TIP3    H150928   2.252   1.904  11.138 -0.5466 -0.0952 -0.8834
 8911TIP3    H250929   2.331   2.014  11.071  0.1745 -0.1379 -0.1192
 8912TIP3   OH250930   5.896   6.609  10.380 -0.2520 -0.3527  0.3196
 8912TIP3    H150931   5.951   6.629  10.304 -0.3145 -1.4868 -0.0529
 8912TIP3    H250932   5.931   6.526  10.413  0.1404  0.4159  1.8971
 8913TIP3   OH250933   0.894   6.367   9.845  0.1419  0.1679  0.0666
 8913TIP3    H150934   0.979   6.410   9.831  0.2936  0.2154  1.0551
 8913TIP3    H250935   0.892   6.296   9.781 -0.6699  2.3697 -2.5496
 8914TIP3   OH250936   6.570   0.349   9.900 -0.3767 -0.5302  0.8838
 8914TIP3    H150937   6.509   0.363   9.827  1.0738 -0.2277 -0.3270
 8914TIP3    H250938   6.516   0.310   9.969 -1.6681 -1.4611 -0.5850
 8915TIP3   OH250939   4.681   1.026   9.776 -0.0718  0.0124 -0.0141
 8915TIP3    H150940   4.644   1.107   9.740 -0.8721 -0.1046  0.5186
 8915TIP3    H250941   4.772   1.026   9.746  0.2178  1.5801  0.7746
 8916TIP3   OH250942   6.276   5.030   8.748  0.0860  0.0377  0.3167
 8916TIP3    H150943   6.255   5.110   8.700 -1.0078 -0.3982  0.0348
 8916TIP3    H250944   6.197   4.976   8.740  0.1479 -0.3523  1.9830
 8917TIP3   OH250945   3.096   0.706  10.432  0.2557  0.3781  0.0523
 8917TIP3    H150946   3.112   0.800  10.429 -1.0578  0.6183  0.1274
 8917TIP3    H250947   3.057   0.685  10.347 -1.5921  0.3378  0.8636
 8918TIP3   OH250948   6.647   4.890  11.344  0.5018  0.1049 -0.0401
 8918TIP3    H150949   6.561   4.864  11.312  1.3820 -0.2708 -2.2677
 8918TIP3    H250950   6.676   4.816  11.397  0.3885 -0.7880 -1.1895
 8919TIP3   OH250951   4.601   3.157  10.375  0.3418  0.1596  0.7142
 8919TIP3    H150952   4.597   3.170  10.470  1.0816 -2.1905  1.1586
 8919TIP3    H250953   4.656   3.079  10.365 -3.0644 -2.2362 -1.3658
 8920TIP3   OH250954   2.025   6.468  12.359 -0.6102  0.2031 -0.0371
 8920TIP3    H150955   2.115   6.500  12.373  0.0124 -1.7851  0.9201
 8920TIP3    H250956   2.009   6.482  12.266  1.1947 -0.5058 -0.5053
 8921TIP3   OH250957   2.497   3.962   9.051  0.8645 -0.4395  0.0426
 8921TIP3    H150958   2.480   3.944   9.143  0.5341  1.8235  0.4888
 8921TIP3    H250959   2.411   3.959   9.009  0.1236  3.3623  0.8452
 8922TIP3   OH250960   2.194   4.615  10.031  0.8241 -0.6479 -0.5919
 8922TIP3    H150961   2.186   4.665   9.950  0.2768 -1.4680 -1.0508
 8922TIP3    H250962   2.269   4.557  10.016  0.5316 -1.0180 -0.6314
 8923TIP3   OH250963   3.078   4.275  11.254 -0.3725 -0.2388 -0.3634
 8923TIP3    H150964   3.000   4.235  11.291  0.6532 -0.9706  1.0728
 8923TIP3    H250965   3.097   4.349  11.312  0.3477 -0.4306 -0.3521
 8924TIP3   OH250966   1.596   4.583  10.690 -0.2494  0.4515  0.1365
 8924TIP3    H150967   1.526   4.523  10.663  0.4730 -0.1677 -0.3784
 8924TIP3    H250968   1.623   4.551  10.775 -0.1590  0.3130  0.0550
 8925TIP3   OH250969   0.147   0.762  10.096  0.4543 -0.4836  0.0721
 8925TIP3    H150970   0.139   0.749  10.190 -2.5400  1.1102  0.1521
 8925TIP3    H250971   0.101   0.688  10.057  2.3011 -1.5332 -0.2533
 8926TIP3   OH250972   4.943   4.762  10.869  0.0229 -0.3599 -0.0545
 8926TIP3    H150973   5.024   4.710  10.873  1.5109  1.6299 -2.0794
 8926TIP3    H250974   4.874   4.698  10.851  1.5819 -1.8124 -1.1902
 8927TIP3   OH250975   6.517   3.255  11.205  0.1041  0.1906 -0.5813
 8927TIP3    H150976   6.523   3.172  11.252  0.2773  0.6121  0.1701
 8927TIP3    H250977   6.424   3.277  11.207  0.3469  1.3663  1.7154
 8928TIP3   OH250978   2.391   6.036  10.014 -0.7253 -0.4574  0.0796
 8928TIP3    H150979   2.402   5.971   9.945 -2.6539  0.1117 -0.8303
 8928TIP3    H250980   2.314   6.007  10.062 -1.4725  0.9921 -0.1827
 8929TIP3   OH250981   3.380   6.142   9.738  0.7731 -0.3137  0.6758
 8929TIP3    H150982   3.315   6.163   9.670  2.9928  3.3360 -0.6358
 8929TIP3    H250983   3.356   6.199   9.811  1.4223 -0.2894  0.8717
 8930TIP3   OH250984   5.367   2.645  10.977  0.1169  0.0985  0.1710
 8930TIP3    H150985   5.330   2.629  11.064  0.5541 -2.2299 -0.0141
 8930TIP3    H250986   5.447   2.694  10.994 -1.5136  2.7596  0.7681
 8931TIP3   OH250987   1.826   1.769   8.865  0.0343 -0.3773  0.3117
 8931TIP3    H150988   1.791   1.752   8.778 -0.1626 -0.4515  0.4037
 8931TIP3    H250989   1.921   1.766   8.854  0.0185  0.0876  0.0058
 8932TIP3   OH250990   3.001   6.067   8.776 -0.2398  0.1045  0.1072
 8932TIP3    H150991   2.930   6.008   8.799  0.7154 -0.8593  0.6776
 8932TIP3    H250992   2.971   6.153   8.805 -1.3124 -0.2138 -0.0012
 8933TIP3   OH250993   6.114   4.642  10.919 -0.2247 -0.3336 -0.0937
 8933TIP3    H150994   6.020   4.656  10.930  0.0290  0.4046  1.3642
 8933TIP3    H250995   6.131   4.556  10.957  0.1341  0.8598  2.7276
 8934TIP3   OH250996   4.667   1.780   8.626  0.6288  0.2375 -0.8789
 8934TIP3    H150997   4.662   1.875   8.634  1.6054  0.1697  0.8843
 8934TIP3    H250998   4.580   1.749   8.652  1.4175  0.4971  2.4559
 8935TIP3   OH250999   4.411   4.890   8.957 -0.3301  0.3516 -0.2716
 8935TIP3    H151000   4.420   4.971   8.906 -1.3385  0.3966 -0.3882
 8935TIP3    H251001   4.477   4.832   8.919 -0.0925  0.8691 -0.6726
 8936TIP3   OH251002   5.225   2.714   8.929  0.8545  0.4582  0.1042
 8936TIP3    H151003   5.228   2.699   8.835  2.4083 -0.5340  0.2881
 8936TIP3    H251004   5.132   2.728   8.947  0.5020  0.4572 -1.5299
 8937TIP3   OH251005   2.663   3.307  11.353 -0.4112  0.0171  0.0439
 8937TIP3    H151006   2.695   3.218  11.368  1.5648  0.7074  0.1590
 8937TIP3    H251007   2.577   3.309  11.395  0.2875 -1.3029  1.6194
 8938TIP3   OH251008   5.711   1.462   9.930  0.1516  0.5583 -0.0131
 8938TIP3    H151009   5.781   1.527   9.930  0.4302  0.2989 -1.8618
 8938TIP3    H251010   5.632   1.511   9.909  0.3685  0.3146 -1.4489
 8939TIP3   OH251011   0.879   2.937   9.767 -0.3902  0.0029 -0.2338
 8939TIP3    H151012   0.918   2.862   9.723  1.7382 -0.3642  2.0872
 8939TIP3    H251013   0.815   2.899   9.828 -1.0489  0.2886 -0.7292
 8940TIP3   OH251014   0.454   2.914   9.119  0.1131 -0.0796  0.1706
 8940TIP3    H151015   0.505   2.840   9.086  2.1555  1.3878 -0.2343
 8940TIP3    H251016   0.376   2.917   9.063  0.4106 -1.4083 -0.3452
 8941TIP3   OH251017   0.631   4.238  11.826  0.3651 -0.3308 -0.1449
 8941TIP3    H151018   0.705   4.226  11.887  0.7020  1.4638 -0.1427
 8941TIP3    H251019   0.573   4.300  11.871  0.3612  0.6129 -1.3933
 8942TIP3   OH251020   3.205   2.057   9.519 -0.1594 -0.1841  0.8023
 8942TIP3    H151021   3.277   2.009   9.559  1.0513 -0.2596 -1.3239
 8942TIP3    H251022   3.227   2.149   9.530  0.2935 -0.2079  0.1256
 8943TIP3   OH251023   0.400   4.899   9.946  0.0476  0.5525 -0.0390
 8943TIP3    H151024   0.350   4.978   9.926  0.2428  0.2819 -1.7352
 8943TIP3    H251025   0.479   4.906   9.893 -0.3550 -1.1933 -0.9552
 8944TIP3   OH251026   0.149   6.154   9.475 -0.2612 -0.0133 -0.1569
 8944TIP3    H151027   0.169   6.187   9.563  1.0464 -0.9506 -0.0682
 8944TIP3    H251028   0.143   6.059   9.487 -0.0388 -0.1507 -1.0784
 8945TIP3   OH251029   5.049   1.794  10.187  0.2956  0.0796  0.3322
 8945TIP3    H151030   5.140   1.764  10.175  0.2679  0.2511 -0.3700
 8945TIP3    H251031   5.024   1.761  10.273  1.0526  0.0946  0.5656
 8946TIP3   OH251032   2.838   2.134  10.620  0.0145 -0.3911 -0.1722
 8946TIP3    H151033   2.745   2.151  10.634 -0.1035 -0.8936 -0.3075
 8946TIP3    H251034   2.867   2.091  10.701  0.7389  2.0055  0.9331
 8947TIP3   OH251035   1.402   2.299   9.438  0.3699  0.0311 -0.2496
 8947TIP3    H151036   1.416   2.346   9.520  1.3285  0.6786 -0.7653
 8947TIP3    H251037   1.403   2.367   9.371 -1.4983 -0.3565 -0.7256
 8948TIP3   OH251038   1.111   0.711  10.123  0.2619  0.3978 -0.1652
 8948TIP3    H151039   1.194   0.752  10.097  0.4854  1.4221  1.9721
 8948TIP3    H251040   1.133   0.618  10.133  0.6134  0.3025 -1.6550
 8949TIP3   OH251041   2.029   0.194  10.545 -0.0067  0.0008 -0.3671
 8949TIP3    H151042   2.103   0.253  10.557 -0.5429  0.3739  1.3020
 8949TIP3    H251043   1.971   0.240  10.484 -0.4494  1.2443  0.9589
 8950TIP3   OH251044   1.865   0.062   8.806  0.3803 -0.6091  0.1120
 8950TIP3    H151045   1.776   0.029   8.816 -0.1215  1.0273  1.5872
 8950TIP3    H251046   1.903   0.054   8.894  1.5548 -0.8767 -0.4004
 8951TIP3   OH251047   6.386   1.895   9.097  0.1485  0.4258 -0.2421
 8951TIP3    H151048   6.469   1.847   9.097  0.0943  0.3306 -0.2807
 8951TIP3    H251049   6.325   1.837   9.144  0.0435  0.3885 -0.4227
 8952TIP3   OH251050   4.072   5.185  12.768 -0.0606 -0.4178  0.3307
 8952TIP3    H151051   4.049   5.265  12.721 -0.6378 -1.1539 -0.7011
 8952TIP3    H251052   4.158   5.161  12.735 -0.6826 -1.2162 -0.8161
 8953TIP3   OH251053   0.218   4.720  11.492 -0.2267  0.1033  0.1811
 8953TIP3    H151054   0.213   4.644  11.549  0.2257 -0.7887 -0.9225
 8953TIP3    H251055   0.128   4.748  11.481 -0.4154 -0.3983  0.4407
 8954TIP3   OH251056   6.251   2.137  10.870 -0.2281  0.1558  0.5717
 8954TIP3    H151057   6.175   2.130  10.812  1.6104  2.0528 -2.3342
 8954TIP3    H251058   6.303   2.059  10.851 -1.7937 -1.7094  3.3563
 8955TIP3   OH251059   3.804   2.451  11.532 -0.4038 -0.1418  0.1677
 8955TIP3    H151060   3.736   2.448  11.600 -0.3302 -1.1943  0.2175
 8955TIP3    H251061   3.874   2.397  11.567 -0.4508 -0.8803 -0.8328
 8956TIP3   OH251062   3.035   4.543  12.145  0.4412 -0.0311 -0.3380
 8956TIP3    H151063   2.973   4.587  12.203 -0.9941 -1.7019 -0.5462
 8956TIP3    H251064   3.119   4.552  12.190 -0.0769  1.4262  0.4234
 8957TIP3   OH251065   5.551   5.924  11.799  0.3740 -0.5323 -0.2327
 8957TIP3    H151066   5.612   5.980  11.845  1.1411  0.4258 -2.2923
 8957TIP3    H251067   5.605   5.854  11.762 -0.4746 -2.3490  1.7366
 8958TIP3   OH251068   6.234   5.883   9.297 -0.3658 -0.0023 -0.0156
 8958TIP3    H151069   6.236   5.924   9.384 -2.2944  1.2604 -0.5175
 8958TIP3    H251070   6.195   5.949   9.240 -0.8216 -1.4669 -1.4610
 8959TIP3   OH251071   5.571   0.911   9.073  0.4207 -0.2904 -0.1555
 8959TIP3    H151072   5.663   0.893   9.093  0.3805 -0.2895  0.0335
 8959TIP3    H251073   5.564   1.006   9.074 -0.2502 -0.2371  3.0500
 8960TIP3   OH251074   0.848   5.912   9.201  0.0858 -0.1488 -0.7576
 8960TIP3    H151075   0.902   5.847   9.157  0.6581 -0.2052 -0.0019
 8960TIP3    H251076   0.773   5.924   9.143 -0.9849 -2.8266 -0.0985
 8961TIP3   OH251077   4.455   1.778  11.510  0.2391  0.9390  0.2451
 8961TIP3    H151078   4.523   1.711  11.520 -0.3489  0.2976  0.0239
 8961TIP3    H251079   4.408   1.752  11.430 -0.3565  1.2944  0.4784
 8962TIP3   OH251080   2.325   4.339  11.057 -0.0156  0.2514  0.0858
 8962TIP3    H151081   2.376   4.419  11.064  1.2703 -0.5284 -0.1431
 8962TIP3    H251082   2.299   4.334  10.965  1.2919 -0.4053 -0.2664
 8963TIP3   OH251083   0.400   2.979  11.319 -0.5401 -0.1358  0.3106
 8963TIP3    H151084   0.439   3.011  11.400  0.3145  0.3787 -0.2904
 8963TIP3    H251085   0.446   3.025  11.250  1.6810 -3.5125 -0.6968
 8964TIP3   OH251086   2.803   4.778   9.267 -0.3772  0.3276  0.6498
 8964TIP3    H151087   2.864   4.764   9.195  0.2300  2.1966  0.7467
 8964TIP3    H251088   2.742   4.705   9.262  0.3957 -0.2437 -0.9813
 8965TIP3   OH251089   4.545   5.299  12.196 -0.6088  0.2461  0.2514
 8965TIP3    H151090   4.608   5.229  12.213 -1.1902 -0.5504 -0.7897
 8965TIP3    H251091   4.460   5.256  12.200 -1.0216  1.0679  0.4135
 8966TIP3   OH251092   0.311   0.796   9.576  0.4589 -0.1689  0.8361
 8966TIP3    H151093   0.262   0.803   9.494  0.9416 -1.1756  0.4433
 8966TIP3    H251094   0.324   0.886   9.604  0.7455  0.2218 -0.4837
 8967TIP3   OH251095   0.814   4.761  10.769 -0.3930 -0.2602  0.0192
 8967TIP3    H151096   0.804   4.698  10.840  0.8593 -0.0854  0.3579
 8967TIP3    H251097   0.763   4.837  10.797  0.3793 -0.0597  0.8940
 8968TIP3   OH251098   5.003   6.529  10.746  0.1021  0.0645 -0.9290
 8968TIP3    H151099   5.034   6.523  10.836  1.5023 -0.5609 -1.4243
 8968TIP3    H251100   4.972   6.619  10.737 -2.1981 -0.4534  0.7952
 8969TIP3   OH251101   2.488   3.459  10.892  0.0319 -0.8699 -0.9020
 8969TIP3    H151102   2.521   3.546  10.872  0.9456 -0.8302  0.5985
 8969TIP3    H251103   2.559   3.417  10.940 -0.5166 -2.3341 -1.3094
 8970TIP3   OH251104   1.644   6.091  11.447  0.2406 -0.1535  0.1368
 8970TIP3    H151105   1.611   6.074  11.358  0.6568  0.4883 -0.1501
 8970TIP3    H251106   1.707   6.020  11.462 -0.5786 -0.8594  0.3333
 8971TIP3   OH251107   2.227   2.430  10.949  0.2044  0.5401  0.3149
 8971TIP3    H151108   2.232   2.505  11.008 -0.9371  1.4639 -0.7037
 8971TIP3    H251109   2.179   2.364  10.998  1.4390  0.3384  1.3182
 8972TIP3   OH251110   2.505   1.620   9.923 -0.4591 -0.0797 -0.0460
 8972TIP3    H151111   2.575   1.655   9.979 -0.3157 -1.3134  0.5871
 8972TIP3    H251112   2.424   1.642   9.968 -0.5035  1.3989 -0.8057
 8973TIP3   OH251113   0.192   2.598  10.562  0.2350 -0.6404 -0.4228
 8973TIP3    H151114   0.284   2.575  10.571  0.5030  0.4140 -0.3604
 8973TIP3    H251115   0.191   2.693  10.560 -0.8105 -0.6480 -0.9275
 8974TIP3   OH251116   2.319   1.173  11.151  0.0327  0.6609 -0.7807
 8974TIP3    H151117   2.399   1.177  11.099 -0.8295  0.3735 -2.1787
 8974TIP3    H251118   2.273   1.095  11.119 -0.0469 -0.1400  1.1535
 8975TIP3   OH251119   6.591   0.434  10.443  0.3576 -0.2511  0.2266
 8975TIP3    H151120   6.510   0.389  10.464 -0.0258  1.0066  1.5785
 8975TIP3    H251121   6.599   0.503  10.509  2.0660  0.2299 -0.4142
 8976TIP3   OH251122   4.140   2.996  10.356  0.3199 -0.0326 -0.2243
 8976TIP3    H151123   4.211   3.052  10.388  0.3321 -0.2726  0.1754
 8976TIP3    H251124   4.084   2.983  10.433 -0.0047 -0.0787 -0.4680
 8977TIP3   OH251125   2.674   3.793   8.601 -0.0281  0.0431 -0.2452
 8977TIP3    H151126   2.656   3.803   8.695  0.5909  0.3819 -0.1577
 8977TIP3    H251127   2.643   3.875   8.562  1.5095  0.7512 -0.0559
 8978TIP3   OH251128   4.539   0.935  11.050  0.0372  0.2085 -0.2333
 8978TIP3    H151129   4.599   0.867  11.017 -0.1711  0.0491 -0.2893
 8978TIP3    H251130   4.498   0.970  10.971 -1.3938 -1.0378 -0.0930
 8979TIP3   OH251131   0.549   1.129   9.506  0.5928  0.0514 -0.0269
 8979TIP3    H151132   0.551   1.110   9.600  0.9485 -0.5860 -0.1554
 8979TIP3    H251133   0.611   1.201   9.495 -1.0652  1.6165  0.5282
 8980TIP3   OH251134   5.399   5.197  10.761  0.0261  0.0127  0.1260
 8980TIP3    H151135   5.445   5.157  10.688 -1.7881 -1.6273 -0.1870
 8980TIP3    H251136   5.390   5.127  10.825 -0.6568  0.7375  0.8472
 8981TIP3   OH251137   3.471   0.694   9.335  0.4593  0.2331 -0.1255
 8981TIP3    H151138   3.528   0.770   9.340  0.8662 -0.0261 -0.7345
 8981TIP3    H251139   3.494   0.652   9.252 -0.9819  0.4305 -0.6691
 8982TIP3   OH251140   5.331   4.707  10.613 -0.0952 -0.1069  0.5735
 8982TIP3    H151141   5.364   4.709  10.703 -0.5179 -0.7735  0.7559
 8982TIP3    H251142   5.395   4.654  10.565 -0.2006 -0.2875  0.6298
 8983TIP3   OH251143   4.853   2.987  10.548 -0.0931 -0.1271  0.7766
 8983TIP3    H151144   4.888   2.900  10.570  0.3946  0.0262  0.6218
 8983TIP3    H251145   4.763   2.985  10.580 -0.8785 -1.5284 -1.3306
 8984TIP3   OH251146   6.334   5.110   9.019  0.4795  0.2938 -0.5607
 8984TIP3    H151147   6.328   5.080   8.928 -0.1299 -1.6921  0.0798
 8984TIP3    H251148   6.428   5.118   9.035  0.6356 -0.3786 -1.0721
 8985TIP3   OH251149   2.670   2.821   8.481 -0.5274 -0.1053 -0.3680
 8985TIP3    H151150   2.632   2.778   8.558 -2.7403  1.1098 -0.6954
 8985TIP3    H251151   2.748   2.769   8.461 -2.0675 -2.9056  0.2965
 8986TIP3   OH251152   2.703   6.129  11.547 -0.1657  0.0736 -0.2474
 8986TIP3    H151153   2.626   6.119  11.490 -1.1506  2.7776  0.4494
 8986TIP3    H251154   2.771   6.162  11.490 -0.1177 -0.3865 -0.4657
 8987TIP3   OH251155   3.045   5.840  10.110 -0.5110 -0.2466  0.1874
 8987TIP3    H151156   3.025   5.747  10.099 -0.4183 -0.2757  0.2709
 8987TIP3    H251157   2.971   5.875  10.159 -0.1739 -0.4351  0.8433
 8988TIP3   OH251158   5.905   0.165  12.033 -0.3654  0.1837 -0.4907
 8988TIP3    H151159   5.840   0.230  12.059  0.1894  0.1609  1.0386
 8988TIP3    H251160   5.960   0.210  11.969 -1.8703  0.1854 -1.8634
 8989TIP3   OH251161   6.556   4.659   9.913 -0.0528 -0.2932  0.6381
 8989TIP3    H151162   6.490   4.627   9.852 -0.8801 -0.7225  1.7394
 8989TIP3    H251163   6.522   4.639  10.000  0.8351  0.8157  1.2815
 8990TIP3   OH251164   2.251   5.098  11.713 -0.9045  0.7580 -0.5402
 8990TIP3    H151165   2.337   5.098  11.755  0.1505 -2.0877 -2.3972
 8990TIP3    H251166   2.202   5.029  11.756 -1.6675  1.2327 -0.6209
 8991TIP3   OH251167   3.113   0.179   9.781 -0.6354 -0.3700 -0.2351
 8991TIP3    H151168   3.163   0.187   9.863 -0.7578 -1.2134 -0.0669
 8991TIP3    H251169   3.047   0.248   9.787  0.0181  0.2509 -0.1022
 8992TIP3   OH251170   5.379   3.140  10.112 -0.0313  0.1745  0.4376
 8992TIP3    H151171   5.367   3.167  10.020  0.7844  0.7138  0.4754
 8992TIP3    H251172   5.375   3.222  10.161  0.1928 -0.0355  0.8088
 8993TIP3   OH251173   6.197   3.056  11.194  0.1524  0.2565 -0.1546
 8993TIP3    H151174   6.181   3.148  11.218  1.1326  0.4502 -0.1883
 8993TIP3    H251175   6.287   3.039  11.224 -0.6518 -1.2822  1.5677
 8994TIP3   OH251176   2.979   5.269  10.038  0.5851 -0.2505  0.3039
 8994TIP3    H151177   3.049   5.205  10.025 -0.0821 -0.6630 -1.5529
 8994TIP3    H251178   2.939   5.280   9.952 -0.3426  1.5105  0.8953
 8995TIP3   OH251179   1.301   0.493   9.403  0.1352  0.1344 -0.3474
 8995TIP3    H151180   1.206   0.482   9.397  0.3412 -1.3645 -1.3744
 8995TIP3    H251181   1.325   0.532   9.319  0.6340 -1.3803 -0.9431
 8996TIP3   OH251182   6.121   3.636   9.179  0.7323 -0.6944 -0.2200
 8996TIP3    H151183   6.125   3.564   9.117 -0.5877 -1.7291  0.8425
 8996TIP3    H251184   6.041   3.683   9.158 -0.0812 -1.4470  1.0792
 8997TIP3   OH251185   5.797   6.132  10.135  0.1460 -0.1158  0.0044
 8997TIP3    H151186   5.755   6.047  10.123 -0.2844  0.3384 -2.1280
 8997TIP3    H251187   5.874   6.128  10.079 -0.1867  1.0863 -0.5591
 8998TIP3   OH251188   4.162   3.324   8.540 -0.0316 -0.3398  0.2495
 8998TIP3    H151189   4.210   3.344   8.460 -0.6043  1.5294  0.3261
 8998TIP3    H251190   4.228   3.324   8.609  0.1057  0.7844  0.1412
 8999TIP3   OH251191   0.123   5.987  11.949  0.4325  0.1189 -0.1893
 8999TIP3    H151192   0.113   6.047  12.022  0.5961  0.9923 -0.8595
 8999TIP3    H251193   0.170   6.038  11.883  1.8613 -1.1944 -0.2512
 9000TIP3   OH251194   2.651   5.638  11.096  0.0132  0.4927 -0.0229
 9000TIP3    H151195   2.646   5.604  11.007 -2.5675  2.1027 -0.6115
 9000TIP3    H251196   2.745   5.649  11.112  0.5569  1.1918 -2.9870
 9001TIP3   OH251197   2.432   1.646  11.090 -0.8145 -0.0767  0.0147
 9001TIP3    H151198   2.351   1.696  11.085 -0.8761 -0.2278 -0.5729
 9001TIP3    H251199   2.495   1.698  11.040 -0.7152 -0.2753 -0.0686
 9002TIP3   OH251200   3.291   3.911  12.268 -0.1329 -0.3077  0.1881
 9002TIP3    H151201   3.266   3.822  12.244  1.3110 -0.7793  0.3365
 9002TIP3    H251202   3.229   3.936  12.337 -2.2879 -0.1427 -1.6755
 9003TIP3   OH251203   1.431   6.745   9.945  0.8337 -0.3276  0.1253
 9003TIP3    H151204   1.503   6.694   9.982  1.0455  0.4797  0.8693
 9003TIP3    H251205   1.469   6.832   9.928  0.2985 -0.1951 -0.4449
 9004TIP3   OH251206   3.501   3.690  12.150  0.1380  0.4297  0.2944
 9004TIP3    H151207   3.408   3.675  12.131  0.7973 -1.7758 -1.6100
 9004TIP3    H251208   3.512   3.784  12.138 -1.1565  0.2778 -3.3416
 9005TIP3   OH251209   2.276   2.385  10.682 -0.3587  0.3722 -0.0568
 9005TIP3    H151210   2.254   2.392  10.775 -1.2458  0.2314 -0.2487
 9005TIP3    H251211   2.231   2.305  10.653 -1.2111  1.1351 -0.9148
 9006TIP3   OH251212   2.522   4.513  10.337  0.1296  0.2645 -0.2869
 9006TIP3    H151213   2.607   4.479  10.365  0.7039  0.9516 -1.1275
 9006TIP3    H251214   2.458   4.451  10.372  1.0836 -1.3942 -1.3363
 9007TIP3   OH251215   5.592   3.178  10.410  0.0320  0.0503  0.1610
 9007TIP3    H151216   5.652   3.109  10.383  0.1274  0.9538 -2.2421
 9007TIP3    H251217   5.647   3.257  10.414 -0.2919  0.2261  1.7329
 9008TIP3   OH251218   5.872   2.488   9.064 -0.5554  0.2560 -0.2912
 9008TIP3    H151219   5.880   2.418   9.129 -1.8722 -0.6123 -1.0241
 9008TIP3    H251220   5.782   2.520   9.074 -0.8324 -0.0075 -1.7690
 9009TIP3   OH251221   5.439   1.223   9.758  0.0119 -0.6736 -0.1377
 9009TIP3    H151222   5.409   1.313   9.765 -1.4289 -1.2173  1.1588
 9009TIP3    H251223   5.482   1.205   9.842  1.7396 -0.7420 -0.9744
 9010TIP3   OH251224   0.074   6.228   8.633  0.7767  0.1283  0.5594
 9010TIP3    H151225   0.028   6.298   8.679  0.5613 -0.2864  0.9806
 9010TIP3    H251226   0.088   6.263   8.545 -0.4534  0.2158  0.3830
 9011TIP3   OH251227   5.123   3.897  10.355 -0.3521 -0.0573  0.2935
 9011TIP3    H151228   5.120   3.984  10.396  1.0942  0.5011 -0.6862
 9011TIP3    H251229   5.031   3.873  10.344 -0.8106  1.5777  0.1639
 9012TIP3   OH251230   3.863   2.235  10.535 -0.0504 -0.0531  0.3927
 9012TIP3    H151231   3.787   2.198  10.581  0.5839 -1.5981  0.2690
 9012TIP3    H251232   3.909   2.285  10.602 -1.1247  0.8577  0.4868
 9013TIP3   OH251233   1.182   2.191   9.790  0.1626  0.4213 -0.2564
 9013TIP3    H151234   1.205   2.202   9.698 -1.9727 -1.2473 -1.0615
 9013TIP3    H251235   1.087   2.174   9.790 -0.2539  2.0218  2.4028
 9014TIP3   OH251236   0.716   3.613   9.590 -0.1508 -0.0974  0.0714
 9014TIP3    H151237   0.741   3.521   9.581  0.6151  0.0739  0.3853
 9014TIP3    H251238   0.738   3.635   9.680 -0.0208  0.4865 -0.1026
 9015TIP3   OH251239   5.752   5.808   9.882  0.0614 -0.3297  0.2393
 9015TIP3    H151240   5.771   5.895   9.846 -0.5251 -0.2368  0.1571
 9015TIP3    H251241   5.838   5.767   9.889  0.6116  0.9575  2.1017
 9016TIP3   OH251242   2.457   2.338   9.158  0.4472 -0.7024  0.1331
 9016TIP3    H151243   2.552   2.349   9.159  0.6182 -1.6783 -1.5295
 9016TIP3    H251244   2.424   2.424   9.132  0.9467 -0.6406 -0.3242
 9017TIP3   OH251245   3.433   1.508  12.043 -0.0567  0.1011 -0.1729
 9017TIP3    H151246   3.421   1.463  12.126 -1.3534 -0.4314 -0.6309
 9017TIP3    H251247   3.426   1.440  11.977  0.8333  0.5415 -0.7440
 9018TIP3   OH251248   5.849   6.215  11.013  0.3977  0.2098  0.2628
 9018TIP3    H151249   5.821   6.287  10.957  0.2713  0.5814  0.7904
 9018TIP3    H251250   5.894   6.154  10.955 -0.8617 -0.0462 -0.4834
 9019TIP3   OH251251   4.017   3.614   9.267  0.4664 -0.0708  0.1897
 9019TIP3    H151252   4.061   3.561   9.334 -2.9305 -2.0300  1.1222
 9019TIP3    H251253   3.981   3.688   9.316  1.8173  1.0326 -0.4089
 9020TIP3   OH251254   6.060   4.333   9.929  0.8865 -0.4072 -0.2510
 9020TIP3    H151255   6.076   4.286  10.011  1.6930 -1.3590 -0.9310
 9020TIP3    H251256   6.140   4.383   9.914  1.1495 -1.0258 -0.9593
 9021TIP3   OH251257   6.137   1.825   8.934  0.3845  0.2120 -0.1064
 9021TIP3    H151258   6.122   1.900   8.991 -0.3024 -1.2455  1.7086
 9021TIP3    H251259   6.228   1.835   8.905 -0.1205  2.4859 -1.1205
 9022TIP3   OH251260   2.521   0.706  10.253 -0.4962  0.0938  0.9085
 9022TIP3    H151261   2.598   0.761  10.235  0.5236 -1.6266 -0.3422
 9022TIP3    H251262   2.446   0.761  10.229  0.3838  1.4557  1.1454
 9023TIP3   OH251263   4.811   2.990  10.255  0.6669 -0.0024  0.0386
 9023TIP3    H151264   4.770   2.972  10.169 -1.2533 -0.8599  1.0590
 9023TIP3    H251265   4.848   2.906  10.281  1.6070  0.3593 -0.1048
 9024TIP3   OH251266   3.286   4.504  12.263  0.0314  0.1772  0.3720
 9024TIP3    H151267   3.321   4.563  12.329 -0.5519 -0.0006  0.8456
 9024TIP3    H251268   3.285   4.419  12.305 -0.4944  0.0918  0.1848
 9025TIP3   OH251269   0.213   3.946  11.574  0.2559  0.2438  0.4052
 9025TIP3    H151270   0.283   3.899  11.528  1.6369  1.9688  0.6405
 9025TIP3    H251271   0.186   4.015  11.513 -1.6961 -0.7204  0.0884
 9026TIP3   OH251272   4.187   1.121  11.816  0.6725 -0.2137 -0.3341
 9026TIP3    H151273   4.164   1.041  11.863 -0.0285  0.4344  0.4558
 9026TIP3    H251274   4.104   1.165  11.802  1.2022  1.1703  0.7049
 9027TIP3   OH251275   1.495   5.937  10.526 -0.2792  0.5931 -0.0507
 9027TIP3    H151276   1.407   5.928  10.564 -0.8625  1.4051 -1.1370
 9027TIP3    H251277   1.494   6.023  10.485  1.5343  1.2446  1.1494
 9028TIP3   OH251278   2.379   1.986  11.426  0.0627 -0.6864  0.1373
 9028TIP3    H151279   2.285   1.967  11.436  0.1786 -1.4174 -0.1059
 9028TIP3    H251280   2.393   1.987  11.331  0.1879  0.0218  0.1590
 9029TIP3   OH251281   0.399   4.721   8.859 -0.3765  0.1201  0.0201
 9029TIP3    H151282   0.434   4.683   8.778 -3.2861 -0.5097 -1.0974
 9029TIP3    H251283   0.471   4.772   8.895  1.5890 -1.0039 -2.0376
 9030TIP3   OH251284   6.194   5.471  10.806  0.9112  0.1557  0.0230
 9030TIP3    H151285   6.149   5.446  10.726  0.7203  0.8594 -0.0991
 9030TIP3    H251286   6.239   5.391  10.835  0.2774 -0.3300 -0.3110
 9031TIP3   OH251287   0.239   4.036  10.679  0.3988  0.5306  0.3838
 9031TIP3    H151288   0.215   4.011  10.768  1.1281 -0.8523  0.2217
 9031TIP3    H251289   0.156   4.059  10.637 -0.1443 -0.2640  0.9842
 9032TIP3   OH251290   4.430   6.377  10.622 -0.0469  0.8208  0.5999
 9032TIP3    H151291   4.358   6.359  10.562  0.4609 -1.9176  0.6948
 9032TIP3    H251292   4.394   6.362  10.709  0.3825  0.2703  0.6934
 9033TIP3   OH251293   0.470   2.678  11.292 -0.3425  0.1095  0.3688
 9033TIP3    H151294   0.418   2.755  11.267 -0.1419  0.2748  0.4558
 9033TIP3    H251295   0.448   2.663  11.383 -2.9289 -1.9601 -0.4993
 9034TIP3   OH251296   6.135   6.048   9.113 -0.3548 -0.2593  0.4344
 9034TIP3    H151297   6.110   6.047   9.020 -0.0987  0.7113  0.3444
 9034TIP3    H251298   6.068   6.100   9.156  0.9695  1.6333  0.3277
 9035TIP3   OH251299   3.644   1.543  10.905 -0.8633  0.6913  0.3796
 9035TIP3    H151300   3.677   1.547  10.815 -0.2974 -3.8100  0.1539
 9035TIP3    H251301   3.722   1.546  10.959 -0.8254 -0.5666  0.4221
 9036TIP3   OH251302   1.906   5.189   9.508 -0.0519  0.1272 -0.5217
 9036TIP3    H151303   1.951   5.235   9.579 -0.1545 -0.8999  0.2445
 9036TIP3    H251304   1.975   5.158   9.451  0.0874  0.2393 -0.4140
 9037TIP3   OH251305   3.344   5.685  10.712  0.5782 -0.1675  0.2793
 9037TIP3    H151306   3.348   5.622  10.783 -0.3436 -0.4604  0.0867
 9037TIP3    H251307   3.408   5.752  10.736 -1.1630  0.8504  2.4860
 9038TIP3   OH251308   3.522   6.280  11.349  0.0864 -0.4926 -0.2370
 9038TIP3    H151309   3.603   6.264  11.299  0.9602  0.0154  0.9551
 9038TIP3    H251310   3.455   6.295  11.283  1.1699 -0.0221 -1.2606
 9039TIP3   OH251311   2.232   2.689  11.865  0.0837  0.2164  0.2083
 9039TIP3    H151312   2.286   2.768  11.855 -1.8715  1.7153  0.9703
 9039TIP3    H251313   2.282   2.621  11.821  0.9251  2.2894 -2.2794
 9040TIP3   OH251314   1.712   5.583  11.377 -0.0338  0.3733  0.1993
 9040TIP3    H151315   1.640   5.632  11.336  1.0479  1.6728 -0.2004
 9040TIP3    H251316   1.712   5.612  11.468 -0.7063 -0.4812  0.4903
 9041TIP3   OH251317   5.423   0.601  10.787 -0.9994  0.4062 -0.1203
 9041TIP3    H151318   5.490   0.646  10.735  1.3274 -1.2420  1.2216
 9041TIP3    H251319   5.410   0.657  10.863  0.0507  0.0432  0.3500
 9042TIP3   OH251320   2.690   1.096   8.940  0.0285  0.4328 -0.7464
 9042TIP3    H151321   2.634   1.170   8.918 -0.0874  0.4623 -0.3551
 9042TIP3    H251322   2.651   1.059   9.018  1.5696  1.5689  0.6412
 9043TIP3   OH251323   1.573   2.408  11.119 -0.4127 -0.1882 -0.3694
 9043TIP3    H151324   1.628   2.404  11.041 -1.6283  0.3944 -1.2929
 9043TIP3    H251325   1.496   2.458  11.092 -0.4433  0.8506  1.4903
 9044TIP3   OH251326   6.525   5.256  10.486  0.1387 -0.2678 -0.1126
 9044TIP3    H151327   6.436   5.241  10.517  0.8234 -2.9355  0.8216
 9044TIP3    H251328   6.566   5.170  10.489  2.7468  0.8765 -0.5722
 9045TIP3   OH251329   1.955   2.808  10.754 -0.6019 -0.1678  0.4951
 9045TIP3    H151330   1.866   2.814  10.719 -0.0093 -4.0160 -2.3504
 9045TIP3    H251331   2.012   2.836  10.682  0.6362  1.5069  2.0091
 9046TIP3   OH251332   4.685   6.417  10.825 -0.3204  0.2891 -0.2086
 9046TIP3    H151333   4.716   6.487  10.768 -1.0716  1.7013  1.0482
 9046TIP3    H251334   4.593   6.437  10.841 -0.7382 -1.3663 -0.3455
 9047TIP3   OH251335   2.420   0.236   8.619 -0.0096 -0.1776 -0.4934
 9047TIP3    H151336   2.412   0.162   8.558 -4.0783  0.3727 -0.8746
 9047TIP3    H251337   2.379   0.309   8.573  0.7100  1.4084  1.2790
 9048TIP3   OH251338   0.640   3.039   8.703  0.0254  0.1191  0.7902
 9048TIP3    H151339   0.724   3.084   8.694  0.7944 -1.5214 -0.8107
 9048TIP3    H251340   0.658   2.965   8.761  0.0204 -0.9114 -0.4756
 9049TIP3   OH251341   2.362   1.812   9.458  0.2384 -0.8908  0.9775
 9049TIP3    H151342   2.428   1.743   9.455 -0.7759 -1.8582 -0.1022
 9049TIP3    H251343   2.358   1.846   9.369 -0.9293 -1.0908  0.9310
 9050TIP3   OH251344   1.781   0.987  11.722  0.4572 -0.4037  1.1628
 9050TIP3    H151345   1.766   0.998  11.628  3.3184 -1.3366  0.4989
 9050TIP3    H251346   1.697   0.956  11.756 -0.5400 -0.4482 -1.1334
 9051TIP3   OH251347   6.075   3.535   9.528 -0.2588 -0.4109 -0.1918
 9051TIP3    H151348   6.152   3.582   9.494  0.7210 -2.0719 -0.4120
 9051TIP3    H251349   6.091   3.529   9.623 -0.6101  0.0490 -0.0959
 9052TIP3   OH251350   2.314   1.674  10.106  0.0199 -0.0331 -0.3171
 9052TIP3    H151351   2.300   1.659  10.199  0.3100  2.6635  0.2368
 9052TIP3    H251352   2.230   1.710  10.075  0.7160  1.5281 -0.4710
 9053TIP3   OH251353   5.582   5.108  11.210  0.0284 -0.2608  0.0680
 9053TIP3    H151354   5.486   5.101  11.213  0.1068 -2.4641 -0.8146
 9053TIP3    H251355   5.598   5.179  11.149 -1.0486 -0.1574 -0.1253
 9054TIP3   OH251356   4.644   2.092  10.307 -0.0641 -0.4088  0.8137
 9054TIP3    H151357   4.622   2.005  10.276  0.9639 -1.1478  2.0539
 9054TIP3    H251358   4.560   2.135  10.322 -0.6723 -2.1132  2.6766
 9055TIP3   OH251359   4.037   6.782  11.041 -0.1501 -0.0046 -0.0650
 9055TIP3    H151360   4.056   6.714  11.105  1.4451  0.6459  0.1896
 9055TIP3    H251361   3.945   6.768  11.018 -0.8729 -0.0752  2.5777
 9056TIP3   OH251362   3.222   2.898  12.069 -0.2025 -0.3530  0.4814
 9056TIP3    H151363   3.177   2.861  12.145  0.6341 -0.4327  0.9533
 9056TIP3    H251364   3.267   2.824  12.030  1.2222  0.0647  1.2442
 9057TIP3   OH251365   1.444   6.017  10.923  0.0243 -0.1365 -0.2696
 9057TIP3    H151366   1.491   5.963  10.860 -0.0166  0.9998 -1.3202
 9057TIP3    H251367   1.423   6.097  10.875  0.7209  1.1307  1.4244
 9058TIP3   OH251368   3.518   3.024   9.125 -0.3294 -0.0953 -0.1745
 9058TIP3    H151369   3.587   2.991   9.183  1.5256  0.9906 -1.6599
 9058TIP3    H251370   3.442   2.968   9.145  1.4330 -2.4784  0.3543
 9059TIP3   OH251371   0.518   3.182   9.167  0.5473 -0.0722 -0.0254
 9059TIP3    H151372   0.596   3.154   9.215 -0.1253 -0.8669  0.6358
 9059TIP3    H251373   0.475   3.100   9.142 -0.1495  0.3613 -0.2716
 9060TIP3   OH251374   6.551   4.074   8.678 -0.3212  0.1955 -0.6465
 9060TIP3    H151375   6.513   4.076   8.766 -0.5613 -1.2823 -0.7002
 9060TIP3    H251376   6.478   4.097   8.620 -0.3356  0.4762 -0.5202
 9061TIP3   OH251377   6.754   3.008  10.656 -0.0070 -0.3278  0.1354
 9061TIP3    H151378   6.741   3.067  10.582  1.0417 -0.0446  0.1536
 9061TIP3    H251379   6.692   2.937  10.642  0.1548 -0.2631 -0.9998
 9062TIP3   OH251380   5.243   5.740   9.898 -0.0782 -0.7612 -0.6077
 9062TIP3    H151381   5.300   5.665   9.911 -0.4471 -0.7096  1.7647
 9062TIP3    H251382   5.295   5.801   9.846  1.4357 -1.3641  0.1419
 9063TIP3   OH251383   1.798   3.198  10.748 -0.0618 -0.4933  0.2831
 9063TIP3    H151384   1.891   3.184  10.766  0.2352 -0.2873 -1.0016
 9063TIP3    H251385   1.797   3.255  10.671 -1.2577 -0.0677  0.5903
 9064TIP3   OH251386   1.505   5.277   9.921  0.7891  0.4037  0.0491
 9064TIP3    H151387   1.410   5.283   9.918  0.6435  1.2299  2.8339
 9064TIP3    H251388   1.536   5.343   9.859 -0.4913  1.0302  0.0478
 9065TIP3   OH251389   5.070   3.869  10.860  0.4720  0.3622 -0.1420
 9065TIP3    H151390   5.049   3.844  10.950  1.5202  1.5938  0.4782
 9065TIP3    H251391   5.165   3.859  10.855  0.4106  0.2511 -1.1382
 9066TIP3   OH251392   0.212   3.855   8.600 -0.1377  0.6298 -0.1909
 9066TIP3    H151393   0.121   3.862   8.629 -0.1388 -0.3858  0.1000
 9066TIP3    H251394   0.222   3.763   8.574  0.9123  0.6265  0.1639
 9067TIP3   OH251395   4.979   6.050   9.835  0.5417 -0.1582  0.4476
 9067TIP3    H151396   4.908   6.067   9.774  0.0046 -2.2332  0.4025
 9067TIP3    H251397   5.056   6.039   9.779  0.3666 -0.4647  0.2602
 9068TIP3   OH251398   6.376   4.840   9.181  0.1596  0.5274 -0.2095
 9068TIP3    H151399   6.436   4.915   9.178  0.2235  0.4534 -2.1019
 9068TIP3    H251400   6.433   4.763   9.180  0.0814  0.4432  1.1554
 9069TIP3   OH251401   5.786   4.735   9.707 -0.0059  0.1646  0.0482
 9069TIP3    H151402   5.801   4.652   9.751 -0.2876  0.7072  1.2313
 9069TIP3    H251403   5.697   4.728   9.671 -0.3301  0.2284  0.8199
 9070TIP3   OH251404   4.732   6.161   8.952 -0.4432  0.3188 -0.2182
 9070TIP3    H151405   4.826   6.140   8.948 -0.2746  0.8696  0.4959
 9070TIP3    H251406   4.689   6.076   8.952  0.1761 -0.0378  1.5324
 9071TIP3   OH251407   6.046   5.080   9.770  0.6168  0.2160 -0.0099
 9071TIP3    H151408   6.048   5.099   9.864  1.2325  0.1487 -0.0052
 9071TIP3    H251409   5.977   5.014   9.760  1.2798 -0.5895  0.5539
 9072TIP3   OH251410   4.459   4.673   8.792  0.1197  0.0798  0.3558
 9072TIP3    H151411   4.369   4.701   8.774  1.4162  2.3968 -3.9974
 9072TIP3    H251412   4.463   4.582   8.763 -0.9409 -0.2811  1.2944
 9073TIP3   OH251413   2.128   2.052   9.883 -0.1748 -0.0336  0.4568
 9073TIP3    H151414   2.201   2.003   9.922  1.5431  2.2605  0.3741
 9073TIP3    H251415   2.134   2.032   9.789  1.7559  1.6726  0.1343
 9074TIP3   OH251416   5.683   5.035   9.341 -0.4620 -0.5076 -0.3148
 9074TIP3    H151417   5.762   5.035   9.287  0.7668 -1.4323  1.3784
 9074TIP3    H251418   5.638   4.954   9.318  0.4983 -1.3350  0.5732
 9075TIP3   OH251419   6.468   4.489  10.934 -0.0459  0.0764  0.2220
 9075TIP3    H151420   6.550   4.439  10.934 -0.0420  0.0837  0.1724
 9075TIP3    H251421   6.492   4.574  10.971  0.1737  0.4243 -0.6903
 9076TIP3   OH251422   4.884   0.051  11.491  0.3095  0.4794 -0.5618
 9076TIP3    H151423   4.816   0.059  11.424  2.1840  2.4452 -2.3973
 9076TIP3    H251424   4.845   0.091  11.569 -1.6783 -1.2446 -0.5837
 9077TIP3   OH251425   3.037   5.066  10.363  0.4048  0.0657  0.4183
 9077TIP3    H151426   3.113   5.047  10.418  0.5361  0.2696  0.3089
 9077TIP3    H251427   3.027   5.161  10.369 -0.0863 -0.0051  0.7536
 9078TIP3   OH251428   2.881   5.108   9.229  0.1718 -0.2870 -0.0737
 9078TIP3    H151429   2.871   5.020   9.194 -0.7677 -0.1301 -0.2380
 9078TIP3    H251430   2.870   5.165   9.152 -0.4827  0.0091  0.2272
 9079TIP3   OH251431   5.570   3.967  11.283  0.0939  0.6546  0.4122
 9079TIP3    H151432   5.484   3.927  11.301  0.4137  0.8938  2.8481
 9079TIP3    H251433   5.618   3.958  11.365  2.6717 -0.0023 -1.0449
 9080TIP3   OH251434   2.511   3.466   9.112 -0.1906 -0.2260  0.5194
 9080TIP3    H151435   2.437   3.514   9.148  0.3058  1.2188 -0.3430
 9080TIP3    H251436   2.514   3.490   9.020  1.9553  0.5723  0.7379
 9081TIP3   OH251437   3.780   0.646   9.850 -0.5717 -0.2563  0.1138
 9081TIP3    H151438   3.737   0.681   9.772 -0.5718  0.2725  0.3504
 9081TIP3    H251439   3.756   0.707   9.920  2.8330  1.7178 -0.2381
 9082TIP3   OH251440   3.833   0.377   9.889  1.0171 -0.5046  0.3916
 9082TIP3    H151441   3.808   0.469   9.880 -0.6189 -1.0323 -0.8148
 9082TIP3    H251442   3.912   0.368   9.836 -0.1614 -0.2771 -1.4986
 9083TIP3   OH251443   6.520   3.038   8.723  0.4397  0.1542 -0.3296
 9083TIP3    H151444   6.587   3.036   8.791 -0.1718  1.9417  0.3920
 9083TIP3    H251445   6.491   3.129   8.721 -1.9142 -0.5506 -0.6808
 9084TIP3   OH251446   5.367   5.494   8.850  0.1255 -0.2661 -0.1719
 9084TIP3    H151447   5.303   5.547   8.897 -0.5982 -1.2430 -0.0302
 9084TIP3    H251448   5.339   5.499   8.759 -0.2043 -0.7474 -0.1010
 9085TIP3   OH251449   3.213   4.817  12.151  0.1905 -0.2053  0.2087
 9085TIP3    H151450   3.270   4.762  12.205  0.6387 -0.3937 -0.4367
 9085TIP3    H251451   3.260   4.901  12.145  0.3957 -0.3474 -0.2890
 9086TIP3   OH251452   5.083   6.260  11.636 -0.5336  0.1880 -0.1192
 9086TIP3    H151453   5.055   6.188  11.692  0.4166 -0.0290  0.0909
 9086TIP3    H251454   5.175   6.273  11.658 -0.5114  1.0038 -0.6612
 9087TIP3   OH251455   2.124   4.325   9.856  0.5276 -0.5540  0.3023
 9087TIP3    H151456   2.095   4.280   9.777  0.2503 -0.5317  0.3871
 9087TIP3    H251457   2.219   4.318   9.855  0.5719 -0.0097 -0.3564
 9088TIP3   OH251458   1.469   4.611  10.159  0.0260 -0.2223 -0.3460
 9088TIP3    H151459   1.473   4.704  10.178  0.4294 -0.1535 -0.7527
 9088TIP3    H251460   1.557   4.579  10.177 -0.6314 -0.9448  1.8876
 9089TIP3   OH251461   4.656   1.954  10.896 -0.2120  0.3746  0.0496
 9089TIP3    H151462   4.567   1.977  10.866 -0.2282 -1.0658 -1.1480
 9089TIP3    H251463   4.646   1.935  10.989 -1.8506 -2.7215 -0.6417
 9090TIP3   OH251464   4.337   2.038  11.168 -0.2838 -0.5517  0.5340
 9090TIP3    H151465   4.330   2.062  11.261 -2.0598 -2.0412  0.8337
 9090TIP3    H251466   4.419   1.988  11.162 -1.5031 -2.8949  1.9401
 9091TIP3   OH251467   0.237   5.766  11.625 -0.0259  0.2017 -0.0113
 9091TIP3    H151468   0.152   5.743  11.586 -0.7368 -0.1237  1.6353
 9091TIP3    H251469   0.214   5.809  11.708  1.4229  0.1705  0.4258
 9092TIP3   OH251470   5.854   2.404  11.530  0.2691 -0.0210 -0.1639
 9092TIP3    H151471   5.916   2.358  11.586 -0.4675  0.5197  1.1159
 9092TIP3    H251472   5.776   2.416  11.583 -0.9512 -0.6326 -1.7224
 9093TIP3   OH251473   4.073   3.926  10.623 -0.0522 -0.4829 -0.0608
 9093TIP3    H151474   4.144   3.929  10.688 -0.7897 -0.6144  0.7782
 9093TIP3    H251475   3.993   3.937  10.675 -0.5790  1.0727 -1.1542
 9094TIP3   OH251476   6.052   2.336   8.686 -0.0238 -0.2195  0.0706
 9094TIP3    H151477   6.094   2.262   8.729  0.5022 -0.6207 -1.1082
 9094TIP3    H251478   6.115   2.408   8.696 -0.0184 -0.2410  0.1927
 9095TIP3   OH251479   3.906   1.032   9.985 -0.6825 -0.3456  0.5236
 9095TIP3    H151480   3.830   0.976  10.000 -0.6099 -0.5434  0.1648
 9095TIP3    H251481   3.869   1.118   9.963 -0.8172 -0.6060 -0.3035
 9096TIP3   OH251482   4.436   3.784   9.494 -0.2306  0.5217 -0.2100
 9096TIP3    H151483   4.437   3.841   9.417  1.3137 -1.9176 -2.1520
 9096TIP3    H251484   4.409   3.699   9.461  2.7795 -1.2229  1.3447
 9097TIP3   OH251485   0.584   2.228   9.982  0.3976  0.5434 -0.0982
 9097TIP3    H151486   0.534   2.203  10.060 -0.6719 -0.0849 -0.9540
 9097TIP3    H251487   0.535   2.303   9.946 -0.1561 -0.2961 -1.1395
 9098TIP3   OH251488   0.918   5.569  10.887  0.0563  0.1880  0.8584
 9098TIP3    H151489   0.836   5.613  10.863  0.3540  1.3323  1.8391
 9098TIP3    H251490   0.891   5.501  10.949 -0.5395 -1.8561 -1.4495
 9099TIP3   OH251491   4.385   0.894   9.553 -0.0576  0.2434 -0.0809
 9099TIP3    H151492   4.441   0.824   9.588 -0.5434  0.0451  0.3210
 9099TIP3    H251493   4.395   0.888   9.458 -1.3322 -1.4457 -0.1636
 9100TIP3   OH251494   6.784   1.831  10.590 -0.4182  1.0429  0.3064
 9100TIP3    H151495   6.788   1.744  10.552  1.2882  1.1618  0.1094
 9100TIP3    H251496   6.694   1.842  10.619 -0.6886 -0.7236  0.1963
 9101TIP3   OH251497   6.749   0.144  11.558 -0.3513  0.0881  0.3167
 9101TIP3    H151498   6.696   0.089  11.501  1.0713 -2.4018  1.2256
 9101TIP3    H251499   6.688   0.210  11.593 -1.6868  0.3861 -2.3712
 9102TIP3   OH251500   4.149   1.695   9.519  0.3180  0.2637 -0.1717
 9102TIP3    H151501   4.085   1.760   9.549  0.4568  0.2605  0.1377
 9102TIP3    H251502   4.184   1.658   9.600 -1.7721 -2.1886 -0.2421
 9103TIP3   OH251503   5.002   3.450  11.640 -0.4966 -0.0500  0.3053
 9103TIP3    H151504   4.964   3.415  11.559 -0.0088  2.3147 -1.0624
 9103TIP3    H251505   5.095   3.462  11.619  0.0930 -1.3676  1.9891
 9104TIP3   OH251506   3.241   1.813   9.197 -0.1769 -0.2934 -0.1909
 9104TIP3    H151507   3.253   1.841   9.106 -1.0314  1.2948  0.1410
 9104TIP3    H251508   3.147   1.826   9.213  0.1444  0.4766  1.2154
 9105TIP3   OH251509   4.387   0.113  11.556 -0.2054 -0.4443  0.2200
 9105TIP3    H151510   4.476   0.103  11.591 -0.3487 -0.3296  0.6162
 9105TIP3    H251511   4.338   0.156  11.626 -0.3946  0.1481 -0.2709
 9106TIP3   OH251512   1.629   6.776   8.948  0.2890  0.2085  0.2589
 9106TIP3    H151513   1.627   6.813   9.036  0.6945  0.8893 -0.0080
 9106TIP3    H251514   1.572   6.833   8.897  1.7982  1.1877 -0.4125
 9107TIP3   OH251515   4.235   1.398   9.454  0.0327 -0.4529 -0.5924
 9107TIP3    H151516   4.199   1.355   9.376  0.3708  1.2089 -1.7261
 9107TIP3    H251517   4.205   1.489   9.447  0.2339 -0.2290  1.1314
 9108TIP3   OH251518   1.247   4.601  11.654  0.5518  0.3829  0.1328
 9108TIP3    H151519   1.183   4.635  11.717  1.0113  0.3490  0.6197
 9108TIP3    H251520   1.326   4.652  11.670  1.0960 -0.5632  0.5223
 9109TIP3   OH251521   3.976   2.776   9.678  0.4427  0.1215  0.2205
 9109TIP3    H151522   3.988   2.709   9.745  1.5411 -1.1763 -1.2201
 9109TIP3    H251523   4.049   2.836   9.691  0.0880  0.4373  0.7998
 9110TIP3   OH251524   5.998   2.905  11.382 -0.4868 -0.0739 -0.6158
 9110TIP3    H151525   5.991   2.817  11.346 -2.4770  0.9684 -3.1077
 9110TIP3    H251526   6.056   2.951  11.321 -3.7972  1.6868 -2.7814
 9111TIP3   OH251527   6.007   1.115  10.764  0.6211  0.6968  0.3901
 9111TIP3    H151528   5.981   1.207  10.754  0.7223  0.8203  1.2582
 9111TIP3    H251529   6.073   1.102  10.696  1.4462  1.5887  0.9959
 9112TIP3   OH251530   6.342   6.720   8.994  0.1242 -0.4399 -0.0356
 9112TIP3    H151531   6.342   6.625   8.981 -1.6782 -0.7718  1.8061
 9112TIP3    H251532   6.254   6.748   8.968 -0.0103  0.3971  1.2381
 9113TIP3   OH251533   1.415   3.529   8.787  0.1962  0.4386 -0.0450
 9113TIP3    H151534   1.353   3.507   8.857  2.3979 -0.4671  1.7418
 9113TIP3    H251535   1.408   3.456   8.725 -1.0329  0.7360 -0.2874
 9114TIP3   OH251536   0.645   6.729  10.760 -0.0438 -0.3294  0.2641
 9114TIP3    H151537   0.557   6.693  10.750 -0.5587  1.1666 -1.1199
 9114TIP3    H251538   0.658   6.784  10.683  1.8596  0.0201  0.7636
 9115TIP3   OH251539   1.609   1.986  10.269 -0.5817  0.8057 -0.3153
 9115TIP3    H151540   1.521   1.968  10.304  0.2543  0.7533  1.9537
 9115TIP3    H251541   1.642   2.057  10.325  0.9211  0.6381 -0.9489
 9116TIP3   OH251542   2.297   0.624   9.584  0.8071  0.4257 -0.5900
 9116TIP3    H151543   2.245   0.682   9.528 -1.0754 -1.2972 -0.7425
 9116TIP3    H251544   2.232   0.576   9.635  2.2019 -2.1576 -1.0990
 9117TIP3   OH251545   1.403   3.483   9.193 -0.0887  0.0529  0.1688
 9117TIP3    H151546   1.491   3.450   9.213 -1.1224 -1.7121  2.3267
 9117TIP3    H251547   1.416   3.575   9.169  2.3074 -0.0458  0.8567
 9118TIP3   OH251548   3.152   6.293  10.908 -0.6014  0.2515 -0.3338
 9118TIP3    H151549   3.109   6.219  10.864  0.4736 -1.1667  0.8965
 9118TIP3    H251550   3.082   6.336  10.958 -1.2959  0.2688 -1.3034
 9119TIP3   OH251551   3.600   3.376  10.131  0.3931  0.4116  0.3792
 9119TIP3    H151552   3.656   3.450  10.107  0.4572  0.6632  1.2627
 9119TIP3    H251553   3.521   3.416  10.166  0.2328  0.0661  0.4172
 9120TIP3   OH251554   4.483   0.650   9.986  0.0476  0.0799  0.5149
 9120TIP3    H151555   4.548   0.692  10.042 -0.6208  1.0359  0.5950
 9120TIP3    H251556   4.399   0.670  10.027 -0.4355  0.5793 -0.6655
 9121TIP3   OH251557   1.873   2.924   9.467 -0.1626  0.5936  0.1458
 9121TIP3    H151558   1.826   2.940   9.385  1.1706 -1.3730 -1.0931
 9121TIP3    H251559   1.833   2.844   9.502 -0.9926  1.6402  1.6757
 9122TIP3   OH251560   0.619   2.844   9.367 -0.0066 -0.7278  0.0537
 9122TIP3    H151561   0.577   2.900   9.302  0.4601 -0.8118 -0.3279
 9122TIP3    H251562   0.591   2.880   9.451  1.2423  0.8513 -0.1607
 9123TIP3   OH251563   0.338   1.873   9.403  0.1011  0.0249 -0.4299
 9123TIP3    H151564   0.318   1.810   9.473 -0.6161  2.1369  1.3937
 9123TIP3    H251565   0.271   1.940   9.412  1.6996  1.8181 -1.2827
 9124TIP3   OH251566   3.625   1.284   9.671 -0.1628  0.5560 -0.2990
 9124TIP3    H151567   3.615   1.373   9.638 -1.2190  0.8106  0.6418
 9124TIP3    H251568   3.601   1.228   9.597 -3.1223  1.1172  0.1022
 9125TIP3   OH251569   2.968   2.208  11.333 -0.1404  0.5660 -0.6661
 9125TIP3    H151570   2.942   2.290  11.291 -0.4959  1.1777  0.6918
 9125TIP3    H251571   2.894   2.184  11.388 -0.7874 -1.6669 -2.3700
 9126TIP3   OH251572   3.239   2.323  10.003 -0.0214 -0.1890 -0.0808
 9126TIP3    H151573   3.236   2.290  10.093 -0.3208 -2.5653 -0.8993
 9126TIP3    H251574   3.315   2.279   9.964 -1.5832 -1.5686 -1.7888
 9127TIP3   OH251575   0.061   6.196   9.131  0.5493  0.3576  0.0532
 9127TIP3    H151576   0.031   6.275   9.175 -0.1370  0.3304 -0.3578
 9127TIP3    H251577   0.155   6.210   9.117  0.0304  2.1035 -2.1023
 9128TIP3   OH251578   1.620   1.835  10.005  0.5772  0.3379  0.3174
 9128TIP3    H151579   1.712   1.822   9.983  0.6301  0.4352  0.4777
 9128TIP3    H251580   1.622   1.893  10.081  0.3984 -0.1081  0.6626
 9129TIP3   OH251581   3.950   0.274  10.270  0.4770 -0.0916  0.6313
 9129TIP3    H151582   3.901   0.192  10.260  0.0438  0.1698  0.5817
 9129TIP3    H251583   3.883   0.340  10.287  0.2515  1.0949 -3.6790
 9130TIP3   OH251584   2.997   3.198  12.176 -0.4275 -0.2393  0.4519
 9130TIP3    H151585   2.963   3.151  12.252  1.3089 -2.7884 -0.1822
 9130TIP3    H251586   2.980   3.139  12.102  2.7887 -0.5218 -0.2517
 9131TIP3   OH251587   4.229   5.272  11.451 -0.2568 -0.3897 -0.6585
 9131TIP3    H151588   4.207   5.243  11.363 -0.1742  1.3151 -1.2820
 9131TIP3    H251589   4.237   5.191  11.502 -0.0807 -1.4139 -2.2521
 9132TIP3   OH251590   6.623   5.278  11.413 -0.4313 -0.0522  0.4685
 9132TIP3    H151591   6.564   5.300  11.485 -0.4908  1.5867 -0.0398
 9132TIP3    H251592   6.565   5.255  11.341 -0.5041  1.3863  0.0236
 9133TIP3   OH251593   2.181   3.133  10.525  0.1248  0.6155 -0.5716
 9133TIP3    H151594   2.202   3.168  10.439 -0.5505  2.0954 -0.1638
 9133TIP3    H251595   2.136   3.205  10.570  0.5628 -0.0838  1.0550
 9134TIP3   OH251596   3.138   0.399  11.069 -0.2442 -0.6068 -0.2609
 9134TIP3    H151597   3.175   0.314  11.095  0.2832 -0.3383 -0.1225
 9134TIP3    H251598   3.212   0.459  11.073 -0.6766 -0.0826 -0.1079
 9135TIP3   OH251599   1.739   2.001  11.771  0.6720  0.7507  0.4358
 9135TIP3    H151600   1.745   1.972  11.862  0.9685  0.4898  0.3361
 9135TIP3    H251601   1.791   1.937  11.722 -2.5155 -1.3439 -0.4564
 9136TIP3   OH251602   1.934   2.043  11.271  0.1248  0.7224  0.5601
 9136TIP3    H151603   1.905   2.112  11.212  0.6793  1.3630  1.0235
 9136TIP3    H251604   1.858   1.986  11.280 -0.5219  1.5738  0.6111
 9137TIP3   OH251605   5.517   3.099  11.101  0.6315  0.1370  0.1447
 9137TIP3    H151606   5.439   3.094  11.045  0.9070 -2.3578 -0.1256
 9137TIP3    H251607   5.522   3.013  11.142  1.7784  1.1305  2.2238
 9138TIP3   OH251608   3.632   0.436  11.524 -0.1265 -0.4518  0.4503
 9138TIP3    H151609   3.543   0.469  11.508 -0.1185 -1.3091 -1.8251
 9138TIP3    H251610   3.619   0.356  11.575 -0.8777 -1.4887 -1.2583
 9139TIP3   OH251611   1.838   4.454   8.505  0.5455  0.2534 -0.0637
 9139TIP3    H151612   1.766   4.454   8.441  1.0200 -2.4481 -0.7254
 9139TIP3    H251613   1.824   4.533   8.556 -2.4371  0.2699 -0.7004
 9140TIP3   OH251614   4.101   1.745  10.791 -0.8409  0.1352 -0.5283
 9140TIP3    H151615   4.122   1.820  10.735  2.1195 -0.6094 -0.6120
 9140TIP3    H251616   4.107   1.778  10.880  1.9233 -0.1394 -0.4953
 9141TIP3   OH251617   2.453   6.127  11.403  0.2110  0.3767  0.4378
 9141TIP3    H151618   2.360   6.121  11.422 -0.1378 -0.6814 -1.4349
 9141TIP3    H251619   2.469   6.220  11.388 -0.8380  0.3975 -0.6001
 9142TIP3   OH251620   0.562   5.798   9.775  0.2416 -0.2971  0.5437
 9142TIP3    H151621   0.555   5.706   9.799  2.4831 -0.1100  2.1997
 9142TIP3    H251622   0.537   5.800   9.682  0.5274 -2.6335  0.3445
 9143TIP3   OH251623   0.711   0.227  11.714  1.1473  0.1632 -0.7388
 9143TIP3    H151624   0.725   0.224  11.620  0.7278 -0.4056 -0.7828
 9143TIP3    H251625   0.638   0.288  11.725  1.3405  0.4011 -0.7622
 9144TIP3   OH251626   5.884   5.435   9.859 -0.3482  0.4917 -0.1007
 9144TIP3    H151627   5.968   5.392   9.842 -1.1312 -1.6510  1.1637
 9144TIP3    H251628   5.819   5.378   9.817 -1.3453  0.9998  0.7215
 9145TIP3   OH251629   0.808   0.702  10.152 -0.5981  0.2164  0.2747
 9145TIP3    H151630   0.773   0.754  10.225  1.3930  0.9206  0.7946
 9145TIP3    H251631   0.838   0.620  10.192 -2.8886 -1.0344 -0.4016
 9146TIP3   OH251632   6.540   4.074  11.036 -0.0162  0.1991  0.0075
 9146TIP3    H151633   6.455   4.112  11.012  0.7631  1.2148 -1.3152
 9146TIP3    H251634   6.562   4.018  10.961  0.2010 -0.5491  0.6255
 9147TIP3   OH251635   4.881   5.872   9.137 -0.1865 -0.0997 -0.2971
 9147TIP3    H151636   4.947   5.806   9.157 -0.9994 -1.4377 -1.8345
 9147TIP3    H251637   4.917   5.920   9.063 -1.3605 -1.6342 -1.9638
 9148TIP3   OH251638   6.384   5.392   8.846  0.1108  0.4039 -0.1064
 9148TIP3    H151639   6.336   5.364   8.767  2.3789 -1.3904 -0.9413
 9148TIP3    H251640   6.348   5.338   8.916 -0.6105  0.6597 -0.2694
 9149TIP3   OH251641   2.658   4.533  10.969  0.1046 -0.5339  0.0029
 9149TIP3    H151642   2.689   4.601  10.908 -2.2014 -1.7748 -2.7684
 9149TIP3    H251643   2.571   4.562  10.996 -0.1109 -1.4501  0.3298
 9150TIP3   OH251644   0.059   4.349   9.535  0.3151 -0.1492 -0.3716
 9150TIP3    H151645  -0.028   4.387   9.531  0.4400  0.1020 -0.7669
 9150TIP3    H251646   0.080   4.327   9.445  0.6251 -0.2908 -0.2672
 9151TIP3   OH251647   5.801   0.623   9.227  0.2865 -0.3990  0.0669
 9151TIP3    H151648   5.896   0.637   9.231  0.3560 -0.6282 -0.6358
 9151TIP3    H251649   5.764   0.712   9.226  0.4544 -0.3135  1.0635
 9152TIP3   OH251650   5.702   2.400   9.900 -0.2169 -0.2722 -0.2476
 9152TIP3    H151651   5.671   2.430   9.985  0.3626 -1.7152  0.5184
 9152TIP3    H251652   5.727   2.480   9.854  0.0767  0.4981  1.1851
 9153TIP3   OH251653   6.460   4.410   9.213 -0.0848 -0.1840  0.4854
 9153TIP3    H151654   6.530   4.465   9.246  0.5753 -0.2767 -0.7180
 9153TIP3    H251655   6.408   4.467   9.156  0.9872 -0.9201 -1.2963
 9154TIP3   OH251656   4.892   4.205   9.689 -0.1313 -0.1031  0.3224
 9154TIP3    H151657   4.879   4.113   9.668  1.1819  0.1735 -2.0554
 9154TIP3    H251658   4.978   4.208   9.732  0.8746  0.1849 -1.5922
 9155TIP3   OH251659   6.655   5.389   9.132 -0.2175  0.2082  0.0129
 9155TIP3    H151660   6.640   5.341   9.213  1.8287  1.1938  1.0408
 9155TIP3    H251661   6.595   5.463   9.136 -0.5643 -0.0884  0.3198
 9156TIP3   OH251662   5.288   3.906  11.172 -0.0137  0.0134  0.1582
 9156TIP3    H151663   5.272   3.840  11.240  1.2256  0.5408  1.0020
 9156TIP3    H251664   5.201   3.942  11.153 -0.4757 -0.6255  0.9691
 9157TIP3   OH251665   1.399   5.209  11.493  0.3177 -0.4030 -0.0205
 9157TIP3    H151666   1.393   5.304  11.507 -0.6865 -0.2162 -1.4746
 9157TIP3    H251667   1.309   5.182  11.473  0.1971 -2.0452  2.3759
 9158TIP3   OH251668   4.252   0.711  10.105  0.2263  0.2192 -0.2013
 9158TIP3    H151669   4.180   0.654  10.077  0.2812  0.4702 -0.8653
 9158TIP3    H251670   4.237   0.723  10.199  0.7995 -1.7331  0.1956
 9159TIP3   OH251671   4.901   2.567  10.983  0.2801 -0.1024 -0.3634
 9159TIP3    H151672   4.965   2.597  10.918  0.4688  0.5709  0.1151
 9159TIP3    H251673   4.828   2.533  10.931  0.9023 -0.6200 -0.9149
 9160TIP3   OH251674   3.574   3.910  12.311  0.2176  0.1432  0.0425
 9160TIP3    H151675   3.570   3.974  12.382 -2.5004 -0.5383  0.6417
 9160TIP3    H251676   3.485   3.909  12.275  0.8024 -1.5743 -1.5222
 9161TIP3   OH251677   0.518   4.296  11.089  0.0089 -0.4314  0.0658
 9161TIP3    H151678   0.534   4.366  11.025 -0.2842 -0.1396  0.3023
 9161TIP3    H251679   0.572   4.320  11.165  1.5841 -1.6158 -0.6405
 9162TIP3   OH251680   2.442   3.061  11.622 -0.6189 -0.3649  0.0943
 9162TIP3    H151681   2.402   3.054  11.535 -4.3466 -3.1846  1.7444
 9162TIP3    H251682   2.388   3.126  11.668  0.3241 -0.0368  0.7616
 9163TIP3   OH251683   6.094   5.809  10.156 -0.0678  0.7782  0.0086
 9163TIP3    H151684   6.140   5.726  10.156 -0.1826  0.7049 -0.6721
 9163TIP3    H251685   6.125   5.855  10.234 -0.1983 -0.0020  0.5282
 9164TIP3   OH251686   2.456   2.715   9.454  0.4527 -0.4865  0.6377
 9164TIP3    H151687   2.428   2.639   9.505  0.9358 -0.5627  0.7925
 9164TIP3    H251688   2.394   2.784   9.477 -2.1633 -1.7326 -2.0550
 9165TIP3   OH251689   6.392   6.084   9.850  0.1764 -0.3334  0.3894
 9165TIP3    H151690   6.481   6.066   9.822  0.3614  1.6391 -0.4139
 9165TIP3    H251691   6.358   5.999   9.879  2.0558 -1.2409  0.0356
 9166TIP3   OH251692   2.991   1.942  11.091  0.0381  0.5045  0.2182
 9166TIP3    H151693   2.921   1.952  11.156  1.0323  0.2812  1.3630
 9166TIP3    H251694   3.030   1.857  11.111 -0.3391 -0.0846 -1.4150
 9167TIP3   OH251695   4.536   2.685   8.959 -0.3388 -0.1065 -0.0001
 9167TIP3    H151696   4.568   2.602   8.924  0.4886 -0.3666  1.2955
 9167TIP3    H251697   4.615   2.732   8.986 -0.8270  0.9034 -0.2509
 9168TIP3   OH251698   3.780   2.880  10.125  0.2681 -0.5743 -0.1117
 9168TIP3    H151699   3.794   2.839  10.210  1.7981 -0.7048 -0.3955
 9168TIP3    H251700   3.856   2.937  10.113 -0.2051 -0.1304 -1.1464
 9169TIP3   OH251701   3.729   2.168   9.462  0.1393  0.0965 -0.3122
 9169TIP3    H151702   3.754   2.095   9.519 -2.2766 -0.3661  0.2574
 9169TIP3    H251703   3.805   2.226   9.463  0.7759 -0.6730  2.1148
 9170TIP3   OH251704   4.499   0.770  11.425  0.3862 -0.4717  1.2466
 9170TIP3    H151705   4.525   0.852  11.467  2.4204  0.6379 -1.8674
 9170TIP3    H251706   4.446   0.796  11.350  1.2945 -1.9479  0.0300
 9171TIP3   OH251707   0.216   3.896  10.937  0.3260 -0.9447  0.1799
 9171TIP3    H151708   0.272   3.954  10.989 -0.6601  0.2825 -0.0787
 9171TIP3    H251709   0.233   3.809  10.972  0.5961 -0.2994  1.7216
 9172TIP3   OH251710   5.263   0.131   9.892  0.4337  0.1759  0.5146
 9172TIP3    H151711   5.170   0.128   9.912  0.3363 -0.5648 -0.0204
 9172TIP3    H251712   5.289   0.221   9.911 -0.7765  0.9066 -1.0372
 9173TIP3   OH251713   5.447   3.727   9.604 -0.2967  0.3841  0.1105
 9173TIP3    H151714   5.464   3.792   9.535 -1.5978  2.9037  2.0094
 9173TIP3    H251715   5.352   3.722   9.610 -0.2388 -1.7546  0.0610
 9174TIP3   OH251716   4.201   2.313  10.211  0.0318  0.1444  0.1761
 9174TIP3    H151717   4.178   2.233  10.258 -0.0381  0.3025  0.4171
 9174TIP3    H251718   4.190   2.382  10.277  0.9724  0.2520  0.2247
 9175TIP3   OH251719   6.150   3.241  10.904  0.5864  0.3115  0.3406
 9175TIP3    H151720   6.210   3.178  10.864 -0.0643 -0.6695  0.8797
 9175TIP3    H251721   6.124   3.200  10.986  0.7007  1.6071  1.0464
 9176TIP3   OH251722   5.208   4.749   8.884  0.6679  0.3282  0.0193
 9176TIP3    H151723   5.255   4.754   8.967 -0.5450  1.2364  0.6869
 9176TIP3    H251724   5.206   4.839   8.852 -0.8837  0.3796  0.1821
 9177TIP3   OH251725   1.696   5.189  11.495 -0.1056 -0.4760  0.1706
 9177TIP3    H151726   1.609   5.218  11.524 -0.6214  0.6693 -2.2891
 9177TIP3    H251727   1.714   5.112  11.549 -1.5238  0.6849  2.4675
 9178TIP3   OH251728   4.939   4.987  11.925  0.2465  0.0379  0.0884
 9178TIP3    H151729   4.884   4.934  11.983  0.8597  0.2936  0.9169
 9178TIP3    H251730   4.994   5.038  11.984  1.4626 -0.2987 -0.7175
 9179TIP3   OH251731   6.675   3.889   9.968 -0.4523  0.0414 -0.0543
 9179TIP3    H151732   6.628   3.924  10.044 -0.4837 -0.2805  0.0781
 9179TIP3    H251733   6.731   3.820  10.005 -0.9426 -0.5589 -0.4057
 9180TIP3   OH251734   1.896   0.083  10.224 -0.1772  0.1982  0.4820
 9180TIP3    H151735   1.833   0.092  10.296  0.8864  2.9712  1.2030
 9180TIP3    H251736   1.962   0.022  10.257  0.5515  1.7949  2.1429
 9181TIP3   OH251737   0.876   6.526  11.177 -0.3600  0.2214 -0.7831
 9181TIP3    H151738   0.915   6.588  11.238  0.3692 -0.9795 -0.0064
 9181TIP3    H251739   0.824   6.468  11.231  0.0544 -0.6768 -1.3292
 9182TIP3   OH251740   3.789   5.946  10.636  0.0271 -0.1179  0.2021
 9182TIP3    H151741   3.855   6.006  10.600 -0.5884  0.2607 -0.3130
 9182TIP3    H251742   3.769   5.887  10.563 -0.1861 -0.2500  0.3689
 9183TIP3   OH251743   5.260   6.704   9.583 -0.1161  0.0757 -0.6487
 9183TIP3    H151744   5.313   6.624   9.578  0.6701  0.5668 -0.3324
 9183TIP3    H251745   5.229   6.706   9.673 -0.0204  0.1977 -0.6181
 9184TIP3   OH251746   3.335   5.475   9.165 -0.8854 -0.0205 -0.0831
 9184TIP3    H151747   3.352   5.413   9.094 -0.7407  0.6514 -0.6388
 9184TIP3    H251748   3.422   5.508   9.188 -1.2171  2.3423 -1.9450
 9185TIP3   OH251749   2.806   5.381  10.238  0.0186  0.3964 -0.3196
 9185TIP3    H151750   2.747   5.432  10.182  0.5722  2.4250  0.8439
 9185TIP3    H251751   2.878   5.356  10.180  0.0357  1.4973 -0.8012
 9186TIP3   OH251752   2.299   4.988   9.934 -0.5008  0.4547  0.0141
 9186TIP3    H151753   2.294   4.894   9.917 -1.0036  0.6970 -1.2738
 9186TIP3    H251754   2.390   5.002   9.961 -0.2161 -0.2862 -0.5199
 9187TIP3   OH251755   0.981   3.700   9.533 -0.3311 -0.2012  0.1747
 9187TIP3    H151756   1.004   3.621   9.581 -0.3885 -0.0905  0.3853
 9187TIP3    H251757   0.886   3.694   9.520 -0.2481 -0.4506 -0.3203
 9188TIP3   OH251758   6.589   0.564  10.197  0.0501 -0.3216  0.0173
 9188TIP3    H151759   6.562   0.561  10.288 -0.6963 -2.9578 -0.2021
 9188TIP3    H251760   6.684   0.548  10.199 -0.0004 -0.5782  0.3243
 9189TIP3   OH251761   1.876   3.015   9.190 -0.0478 -0.3409 -0.6802
 9189TIP3    H151762   1.827   3.096   9.180  0.2681  0.0931  1.0335
 9189TIP3    H251763   1.867   2.971   9.105 -0.6948  1.2024 -1.4465
 9190TIP3   OH251764   2.386   4.527  12.006 -0.1266  0.4375 -0.0810
 9190TIP3    H151765   2.332   4.600  12.036  1.3190  1.4272  0.2036
 9190TIP3    H251766   2.337   4.449  12.033 -2.1933  1.2398 -1.2645
 9191TIP3   OH251767   6.590   2.435  10.019 -0.6733 -0.2553  0.6149
 9191TIP3    H151768   6.538   2.358   9.996 -0.0829 -1.2721  2.4827
 9191TIP3    H251769   6.610   2.424  10.112  1.7700  0.7523  0.2791
 9192TIP3   OH251770   1.209   3.923  10.490  0.3804 -0.3394 -0.3044
 9192TIP3    H151771   1.177   3.838  10.458  0.5076 -0.0720 -1.1680
 9192TIP3    H251772   1.140   3.985  10.466  0.4407 -0.1483  0.0193
 9193TIP3   OH251773   2.783   2.774  11.489 -0.9276  0.1529  0.2910
 9193TIP3    H151774   2.718   2.780  11.560  0.1371 -0.6822  1.3740
 9193TIP3    H251775   2.834   2.696  11.510 -0.7125 -0.2376 -1.5343
 9194TIP3   OH251776   3.774   3.299  12.188  0.2504  0.2931  0.0996
 9194TIP3    H151777   3.826   3.219  12.184 -2.2657 -1.4475 -0.1231
 9194TIP3    H251778   3.728   3.294  12.272 -2.2045 -0.0810 -1.1841
 9195TIP3   OH251779   2.052   3.723   9.219 -0.6361 -0.0960 -0.2091
 9195TIP3    H151780   2.017   3.811   9.233  1.9414  0.7604  1.7226
 9195TIP3    H251781   2.018   3.671   9.291 -0.0443  0.0428  0.1749
 9196TIP3   OH251782   4.145   4.788   9.988  0.3151 -0.0597  0.0260
 9196TIP3    H151783   4.148   4.772   9.894  1.9540  2.1207 -0.3850
 9196TIP3    H251784   4.175   4.707  10.028  1.5598 -0.3606 -1.4572
 9197TIP3   OH251785   4.804   5.235  10.744  0.2416  0.1446  0.0922
 9197TIP3    H151786   4.898   5.240  10.725  0.1044 -2.0726 -1.5841
 9197TIP3    H251787   4.793   5.148  10.783 -1.3966 -0.6444 -1.9802
 9198TIP3   OH251788   1.016   6.645   8.529 -0.2311 -0.0507  0.2603
 9198TIP3    H151789   1.088   6.665   8.468 -1.1914 -0.0094 -0.9111
 9198TIP3    H251790   1.021   6.550   8.541  1.2601  0.1849  1.8396
 9199TIP3   OH251791   3.909   4.687  12.071 -0.3174 -0.0212  0.1206
 9199TIP3    H151792   3.931   4.780  12.081  1.1308 -0.4407  1.1421
 9199TIP3    H251793   3.863   4.665  12.153  0.2591 -0.4448  0.3333
 9200TIP3   OH251794   1.187   6.083   9.891  0.9776  0.4912 -0.2514
 9200TIP3    H151795   1.227   6.016   9.835  0.0160  0.9488 -1.5454
 9200TIP3    H251796   1.108   6.040   9.926  0.8583  0.6387 -0.3374
 9201TIP3   OH251797   0.034   4.231  11.122  0.3170 -0.2614  0.0846
 9201TIP3    H151798   0.025   4.327  11.123 -1.0562 -0.3559 -0.4887
 9201TIP3    H251799   0.054   4.210  11.031 -2.0522 -0.6625 -0.4274
 9202TIP3   OH251800   1.113   1.223   9.518  0.1513 -0.1407  0.1532
 9202TIP3    H151801   1.155   1.302   9.553 -0.2798  0.6004 -0.9486
 9202TIP3    H251802   1.083   1.249   9.431 -2.3254 -0.7200  0.7686
 9203TIP3   OH251803   2.403   1.850  10.833 -0.1557 -0.4639  0.2409
 9203TIP3    H151804   2.422   1.943  10.820  0.6477 -0.8455 -1.6452
 9203TIP3    H251805   2.487   1.812  10.860  0.6043 -1.2605 -2.9078
 9204TIP3   OH251806   0.968   2.678   9.421  0.6157 -0.6080 -0.7289
 9204TIP3    H151807   0.887   2.665   9.469  0.5299 -0.4599 -0.8325
 9204TIP3    H251808   1.037   2.662   9.485  0.4992 -0.0024 -0.4477
 9205TIP3   OH251809   3.698   2.671   9.969  0.3423  0.0961 -0.8217
 9205TIP3    H151810   3.731   2.754  10.003  1.4270 -0.6963  0.1318
 9205TIP3    H251811   3.774   2.613   9.970 -0.8323 -1.5011  0.4626
 9206TIP3   OH251812   1.561   6.043  11.185  0.0261  0.5225 -0.3376
 9206TIP3    H151813   1.562   5.981  11.112 -1.1441 -1.0249  0.8957
 9206TIP3    H251814   1.488   6.101  11.166 -1.1637 -0.7289  0.2125
 9207TIP3   OH251815   5.658   3.676   9.895  0.0247 -0.2582 -0.1015
 9207TIP3    H151816   5.620   3.717   9.972  0.2163 -0.4531  0.0999
 9207TIP3    H251817   5.625   3.727   9.821 -0.8447 -0.5966  0.0493
 9208TIP3   OH251818   3.285   6.141  11.813  0.2559 -0.3580 -0.3943
 9208TIP3    H151819   3.303   6.194  11.736 -0.7368 -1.4870 -1.4478
 9208TIP3    H251820   3.302   6.199  11.887 -1.0054  1.5130 -1.4809
 9209TIP3   OH251821   3.541   2.696  11.738 -0.0221  1.0238  0.0553
 9209TIP3    H151822   3.578   2.608  11.749  0.7224  1.0507 -1.7362
 9209TIP3    H251823   3.483   2.688  11.662 -0.2392  1.9968  0.1062
 9210TIP3   OH251824   1.422   1.176   9.544  0.1710 -0.2951  0.7358
 9210TIP3    H151825   1.435   1.197   9.452  1.5943 -0.8369  0.7950
 9210TIP3    H251826   1.350   1.233   9.572  0.1918  0.3714 -0.5243
 9211TIP3   OH251827   4.091   3.594  10.764  0.6231  0.3040 -0.2633
 9211TIP3    H151828   4.104   3.600  10.669  1.1085  0.2780 -0.2019
 9211TIP3    H251829   3.998   3.574  10.775  0.3952  1.0869 -0.7081
 9212TIP3   OH251830   4.307   6.150   8.757  0.0731 -0.1187 -0.9661
 9212TIP3    H151831   4.297   6.184   8.667 -0.7179  1.1624 -0.4281
 9212TIP3    H251832   4.380   6.200   8.793 -0.6405  0.5380 -0.3962
 9213TIP3   OH251833   0.714   6.647   9.556 -0.0554  0.4465 -0.2956
 9213TIP3    H151834   0.666   6.714   9.508 -0.9075  0.0764  0.0094
 9213TIP3    H251835   0.787   6.624   9.499 -1.2033 -0.1881 -1.5600
 9214TIP3   OH251836   3.892   5.516  10.145 -0.7764  0.0668  0.0273
 9214TIP3    H151837   3.860   5.473  10.225 -2.6250 -1.1299 -1.2635
 9214TIP3    H251838   3.934   5.596  10.176  0.5395 -1.3819  2.3556
 9215TIP3   OH251839   1.033   4.029   8.998  0.1986  0.5422 -0.8350
 9215TIP3    H151840   1.035   4.097   8.931 -2.9787  0.7777 -0.8493
 9215TIP3    H251841   1.014   3.948   8.950  1.5351  0.0343 -0.5553
 9216TIP3   OH251842   5.063   6.325   9.574 -0.1833 -0.3059  0.6913
 9216TIP3    H151843   5.069   6.375   9.493 -0.4537 -1.2117  0.0954
 9216TIP3    H251844   5.119   6.372   9.636  1.7718 -0.7697 -0.6301
 9217TIP3   OH251845   0.080   6.635   8.568  0.0100 -0.6643  0.4613
 9217TIP3    H151846   0.010   6.617   8.505 -0.9584 -0.0812  1.3414
 9217TIP3    H251847   0.035   6.669   8.645  1.4786  3.3819 -0.2375
 9218TIP3   OH251848   2.376   6.113   9.265 -0.0041 -0.1066  0.5710
 9218TIP3    H151849   2.348   6.122   9.356  1.1469 -0.3904  0.9823
 9218TIP3    H251850   2.452   6.054   9.270 -1.2741 -1.9904 -0.8280
 9219TIP3   OH251851   0.226   2.084   8.795  0.4073 -0.1102  0.1367
 9219TIP3    H151852   0.281   2.136   8.737  1.0180  1.7167  2.2424
 9219TIP3    H251853   0.269   1.998   8.797  0.6261 -0.0950 -1.6560
 9220TIP3   OH251854   0.263   4.215   8.807 -0.4955 -0.9366 -0.0250
 9220TIP3    H151855   0.302   4.165   8.735  1.0381  0.0241  0.0945
 9220TIP3    H251856   0.334   4.227   8.869 -0.9549  0.9444  0.1851
 9221TIP3   OH251857   4.387   5.123  12.578 -0.2148  0.2305 -0.5824
 9221TIP3    H151858   4.447   5.198  12.577  0.7859 -0.3806  2.6079
 9221TIP3    H251859   4.443   5.047  12.566 -0.5165 -0.2616  0.9532
 9222TIP3   OH251860   0.864   5.119   9.173  0.0803 -0.4812 -0.4713
 9222TIP3    H151861   0.871   5.201   9.222 -0.7825 -0.2007 -0.7991
 9222TIP3    H251862   0.793   5.134   9.111  2.0341 -0.3171 -2.8452
 9223TIP3   OH251863   1.731   5.412  11.644  0.2024 -0.3645 -0.0974
 9223TIP3    H151864   1.772   5.350  11.583  2.1235 -1.4059  2.0799
 9223TIP3    H251865   1.698   5.357  11.715 -2.2472  0.7783 -0.2608
 9224TIP3   OH251866   2.407   5.242  10.585 -0.1313 -0.3351  0.4036
 9224TIP3    H151867   2.403   5.150  10.612  1.4420  0.2023  2.7150
 9224TIP3    H251868   2.491   5.249  10.538  1.6828  0.5986  3.5204
 9225TIP3   OH251869   1.238   4.209  12.242  0.2696 -0.3399  0.3013
 9225TIP3    H151870   1.307   4.149  12.216 -1.4176 -2.6889  0.9538
 9225TIP3    H251871   1.157   4.166  12.216 -1.0372  1.8694  0.4280
 9226TIP3   OH251872   1.472   1.025   9.762  0.0738 -0.0856  0.4560
 9226TIP3    H151873   1.552   1.019   9.814  0.3115 -0.3352  0.0702
 9226TIP3    H251874   1.498   1.075   9.684 -0.4550  0.9225  0.9057
 9227TIP3   OH251875   5.593   0.774  10.673 -0.0549 -1.0145  0.3198
 9227TIP3    H151876   5.657   0.840  10.698 -1.3614  0.0635  0.9450
 9227TIP3    H251877   5.621   0.745  10.586  1.2334 -0.5288  0.5566
 9228TIP3   OH251878   3.271   3.733  11.591 -0.3129  0.1489  0.2426
 9228TIP3    H151879   3.201   3.703  11.533 -0.5757  1.0410  0.0891
 9228TIP3    H251880   3.334   3.776  11.533 -0.1264  0.2345  0.5050
 9229TIP3   OH251881   3.396   4.484   9.396 -0.0947 -0.4733 -0.7559
 9229TIP3    H151882   3.329   4.547   9.368 -1.2981 -0.8669  1.0912
 9229TIP3    H251883   3.412   4.430   9.318 -1.1974  0.2492 -1.5107
 9230TIP3   OH251884   0.671   5.695  10.208 -0.0704 -0.0663 -0.3623
 9230TIP3    H151885   0.668   5.661  10.118  0.9061  1.5843 -1.0740
 9230TIP3    H251886   0.765   5.708  10.225 -0.2678 -0.0669  0.7895
 9231TIP3   OH251887   2.138   4.012   9.182  0.3258 -0.4174  0.2609
 9231TIP3    H151888   2.166   3.969   9.101  1.6577 -0.6511  0.8187
 9231TIP3    H251889   2.060   4.061   9.158  0.7328 -0.4469 -1.1695
 9232TIP3   OH251890   2.999   2.379  10.756 -0.1876  0.6052  0.2805
 9232TIP3    H151891   2.940   2.334  10.696  0.3754  1.7873 -1.2140
 9232TIP3    H251892   2.990   2.331  10.839 -3.9178  1.2833  0.4282
 9233TIP3   OH251893   1.763   6.229  10.713 -0.3076  0.5461 -0.0407
 9233TIP3    H151894   1.795   6.273  10.634 -3.2943  2.1303 -0.5094
 9233TIP3    H251895   1.739   6.141  10.682 -0.4320  0.7913 -0.6674
 9234TIP3   OH251896   0.016   0.987   9.781 -0.5150  0.1353 -0.2075
 9234TIP3    H151897   0.036   0.898   9.753  0.9443 -0.0621  1.3495
 9234TIP3    H251898  -0.074   1.001   9.751 -0.7240 -1.7905 -0.6214
 9235TIP3   OH251899   1.478   4.860  11.986  0.3549  0.0469 -0.4438
 9235TIP3    H151900   1.506   4.789  12.044 -2.0609 -0.7532 -0.1468
 9235TIP3    H251901   1.474   4.820  11.899 -0.5849 -0.0904 -0.3473
 9236TIP3   OH251902   1.741   5.329  11.252  0.5816  0.4894 -0.4934
 9236TIP3    H151903   1.746   5.424  11.256 -0.1240  0.5171 -0.0297
 9236TIP3    H251904   1.715   5.303  11.341  0.1012 -0.0809 -0.7955
 9237TIP3   OH251905   1.341   4.065   9.811  0.5994 -0.1561 -0.3220
 9237TIP3    H151906   1.312   4.093   9.724  2.5258  0.0012 -0.9632
 9237TIP3    H251907   1.333   3.970   9.809  0.4089 -0.1349 -0.5919
 9238TIP3   OH251908   0.533   1.118   9.777  0.3853 -0.0159  0.1260
 9238TIP3    H151909   0.542   1.213   9.776 -0.6428  0.0873  0.2192
 9238TIP3    H251910   0.459   1.101   9.834  0.6222 -0.8825  0.1830
 9239TIP3   OH251911   1.057   4.547  11.947  0.5488  0.3156 -1.0054
 9239TIP3    H151912   1.080   4.634  11.915  1.5287  0.2207 -0.5820
 9239TIP3    H251913   0.986   4.562  12.009  0.8016  0.8234 -0.8386
 9240TIP3   OH251914   5.385   0.546  10.403  0.2788 -1.0500 -0.1181
 9240TIP3    H151915   5.434   0.628  10.392 -0.3842 -0.6053  0.1605
 9240TIP3    H251916   5.443   0.491  10.456  1.1692 -1.1602 -1.1702
 9241TIP3   OH251917   6.250   6.637  10.513  0.0367 -0.0282 -0.2119
 9241TIP3    H151918   6.205   6.708  10.559 -0.2102  0.1493 -0.7266
 9241TIP3    H251919   6.334   6.629  10.558 -0.7581 -0.8204  1.2136
 9242TIP3   OH251920   4.496   4.101   9.013  0.2590 -0.0556 -0.0485
 9242TIP3    H151921   4.407   4.068   8.998  0.0868  0.6443 -0.6313
 9242TIP3    H251922   4.548   4.023   9.031 -0.4719 -0.4750  0.2800
 9243TIP3   OH251923   2.854   0.965   9.642 -0.0913  0.2323  0.4297
 9243TIP3    H151924   2.917   0.912   9.592 -0.1913 -0.5442  1.1055
 9243TIP3    H251925   2.776   0.968   9.586 -0.5645 -1.4754  0.9235
 9244TIP3   OH251926   2.151   5.049  10.863  0.8281 -0.2520  0.0041
 9244TIP3    H151927   2.138   5.065  10.956  2.4393 -0.5156  0.3000
 9244TIP3    H251928   2.245   5.063  10.849  0.3277  1.8077 -1.9867
 9245TIP3   OH251929   3.122   3.069  12.693 -0.2376  0.1750 -0.0526
 9245TIP3    H151930   3.047   3.129  12.703  1.5023  2.5353 -0.3441
 9245TIP3    H251931   3.157   3.060  12.781 -1.0357 -1.2701  0.1542
 9246TIP3   OH251932   6.239   4.357  10.988  0.6867  0.0627 -0.3293
 9246TIP3    H151933   6.324   4.400  10.980  0.6725  0.6793  2.0689
 9246TIP3    H251934   6.202   4.360  10.899  1.2252  3.9393 -0.5902
 9247TIP3   OH251935   2.559   2.228  11.151 -0.0501 -0.2199  0.0065
 9247TIP3    H151936   2.603   2.266  11.227  1.1756 -0.9944 -0.2790
 9247TIP3    H251937   2.579   2.288  11.079  0.2440 -0.3861 -0.0510
 9248TIP3   OH251938   5.906   5.542   9.481 -0.4832 -0.4013 -0.0043
 9248TIP3    H151939   5.985   5.579   9.519  0.0256  0.2702 -1.6021
 9248TIP3    H251940   5.839   5.555   9.547  0.5826 -0.3026  1.0832
 9249TIP3   OH251941   1.181   1.657  10.462 -0.1205  0.4315  0.2683
 9249TIP3    H151942   1.086   1.642  10.459 -0.1103 -0.3516  2.4920
 9249TIP3    H251943   1.190   1.751  10.477 -0.4997  0.6355 -0.6910
 9250TIP3   OH251944   2.599   3.752  12.931 -0.0588 -0.1757 -0.5528
 9250TIP3    H151945   2.644   3.670  12.910  1.1967  0.8443 -2.1165
 9250TIP3    H251946   2.575   3.788  12.846 -2.0314  0.3371  0.1811
 9251TIP3   OH251947   3.037   0.606  10.170 -0.3091  0.4586 -0.3985
 9251TIP3    H151948   3.004   0.520  10.145  0.2988  0.1201 -0.0550
 9251TIP3    H251949   3.131   0.601  10.155 -0.4765  1.6629 -2.0818
 9252TIP3   OH251950   2.166   4.937   9.653 -0.1470 -0.4611 -0.1346
 9252TIP3    H151951   2.247   4.952   9.701 -0.0725 -2.0803  0.3080
 9252TIP3    H251952   2.170   4.997   9.579 -0.1238  1.9353  1.6894
 9253TIP3   OH251953   0.071   1.344  10.373  0.2985  0.4158  0.1139
 9253TIP3    H151954   0.049   1.437  10.381  0.2307  0.3573  0.6392
 9253TIP3    H251955   0.033   1.304  10.451  1.4729  0.1616  0.5647
 9254TIP3   OH251956   2.580   5.583   9.264  0.7791 -0.1541  0.4612
 9254TIP3    H151957   2.565   5.510   9.324 -0.8141 -0.4953 -0.3222
 9254TIP3    H251958   2.515   5.649   9.289  0.5792 -0.0058 -0.4209
 9255TIP3   OH251959   3.405   1.293  11.879  0.1946 -0.2894  0.6349
 9255TIP3    H151960   3.340   1.240  11.924  0.1727 -1.1535 -0.3884
 9255TIP3    H251961   3.442   1.236  11.812  1.5594  0.3824  0.7655
 9256TIP3   OH251962   2.959   3.945   9.979  0.2010  0.3509 -0.1793
 9256TIP3    H151963   2.893   3.883   9.949 -0.5326  2.1628 -2.7006
 9256TIP3    H251964   2.919   3.989  10.054 -1.2949  0.9874 -1.2944
 9257TIP3   OH251965   0.186   3.690  11.255 -0.0924  0.4815 -0.2568
 9257TIP3    H151966   0.244   3.765  11.241  0.0839  0.2445 -0.8137
 9257TIP3    H251967   0.105   3.713  11.210 -0.0134  0.3116 -0.4894
 9258TIP3   OH251968   6.781   6.000  10.838 -0.4424 -0.0198 -0.3542
 9258TIP3    H151969   6.686   5.993  10.828 -0.3095 -1.3295 -0.9705
 9258TIP3    H251970   6.813   6.024  10.751 -0.3054  2.0402  0.2148
 9259TIP3   OH251971   1.829   6.534   9.690  0.2964  0.1183  0.2422
 9259TIP3    H151972   1.787   6.515   9.774  0.4844  0.0185  0.3166
 9259TIP3    H251973   1.781   6.609   9.655  1.1529  1.1317  1.1440
 9260TIP3   OH251974   5.052   2.340  10.873 -0.1319 -0.2409 -0.7849
 9260TIP3    H151975   4.961   2.353  10.845  0.3000 -0.4358 -2.4048
 9260TIP3    H251976   5.094   2.424  10.858 -0.3694  0.3504  1.5142
 9261TIP3   OH251977   5.358   3.455  10.748 -0.0581  0.5957 -0.6251
 9261TIP3    H151978   5.264   3.439  10.733 -0.1465  0.0297  0.4395
 9261TIP3    H251979   5.364   3.484  10.839  0.8899 -0.3050 -0.3756
 9262TIP3   OH251980   0.410   2.051   9.646 -0.1046 -1.0172 -0.2120
 9262TIP3    H151981   0.377   2.002   9.571 -1.7433 -2.4168  1.3535
 9262TIP3    H251982   0.336   2.102   9.677  0.6086 -0.2838  0.3347
 9263TIP3   OH251983   1.083   4.086  10.107  0.2960 -0.6265  0.2324
 9263TIP3    H151984   1.068   4.002  10.062  1.2732 -1.4853  1.4378
 9263TIP3    H251985   1.013   4.091  10.172 -1.6467  1.0339 -1.8510
 9264TIP3   OH251986   1.892   0.029   9.592  0.3362  0.1726  0.0644
 9264TIP3    H151987   1.801   0.001   9.589  0.4582 -0.1424 -1.0435
 9264TIP3    H251988   1.919   0.014   9.683 -1.0598  1.4486  0.7266
 9265TIP3   OH251989   4.377   6.126   9.126 -0.2002  0.5070 -0.1196
 9265TIP3    H151990   4.381   6.059   9.194  3.5037  0.8043  0.1288
 9265TIP3    H251991   4.339   6.082   9.051 -0.5705 -1.0083  0.9035
 9266TIP3   OH251992   3.672   5.352  11.985  0.2624  0.2840 -0.2536
 9266TIP3    H151993   3.708   5.264  11.970  1.6523  0.2892  2.4051
 9266TIP3    H251994   3.586   5.336  12.023 -2.2404  0.2675 -5.1674
 9267TIP3   OH251995   2.758   2.358   9.246 -0.2918 -0.3196  0.3698
 9267TIP3    H151996   2.777   2.321   9.160 -0.8313 -0.8260  0.4630
 9267TIP3    H251997   2.805   2.441   9.247  0.6892 -0.8594  0.0420
 9268TIP3   OH251998   5.757   3.829  10.167 -0.2053  0.0379  0.2968
 9268TIP3    H151999   5.821   3.857  10.233  1.4768 -0.3966 -1.0656
 9268TIP3    H252000   5.810   3.787  10.099 -1.8418  0.6059 -1.4205
 9269TIP3   OH252001   4.702   0.986   9.164 -0.0006  0.1950 -1.1169
 9269TIP3    H152002   4.645   0.936   9.223 -1.2261  0.3580 -2.1143
 9269TIP3    H252003   4.790   0.967   9.194 -0.5909  0.2965  0.7828
 9270TIP3   OH252004   4.771   1.075   8.906 -0.2642 -0.4151  0.2677
 9270TIP3    H152005   4.866   1.075   8.918 -0.4171  1.5256  2.1312
 9270TIP3    H252006   4.736   1.067   8.994 -1.8594 -0.9356 -0.3774
 9271TIP3   OH252007   6.026   1.176   9.750  0.0283  0.4211 -0.7527
 9271TIP3    H152008   5.950   1.223   9.716  1.1171  1.6508 -1.5924
 9271TIP3    H252009   6.002   1.083   9.742 -1.7754  0.7757  0.0131
 9272TIP3   OH252010   3.016   5.920   9.851 -0.0392  0.4304 -0.0625
 9272TIP3    H152011   3.037   5.891   9.940  0.0113  0.2783 -0.1235
 9272TIP3    H252012   3.098   5.911   9.803  0.1652  1.3554  0.0917
 9273TIP3   OH252013   4.458   4.308   9.970  0.1585  0.2996 -0.8198
 9273TIP3    H152014   4.549   4.336   9.959  0.6280 -1.4110 -1.6081
 9273TIP3    H252015   4.408   4.366   9.912  1.1559 -0.7059 -2.7964
 9274TIP3   OH252016   2.368   3.924   9.845 -0.7726  0.2318 -0.0110
 9274TIP3    H152017   2.357   3.965   9.759 -2.4628 -0.3999 -0.1302
 9274TIP3    H252018   2.361   3.830   9.828  0.3380  0.0092  0.6403
 9275TIP3   OH252019   3.552   3.795   9.777 -0.3457 -0.2318 -0.4526
 9275TIP3    H152020   3.538   3.719   9.833 -2.7235  1.1117  0.9958
 9275TIP3    H252021   3.468   3.808   9.732  0.6168  0.4260 -2.1660
 9276TIP3   OH252022   4.758   0.002  10.006 -0.5169  0.1631 -0.3801
 9276TIP3    H152023   4.750  -0.073  10.065  0.8726 -0.3394 -0.7938
 9276TIP3    H252024   4.686  -0.009   9.944 -1.0840 -0.1280  0.3168
 9277TIP3   OH252025   0.948   3.653   9.235  0.4771  0.4268  0.6394
 9277TIP3    H152026   1.007   3.668   9.161 -0.6005 -0.0386 -0.3563
 9277TIP3    H252027   1.004   3.659   9.312  1.4031  2.2571 -0.1141
 9278TIP3   OH252028   1.982   5.478  12.468  0.1952  0.3716  0.1192
 9278TIP3    H152029   1.950   5.567  12.453  0.0339  0.5635  1.5454
 9278TIP3    H252030   2.078   5.486  12.468  0.1866  0.4823 -0.0551
 9279TIP3   OH252031   0.643   5.472   9.178 -0.0291 -0.4296 -0.1570
 9279TIP3    H152032   0.634   5.470   9.083 -0.4337  0.0293 -0.1346
 9279TIP3    H252033   0.560   5.439   9.211  0.8841 -2.6759  0.0484
 9280TIP3   OH252034   0.538   1.413   9.384 -0.0849 -0.1340 -0.0565
 9280TIP3    H152035   0.609   1.349   9.386 -0.0971 -0.1366  0.4704
 9280TIP3    H252036   0.467   1.368   9.339  0.0487 -0.3401 -0.0647
 9281TIP3   OH252037   2.290   1.919  10.338  0.5572  0.1650  0.3429
 9281TIP3    H152038   2.289   1.895  10.430 -0.2413 -1.5335 -0.0709
 9281TIP3    H252039   2.210   1.971  10.326 -0.6424 -1.6387  0.1536
 9282TIP3   OH252040   0.010   6.029  11.536  0.0660  0.3757  0.4491
 9282TIP3    H152041   0.059   6.049  11.616  0.4176  2.1887 -0.1716
 9282TIP3    H252042   0.024   5.935  11.522  2.4679  0.6077  0.8973
 9283TIP3   OH252043   6.650   2.552   9.318  0.1800 -0.3488 -0.0745
 9283TIP3    H152044   6.625   2.629   9.370 -0.6122 -1.2563  0.9418
 9283TIP3    H252045   6.667   2.587   9.231  2.9377  1.4624  1.0645
 9284TIP3   OH252046   3.534   2.675  10.342 -0.2690  0.3029 -0.2381
 9284TIP3    H152047   3.519   2.602  10.403 -0.5489  0.3763 -0.2166
 9284TIP3    H252048   3.478   2.655  10.267  0.3481  0.0280 -0.6321
 9285TIP3   OH252049   0.295   4.749   9.382 -0.2172 -0.4056 -0.0526
 9285TIP3    H152050   0.331   4.765   9.469 -0.4146  0.1913 -0.0708
 9285TIP3    H252051   0.357   4.792   9.322 -0.3253 -0.4107 -0.1690
 9286TIP3   OH252052   3.248   3.885  10.571  0.0155 -0.4175  0.1285
 9286TIP3    H152053   3.304   3.960  10.553 -1.1232  0.9922  2.0332
 9286TIP3    H252054   3.164   3.907  10.531  0.0428 -1.3391 -0.4790
 9287TIP3   OH252055   0.748   1.045  11.137  0.0869  0.5292  0.0440
 9287TIP3    H152056   0.789   1.100  11.204 -0.2089  1.8741 -0.8302
 9287TIP3    H252057   0.660   1.027  11.172  0.0390  0.9750  0.1639
 9288TIP3   OH252058   3.918   0.204  10.626  0.4952 -0.0718  0.2610
 9288TIP3    H152059   3.915   0.221  10.721  0.5397 -1.2175  0.4837
 9288TIP3    H252060   3.829   0.217  10.596  0.3688 -0.2302  0.5627
 9289TIP3   OH252061   0.217   2.304   9.317  0.0161 -0.4004  0.1435
 9289TIP3    H152062   0.235   2.224   9.365  0.1279  0.6515  1.9375
 9289TIP3    H252063   0.199   2.370   9.385  0.0091  1.1140 -1.2549
 9290TIP3   OH252064   6.037   3.481  11.129  0.7134  1.0938 -0.1661
 9290TIP3    H152065   6.106   3.523  11.077  0.2939  1.3379 -0.5330
 9290TIP3    H252066   5.985   3.432  11.065  0.6169  0.8161  0.1241
 9291TIP3   OH252067   6.034   4.791  11.564 -0.6129  0.7150 -0.3916
 9291TIP3    H152068   6.042   4.696  11.567  0.2735  0.7836 -0.0181
 9291TIP3    H252069   6.044   4.819  11.656  3.2894  1.3886 -0.8218
 9292TIP3   OH252070   1.128   2.422  10.978 -0.3711 -0.0088 -0.4803
 9292TIP3    H152071   1.078   2.411  10.898 -0.6235  0.6701 -0.4260
 9292TIP3    H252072   1.081   2.490  11.027  0.3437  0.3148 -0.2257
 9293TIP3   OH252073   2.566   4.505  12.224 -0.8327 -0.1934 -0.1139
 9293TIP3    H152074   2.510   4.439  12.182 -1.1864 -0.5031  0.8258
 9293TIP3    H252075   2.504   4.572  12.253 -0.4175  0.9146 -1.6543
 9294TIP3   OH252076   3.432   0.526  10.737 -0.4975 -0.2000 -0.4230
 9294TIP3    H152077   3.482   0.521  10.818 -1.2311  0.8828  0.1295
 9294TIP3    H252078   3.365   0.457  10.746  0.5299 -1.2973 -0.9355
 9295TIP3   OH252079   3.428   2.204   9.245 -0.5247 -0.3151  0.8499
 9295TIP3    H152080   3.376   2.126   9.261 -1.4869  0.2781  0.7135
 9295TIP3    H252081   3.518   2.174   9.245 -0.8471 -1.3090  1.4578
 9296TIP3   OH252082   0.554   0.039   8.766 -0.0768  0.0352 -0.5123
 9296TIP3    H152083   0.479   0.098   8.765 -0.3732 -0.3362 -0.3372
 9296TIP3    H252084   0.516  -0.048   8.758  0.3133 -0.1772 -0.0773
 9297TIP3   OH252085   3.821   1.569   9.055  0.1651  0.0724 -0.3616
 9297TIP3    H152086   3.852   1.617   8.978  0.1389  3.2325  1.4086
 9297TIP3    H252087   3.886   1.589   9.123 -1.7427  0.6281  1.4096
 9298TIP3   OH252088   2.462   5.620  12.193  0.5356 -0.2859 -0.1137
 9298TIP3    H152089   2.439   5.711  12.211 -0.3633 -0.3569 -0.8555
 9298TIP3    H252090   2.489   5.585  12.278  2.8871  1.2111 -0.1508
 9299TIP3   OH252091   2.150   6.527   9.667  0.3904 -0.1367 -0.2361
 9299TIP3    H152092   2.170   6.598   9.728 -0.8026 -0.9008  1.0840
 9299TIP3    H252093   2.055   6.521   9.667  0.4822 -2.3501  0.4351
 9300TIP3   OH252094   2.010   3.989  10.910  0.2203  0.7443 -0.2068
 9300TIP3    H152095   1.962   3.996  10.993 -1.3478  2.3024 -1.1611
 9300TIP3    H252096   1.945   3.953  10.849  1.8395 -2.0120 -0.4671
 9301TIP3   OH252097   5.050   5.156   8.867 -0.1753 -0.3281 -0.0885
 9301TIP3    H152098   4.995   5.144   8.945  0.4183 -1.2253  0.2065
 9301TIP3    H252099   5.016   5.237   8.827  0.7610  1.3125  2.1629
 9302TIP3   OH252100   1.432   6.103   9.654  0.2528  0.0679 -0.3719
 9302TIP3    H152101   1.431   6.198   9.669 -0.2153  0.1542 -0.9062
 9302TIP3    H252102   1.371   6.068   9.719 -0.9103  0.3233 -1.2900
 9303TIP3   OH252103   1.403   3.740  10.225  0.2770  0.0564  0.6437
 9303TIP3    H152104   1.462   3.709  10.294  0.4650 -0.4818  0.2424
 9303TIP3    H252105   1.425   3.833  10.216 -0.3943  0.3672  1.9576
 9304TIP3   OH252106   5.999   2.602   8.501 -0.0654 -0.1858  0.4405
 9304TIP3    H152107   5.979   2.541   8.572 -0.5399  0.6403  1.0368
 9304TIP3    H252108   6.090   2.628   8.516  0.3919 -1.3152 -0.2651
 9305TIP3   OH252109   3.822   2.305  11.936 -0.0948  0.3354  0.4621
 9305TIP3    H152110   3.858   2.370  11.997 -0.7384 -0.4699  1.7579
 9305TIP3    H252111   3.899   2.255  11.907  0.0333 -0.7059  2.4019
 9306TIP3   OH252112   2.712   3.090  11.595  0.1543  0.0369 -0.0774
 9306TIP3    H152113   2.747   3.017  11.544  2.4054  0.5214  0.6599
 9306TIP3    H252114   2.620   3.068  11.608  1.0223 -3.4491  1.3849
 9307TIP3   OH252115   0.467   5.305  10.578 -0.2075 -0.0245 -0.0295
 9307TIP3    H152116   0.504   5.378  10.627 -1.0288  0.4872 -0.1687
 9307TIP3    H252117   0.386   5.283  10.624 -0.2506 -0.4877 -0.3158
 9308TIP3   OH252118   6.417   5.708  10.761 -0.1200  0.6059 -0.6726
 9308TIP3    H152119   6.413   5.654  10.840 -1.5836  0.8037 -0.5804
 9308TIP3    H252120   6.413   5.646  10.689 -0.2451  0.4936 -0.5695
 9309TIP3   OH252121   5.020   6.037  11.107  0.5192  0.3471 -0.1390
 9309TIP3    H152122   4.948   6.091  11.076  0.1398 -0.5771 -0.8871
 9309TIP3    H252123   5.043   6.075  11.192 -1.0087  0.5006  0.2248
 9310TIP3   OH252124   6.665   1.124  10.844 -0.4399 -0.2103 -0.1858
 9310TIP3    H152125   6.574   1.139  10.820  0.2344  0.3613 -2.7337
 9310TIP3    H252126   6.692   1.049  10.791  0.3071 -1.0695  1.3578
 9311TIP3   OH252127   6.413   2.097   8.593  0.4228 -0.5018 -0.2640
 9311TIP3    H152128   6.318   2.107   8.600  0.2773 -1.5169 -0.5855
 9311TIP3    H252129   6.437   2.041   8.666  1.0707  1.2262  0.9258
 9312TIP3   OH252130   4.596   1.923  11.167 -0.0169 -0.0107  0.4228
 9312TIP3    H152131   4.687   1.926  11.195  0.0672  1.0482  0.0822
 9312TIP3    H252132   4.568   1.833  11.184  0.1530  0.3813  3.4751
 9313TIP3   OH252133   2.978   4.987  10.979  0.0982 -0.0810 -0.2775
 9313TIP3    H152134   2.897   5.020  11.017  0.6150 -1.4646  2.2294
 9313TIP3    H252135   2.954   4.900  10.946  0.5000 -0.3804  0.2193
 9314TIP3   OH252136   5.773   5.048   8.974  0.0245 -0.1895  0.4980
 9314TIP3    H152137   5.826   5.008   9.043 -0.4014 -1.3900  0.1530
 9314TIP3    H252138   5.837   5.073   8.907  0.1996 -1.5074  0.1410
 9315TIP3   OH252139   6.056   6.077  10.042  0.0228 -0.1675  0.3210
 9315TIP3    H152140   6.136   6.109  10.084  0.1288  2.2785 -1.5298
 9315TIP3    H252141   6.049   5.986  10.071  2.2926  0.1549  2.2342
 9316TIP3   OH252142   3.414   1.641  10.044 -0.1531  0.3629  0.5610
 9316TIP3    H152143   3.406   1.587  10.122  0.2428  0.7057  0.8368
 9316TIP3    H252144   3.458   1.584   9.980  1.2724  0.7045  1.2030
 9317TIP3   OH252145   5.781   1.332   9.654  0.0808 -0.2167  0.5547
 9317TIP3    H152146   5.729   1.253   9.634  0.2123 -0.2214  0.2219
 9317TIP3    H252147   5.745   1.364   9.737 -0.4059 -0.2607  0.3628
 9318TIP3   OH252148   2.597   6.732  10.056  0.0538  0.2219  0.4762
 9318TIP3    H152149   2.556   6.659  10.010  1.0171  1.0409 -1.8348
 9318TIP3    H252150   2.529   6.764  10.115 -1.1199 -1.1562 -0.0729
 9319TIP3   OH252151   1.382   6.347   8.999  0.4574 -0.0151  0.3640
 9319TIP3    H152152   1.373   6.442   8.993  0.1455 -0.0649 -0.0140
 9319TIP3    H252153   1.473   6.332   9.023  0.4173  0.3935  0.7691
 9320TIP3   OH252154   2.182   5.383  10.685  0.0841  0.0793 -0.2627
 9320TIP3    H152155   2.218   5.466  10.654  0.1660  0.0734 -0.1854
 9320TIP3    H252156   2.244   5.317  10.654  1.1998  0.2326  1.5143
 9321TIP3   OH252157   4.175   6.733  11.494 -0.2299 -0.4373  0.0206
 9321TIP3    H152158   4.121   6.765  11.566 -0.5251  3.2598 -1.6051
 9321TIP3    H252159   4.257   6.782  11.502  0.0263 -0.5202 -1.7129
 9322TIP3   OH252160   2.696   0.323  10.940  0.0947  0.3304  0.3568
 9322TIP3    H152161   2.750   0.364  11.008  0.6449 -0.8138  0.6333
 9322TIP3    H252162   2.690   0.231  10.966 -1.9191  0.4049  0.2618
 9323TIP3   OH252163   2.223   1.448  11.563  0.8914  0.6819 -0.2611
 9323TIP3    H152164   2.211   1.400  11.645  1.4708  2.7509  1.1393
 9323TIP3    H252165   2.154   1.515  11.565  0.2453  0.1026 -2.0112
 9324TIP3   OH252166   1.738   4.114  11.589 -0.3649 -0.3146  0.3284
 9324TIP3    H152167   1.828   4.105  11.556 -0.9314 -2.4049 -0.8571
 9324TIP3    H252168   1.729   4.044  11.654 -0.5579  1.1653  1.9717
 9325TIP3   OH252169   2.728   1.681  10.127  0.2126  0.3696  0.0589
 9325TIP3    H152170   2.735   1.613  10.195  0.3722  0.4130  0.0850
 9325TIP3    H252171   2.787   1.750  10.156 -0.7730  1.0110  0.6052
 9326TIP3   OH252172   5.428   3.903   8.930  0.5379 -0.7663  0.1004
 9326TIP3    H152173   5.371   3.979   8.931 -0.1652 -1.2578 -1.0982
 9326TIP3    H252174   5.377   3.833   8.970  0.4102 -1.1133 -0.6442
 9327TIP3   OH252175   0.032   5.301  10.896 -0.0386 -0.6024  0.4426
 9327TIP3    H152176   0.052   5.208  10.913  1.4647 -0.1210  1.4872
 9327TIP3    H252177  -0.058   5.300  10.863  0.7911 -2.6755 -2.0865
 9328TIP3   OH252178   0.044   2.034  10.759  0.3215  0.2946 -0.1884
 9328TIP3    H152179   0.070   2.011  10.848 -4.1345  0.3226  1.3719
 9328TIP3    H252180   0.057   1.953  10.709  0.6048 -0.4883  1.1087
 9329TIP3   OH252181   5.135   1.575  10.941 -0.3692 -0.2047 -0.2157
 9329TIP3    H152182   5.052   1.618  10.961 -0.2760 -1.0259  2.2925
 9329TIP3    H252183   5.110   1.485  10.919 -0.1746 -0.4801  0.6399
 9330TIP3   OH252184   5.096   3.659  11.417 -0.4212 -0.2013 -0.0942
 9330TIP3    H152185   5.003   3.661  11.393 -0.3455  1.3024 -0.3079
 9330TIP3    H252186   5.103   3.718  11.491  0.6335  1.0519 -1.1421
 9331TIP3   OH252187   3.960   4.493  11.680  0.1515  0.1288 -0.5446
 9331TIP3    H152188   3.875   4.538  11.675 -0.5908 -0.9566  1.4576
 9331TIP3    H252189   3.946   4.409  11.636  0.0944 -0.1619  0.0196
 9332TIP3   OH252190   1.523   1.473   9.593 -0.0862 -0.3606 -0.0912
 9332TIP3    H152191   1.552   1.411   9.660 -0.7220 -0.3034  0.2414
 9332TIP3    H252192   1.572   1.447   9.515 -1.8748 -2.6973 -0.5619
 9333TIP3   OH252193   5.706   1.566   9.100  0.2000  0.2700 -0.6710
 9333TIP3    H152194   5.725   1.601   9.013 -0.0941  2.6191  0.1461
 9333TIP3    H252195   5.611   1.564   9.105  0.2068  1.2299 -0.0115
 9334TIP3   OH252196   1.683   5.851   9.321 -0.3100 -0.1924  0.5446
 9334TIP3    H152197   1.766   5.808   9.339 -0.2281  0.0150  0.6704
 9334TIP3    H252198   1.674   5.850   9.226  0.3544  0.7411  0.4559
 9335TIP3   OH252199   1.581   2.207  10.077 -0.1196  0.0298  0.2830
 9335TIP3    H152200   1.559   2.123  10.037 -1.4521  1.2371 -1.6523
 9335TIP3    H252201   1.533   2.207  10.160 -1.9791 -0.2156 -0.7398
 9336TIP3   OH252202   2.911   5.900   9.276  0.1427  0.5227 -0.2878
 9336TIP3    H152203   2.916   5.804   9.281 -0.3398  0.4252 -1.2592
 9336TIP3    H252204   2.958   5.931   9.353 -1.7157 -0.5172  1.3497
 9337TIP3   OH252205   5.333   4.544  11.275  0.0909  0.1004  0.2632
 9337TIP3    H152206   5.264   4.588  11.326 -0.5486 -0.2212 -0.3118
 9337TIP3    H252207   5.326   4.582  11.188  1.1193  0.5718  0.3661
 9338TIP3   OH252208   0.299   5.353  11.569  0.0283 -0.4700 -0.1555
 9338TIP3    H152209   0.291   5.272  11.520  0.2883 -0.3631 -0.3754
 9338TIP3    H252210   0.210   5.390  11.567  0.5374  0.8603 -2.8656
 9339TIP3   OH252211   2.701   0.933  10.288  0.7439 -0.2105  0.3311
 9339TIP3    H152212   2.758   0.892  10.222  0.7911  0.9867 -0.4154
 9339TIP3    H252213   2.762   0.966  10.354  0.9993  1.4923 -0.7064
 9340TIP3   OH252214   2.803   4.723  10.321  0.2164  0.0194  0.3279
 9340TIP3    H152215   2.768   4.649  10.371 -2.7965  0.4417 -0.9179
 9340TIP3    H252216   2.758   4.799  10.356  1.6654  1.0073  0.1279
 9341TIP3   OH252217   1.118   5.878  10.391  0.2373 -0.7042  0.2531
 9341TIP3    H152218   1.123   5.946  10.458 -0.3553  0.9188 -1.2671
 9341TIP3    H252219   1.119   5.796  10.440  0.6762  0.3915  2.1764
 9342TIP3   OH252220   0.462   1.351  10.011  0.4017 -0.4812  0.1182
 9342TIP3    H152221   0.429   1.330   9.924  1.1369 -1.1533 -0.0001
 9342TIP3    H252222   0.427   1.282  10.068  3.0469 -2.3261 -0.3185
 9343TIP3   OH252223   0.868   2.618  11.760 -0.0048  0.1435 -0.0541
 9343TIP3    H152224   0.779   2.593  11.735 -0.0638 -1.4599  1.5266
 9343TIP3    H252225   0.856   2.678  11.834  0.2006 -0.3135  0.3584
 9344TIP3   OH252226   1.869   0.145   9.958  0.0981  0.2139  0.5421
 9344TIP3    H152227   1.890   0.132  10.051  0.4685 -0.9036  0.3107
 9344TIP3    H252228   1.923   0.082   9.912 -1.4939 -0.5921 -0.2948
 9345TIP3   OH252229   3.082   0.451  10.682  0.1714  0.3663 -1.1338
 9345TIP3    H152230   3.039   0.464  10.597  0.5890  1.2634 -1.2183
 9345TIP3    H252231   3.158   0.397  10.662 -1.1576 -1.7068 -0.9005
 9346TIP3   OH252232   2.200   3.902  10.068 -0.8038  0.4729  0.7553
 9346TIP3    H152233   2.110   3.918  10.039 -1.3975 -1.6350  1.3058
 9346TIP3    H252234   2.251   3.905   9.987 -1.7374 -0.6518  0.0999
 9347TIP3   OH252235   3.814   4.217  10.214  0.3705  0.2266 -0.0532
 9347TIP3    H152236   3.857   4.131  10.209  1.9931  1.0112 -0.3091
 9347TIP3    H252237   3.870   4.268  10.272  1.8130  2.3564 -3.0420
 9348TIP3   OH252238   4.769   5.629  11.895  0.6072 -0.2510  0.0027
 9348TIP3    H152239   4.813   5.702  11.938 -0.7392 -0.3941  1.7403
 9348TIP3    H252240   4.803   5.551  11.940  1.4412 -0.6500 -1.2908
 9349TIP3   OH252241   2.586   3.413  12.405 -0.3181  0.2858  0.1308
 9349TIP3    H152242   2.580   3.481  12.472  2.1699 -0.4544  1.2100
 9349TIP3    H252243   2.564   3.459  12.323 -0.1943  2.0083  1.0151
 9350TIP3   OH252244   6.161   1.994  11.112  0.0050 -0.2542  0.5705
 9350TIP3    H152245   6.120   1.936  11.048  0.7322  0.1231 -0.2534
 9350TIP3    H252246   6.133   2.082  11.086  0.3807 -0.0927  0.7017
 9351TIP3   OH252247   6.008   5.679   9.902 -0.7181 -0.0156 -0.1255
 9351TIP3    H152248   5.950   5.603   9.889  1.5371 -2.0593  0.9527
 9351TIP3    H252249   5.992   5.706   9.992 -0.6900  0.0282 -0.1333
 9352TIP3   OH252250   6.332   3.841  10.748 -0.3645 -0.5170  0.4900
 9352TIP3    H152251   6.288   3.895  10.814  0.8425  0.1277  0.7963
 9352TIP3    H252252   6.400   3.898  10.712 -0.2641 -1.2456 -0.4989
 9353TIP3   OH252253   4.333   0.097  10.043 -0.1731  0.1858  0.5038
 9353TIP3    H152254   4.259   0.056  10.087  1.0881 -0.4782  2.1122
 9353TIP3    H252255   4.351   0.176  10.095  0.2411  0.3444  0.1267
 9354TIP3   OH252256   1.083   2.914  10.000  0.1412 -0.1226  0.9305
 9354TIP3    H152257   1.046   2.926   9.913  2.0234  0.0776  0.1163
 9354TIP3    H252258   1.019   2.953  10.059 -1.3679 -0.6424 -0.3095
 9355TIP3   OH252259   5.431   4.182  11.192 -0.4653  0.0800 -0.5299
 9355TIP3    H152260   5.487   4.111  11.222  0.1913  1.3539  1.4362
 9355TIP3    H252261   5.481   4.262  11.211 -2.0371  1.1634 -0.7618
 9356TIP3   OH252262   6.712   5.033  10.378  0.3417 -0.1778 -0.4271
 9356TIP3    H152263   6.643   4.973  10.350 -0.7553  0.7368  0.1995
 9356TIP3    H252264   6.720   5.096  10.307  0.3676 -0.1401 -0.3918
 9357TIP3   OH252265   2.622   1.505  10.780  0.3078  0.3628 -0.2885
 9357TIP3    H152266   2.605   1.582  10.835  1.0826  0.3693 -0.0534
 9357TIP3    H252267   2.535   1.479  10.750 -0.1059  0.5605  0.6742
 9358TIP3   OH252268   2.293   5.173   9.189  0.1425 -0.1027  0.0517
 9358TIP3    H152269   2.298   5.261   9.150 -0.7913  0.3570  0.9249
 9358TIP3    H252270   2.265   5.117   9.117 -0.2930  0.5026 -0.2570
 9359TIP3   OH252271   5.577   0.229   9.635  0.2579  0.5252 -0.0152
 9359TIP3    H152272   5.482   0.239   9.645  0.4182  0.9922  1.2721
 9359TIP3    H252273   5.592   0.235   9.541 -1.0219  0.1135 -0.2681
 9360TIP3   OH252274   0.970   0.118   8.505 -0.0387  0.5783 -0.4960
 9360TIP3    H152275   0.956   0.023   8.498 -1.1887  0.7478 -0.6180
 9360TIP3    H252276   1.049   0.134   8.453 -0.1838 -0.2323 -0.9839
 9361TIP3   OH252277   2.882   5.979  11.336  0.0522  0.4159  0.1479
 9361TIP3    H152278   2.903   5.888  11.316  0.3724  0.3633  0.6857
 9361TIP3    H252279   2.788   5.986  11.320  0.2690  0.3576 -1.2237
 9362TIP3   OH252280   1.623   1.031  10.856  0.2179 -0.2314  0.2002
 9362TIP3    H152281   1.694   0.983  10.813  0.5480  1.2842 -1.0298
 9362TIP3    H252282   1.544   0.987  10.826  0.5593 -0.7845  0.0910
 9363TIP3   OH252283   2.942   0.279  11.247  0.0104  0.5791  0.5008
 9363TIP3    H152284   3.008   0.319  11.190 -0.3115 -0.0654 -0.3407
 9363TIP3    H252285   2.979   0.286  11.335  1.3682 -0.0956  0.0103
 9364TIP3   OH252286   5.028   5.246   9.839 -0.0546  0.1322 -0.2177
 9364TIP3    H152287   4.957   5.305   9.866 -1.9511 -2.0805 -0.0998
 9364TIP3    H252288   5.029   5.252   9.744 -2.2469 -1.6838 -0.4465
 9365TIP3   OH252289   4.175   4.347  12.217 -0.0430  0.2936 -0.0178
 9365TIP3    H152290   4.091   4.350  12.261  0.5570  0.8534  1.1290
 9365TIP3    H252291   4.155   4.368  12.126 -0.9432  2.1581  0.5589
 9366TIP3   OH252292   2.419   0.039  10.223 -0.2323  0.3292  0.0419
 9366TIP3    H152293   2.419   0.047  10.318 -0.7366  0.4683  0.0356
 9366TIP3    H252294   2.348   0.096  10.194  0.3193  0.7637 -0.4629
 9367TIP3   OH252295   2.106   2.255  10.053  0.1730 -0.3520 -0.6136
 9367TIP3    H152296   2.097   2.179   9.995  0.8929 -1.2746  0.4270
 9367TIP3    H252297   2.192   2.244  10.093  0.0731  0.7518 -0.0563
 9368TIP3   OH252298   4.486   1.668  11.159 -0.5013 -0.5690 -0.3820
 9368TIP3    H152299   4.471   1.617  11.080 -1.8108  0.0503 -0.5680
 9368TIP3    H252300   4.400   1.673  11.201  0.2958 -1.4855  1.4719
 9369TIP3   OH252301   4.335   5.874  10.270  0.5981 -0.0139  0.3566
 9369TIP3    H152302   4.284   5.863  10.350 -0.9484  1.9709 -0.2538
 9369TIP3    H252303   4.389   5.951  10.286  2.5290 -1.3154  0.4897
 9370TIP3   OH252304   6.491   6.007  11.382  0.1718  0.1176 -0.3491
 9370TIP3    H152305   6.414   6.061  11.399 -0.0824 -0.0588 -0.9244
 9370TIP3    H252306   6.492   5.995  11.287 -0.3973 -1.7584 -0.1713
 9371TIP3   OH252307   3.624   1.134  10.030  0.3987  0.3990 -0.3290
 9371TIP3    H152308   3.529   1.124  10.035  0.5488 -0.5501  0.9968
 9371TIP3    H252309   3.637   1.215   9.981 -1.0994  0.7240 -0.2178
 9372TIP3   OH252310   2.183   0.880   9.000  0.2123  0.4809 -0.1867
 9372TIP3    H152311   2.247   0.951   9.006  1.7288 -0.8034 -0.5898
 9372TIP3    H252312   2.212   0.815   9.064 -0.1954 -0.4940 -0.9541
 9373TIP3   OH252313   5.194   6.049  10.855  0.6332 -0.1956  0.1467
 9373TIP3    H152314   5.253   6.122  10.836 -0.6750  1.1085  0.9028
 9373TIP3    H252315   5.153   6.073  10.938 -0.6111 -1.2764 -0.1332
 9374TIP3   OH252316   2.997   6.780   9.643 -0.0140  0.4404 -0.2417
 9374TIP3    H152317   3.037   6.784   9.556  0.8816  1.9300  0.2063
 9374TIP3    H252318   3.036   6.853   9.691 -0.6628 -0.2127  1.3501
 9375TIP3   OH252319   6.216   0.179   8.654  0.2042  0.3394 -0.0568
 9375TIP3    H152320   6.131   0.218   8.635  0.6115  2.0555  1.3525
 9375TIP3    H252321   6.250   0.230   8.728  1.5731 -1.6321  0.7533
 9376TIP3   OH252322   3.763   1.716   8.673 -0.2395 -0.2229 -0.1937
 9376TIP3    H152323   3.830   1.713   8.604 -0.6588  0.3603 -0.6318
 9376TIP3    H252324   3.728   1.627   8.676 -0.2641 -0.2379 -0.7821
 9377TIP3   OH252325   4.174   5.925   9.295  0.1339  0.3148  0.1198
 9377TIP3    H152326   4.140   5.977   9.368  0.5937 -0.5912  1.0089
 9377TIP3    H252327   4.154   5.835   9.319  3.1764 -0.2993  0.7332
 9378TIP3   OH252328   3.541   5.604   8.846 -0.1592 -0.4465 -0.3364
 9378TIP3    H152329   3.524   5.510   8.835  1.2337 -0.9370  1.2492
 9378TIP3    H252330   3.554   5.614   8.941  1.2395  1.0608 -0.6519
 9379TIP3   OH252331   4.924   1.492   9.669 -0.1042 -0.1307 -0.0676
 9379TIP3    H152332   4.936   1.465   9.760  1.1319 -0.0896 -0.2039
 9379TIP3    H252333   4.953   1.416   9.618  0.8705  0.4633 -0.4249
 9380TIP3   OH252334   0.134   4.185   9.297  0.3629  0.2572  0.5632
 9380TIP3    H152335   0.151   4.144   9.213  2.0654 -2.8279  2.2418
 9380TIP3    H252336   0.180   4.269   9.292 -0.7101  0.7944 -1.9484
 9381TIP3   OH252337   2.812   6.626   9.782  0.0695  0.3486 -0.0480
 9381TIP3    H152338   2.877   6.653   9.717 -0.7248  0.7798 -0.6835
 9381TIP3    H252339   2.841   6.539   9.810  1.7657  1.1411  0.8220
 9382TIP3   OH252340   1.216   6.490   9.510  0.0708  0.3679 -0.1974
 9382TIP3    H152341   1.284   6.433   9.475 -0.4075  0.3172 -1.0579
 9382TIP3    H252342   1.194   6.549   9.438 -0.4563  0.6961  0.2236
 9383TIP3   OH252343   5.404   4.290   9.900 -0.0859  0.0648  0.3367
 9383TIP3    H152344   5.363   4.354   9.958 -1.9635 -1.3569  0.6679
 9383TIP3    H252345   5.475   4.252   9.952 -1.1899 -0.5714  1.4260
 9384TIP3   OH252346   5.472   3.546   8.889 -0.2336  0.0902 -0.3323
 9384TIP3    H152347   5.381   3.554   8.918 -0.5763 -0.0456 -1.3077
 9384TIP3    H252348   5.467   3.489   8.812  0.5503  0.8880 -0.9996
 9385TIP3   OH252349   1.510   4.173  11.465 -0.6684  0.1213  0.4090
 9385TIP3    H152350   1.500   4.251  11.520 -1.3008 -0.2691  0.8627
 9385TIP3    H252351   1.598   4.142  11.485 -0.3645  0.7796  0.1360
 9386TIP3   OH252352   1.374   3.166  11.701  0.2310  0.0001 -0.0560
 9386TIP3    H152353   1.408   3.089  11.656 -1.0497 -0.8130  0.3222
 9386TIP3    H252354   1.398   3.151  11.793 -0.4004 -0.1692  0.0831
 9387TIP3   OH252355   5.536   3.921  10.063  0.3166  0.1719 -0.0805
 9387TIP3    H152356   5.536   4.016  10.064  0.0614  0.1887  2.2142
 9387TIP3    H252357   5.622   3.896  10.097  0.2001 -0.4282 -0.2054
 9388TIP3   OH252358   1.363   3.763   9.243  0.2747 -0.0718 -0.3113
 9388TIP3    H152359   1.440   3.729   9.288  0.1637  0.7502  0.5168
 9388TIP3    H252360   1.307   3.798   9.312 -0.9748 -0.8851 -0.8795
 9389TIP3   OH252361   0.990   4.681   9.376  0.2388  0.1952  0.0784
 9389TIP3    H152362   1.026   4.602   9.334 -0.0250  0.2210 -0.2012
 9389TIP3    H252363   0.942   4.647   9.452 -2.5116 -0.2664 -1.7142
 9390TIP3   OH252364   0.723   4.360  12.177 -0.8800 -0.5940 -0.6805
 9390TIP3    H152365   0.785   4.402  12.237 -1.3913  0.1587 -0.6696
 9390TIP3    H252366   0.778   4.308  12.118 -0.2631 -0.2162 -0.4476
 9391TIP3   OH252367   5.225   2.686   9.592  0.1781 -0.4903  0.2653
 9391TIP3    H152368   5.219   2.746   9.518  0.1160 -1.7754 -0.8073
 9391TIP3    H252369   5.139   2.645   9.597  0.5555 -1.2958  0.2733
 9392TIP3   OH252370   5.199   0.918  10.956 -0.3283  0.0791 -0.1619
 9392TIP3    H152371   5.138   0.912  11.030 -0.0281 -0.5593  0.0402
 9392TIP3    H252372   5.144   0.942  10.881 -0.7851 -0.2199  0.0739
 9393TIP3   OH252373   5.701   5.283   8.667 -0.2449 -0.3789 -0.5038
 9393TIP3    H152374   5.669   5.225   8.597  0.0713 -0.2812 -0.7334
 9393TIP3    H252375   5.639   5.271   8.738 -0.1023 -1.1144 -0.4941
 9394TIP3   OH252376   3.793   0.049  10.228  0.2830 -0.6153  0.2350
 9394TIP3    H152377   3.712   0.092  10.203  0.5051 -0.4261 -0.1729
 9394TIP3    H252378   3.766  -0.026  10.281 -0.0611  0.9006  2.3154
 9395TIP3   OH252379   2.772   5.622  11.501  0.2885 -0.4104 -0.7133
 9395TIP3    H152380   2.853   5.619  11.451 -0.5061 -1.1336 -2.0207
 9395TIP3    H252381   2.799   5.608  11.591  1.6251 -0.6035 -1.1207
 9396TIP3   OH252382   5.634   3.957   9.721  0.1038  0.1046  0.4918
 9396TIP3    H152383   5.724   3.962   9.688 -0.2846  0.2730 -0.5956
 9396TIP3    H252384   5.589   4.031   9.680 -0.7056 -0.4115  0.4098
 9397TIP3   OH252385   1.388   5.692  11.541 -0.1275  0.5690 -0.0238
 9397TIP3    H152386   1.442   5.745  11.599  2.3303 -1.7609  0.0032
 9397TIP3    H252387   1.406   5.727  11.453  2.0992 -0.6173 -0.0917
 9398TIP3   OH252388   4.659   1.281   9.693  0.4716  0.6953  0.3970
 9398TIP3    H152389   4.577   1.328   9.710  0.6321  1.8622 -1.7132
 9398TIP3    H252390   4.718   1.311   9.763 -0.3860  1.1670  0.9344
 9399TIP3   OH252391   6.736   4.765   9.000 -0.5145  0.0715  0.4142
 9399TIP3    H152392   6.690   4.782   8.917 -2.2021  1.0080  1.4766
 9399TIP3    H252393   6.809   4.709   8.976 -0.9265  0.3627 -1.7213
 9400TIP3   OH252394   5.117   2.908  10.394  0.2606  0.0641  0.8126
 9400TIP3    H152395   5.206   2.873  10.388 -0.0366 -0.4287 -1.3623
 9400TIP3    H252396   5.070   2.844  10.448  0.8032 -0.5902  0.5243
 9401TIP3   OH252397   4.986   4.821  10.539  0.4550 -1.1611 -0.2780
 9401TIP3    H152398   5.002   4.730  10.564  1.0170 -0.9746  0.0417
 9401TIP3    H252399   4.950   4.815  10.450 -0.6187 -1.7654  0.1725
 9402TIP3   OH252400   5.177   4.991  12.113 -0.4377 -0.3529  0.2845
 9402TIP3    H152401   5.116   5.065  12.117  0.1943  0.2071 -0.1447
 9402TIP3    H252402   5.206   4.979  12.203 -0.6322 -0.1582  0.3749
 9403TIP3   OH252403   0.766   5.577  10.525  0.1013  0.2505 -0.5590
 9403TIP3    H152404   0.748   5.597  10.617  2.2768 -0.2754  0.0412
 9403TIP3    H252405   0.744   5.658  10.479  0.3346  1.0173  0.6289
 9404TIP3   OH252406   6.210   0.982   9.864 -0.5991 -0.2801  0.0416
 9404TIP3    H152407   6.150   0.943   9.800 -2.4452  0.3990  1.2745
 9404TIP3    H252408   6.159   1.051   9.905  0.8017 -0.1733  1.7010
 9405TIP3   OH252409   5.613   3.115   8.505 -0.3688 -0.3026  0.1662
 9405TIP3    H152410   5.530   3.075   8.480 -0.1107 -1.3734  0.9411
 9405TIP3    H252411   5.632   3.177   8.434 -2.6077  1.1943  0.7564
 9406TIP3   OH252412   5.108   3.590   9.411  0.8856 -0.0597  0.3512
 9406TIP3    H152413   5.075   3.503   9.432  1.7794 -0.5281 -0.1197
 9406TIP3    H252414   5.197   3.575   9.380 -0.1292  0.6045 -3.3300
 9407TIP3   OH252415   3.224   5.836   9.690 -0.0515 -0.6596 -0.0657
 9407TIP3    H152416   3.259   5.815   9.603  0.2165 -0.9936  0.1188
 9407TIP3    H252417   3.300   5.833   9.747 -0.0117  0.7236  0.0003
 9408TIP3   OH252418   5.446   3.125  11.683 -0.6359 -0.3724  0.3587
 9408TIP3    H152419   5.467   3.218  11.671 -2.1784  0.0775  0.9008
 9408TIP3    H252420   5.488   3.101  11.766 -0.4736 -0.0888  0.3610
 9409TIP3   OH252421   6.336   2.481   9.670  0.0261  0.4806  0.1721
 9409TIP3    H152422   6.412   2.462   9.615 -1.1271 -3.4455 -0.4077
 9409TIP3    H252423   6.360   2.449   9.757 -0.0186  1.7893  0.6820
 9410TIP3   OH252424   1.889   5.229  12.376 -0.5247  0.5555 -0.2682
 9410TIP3    H152425   1.862   5.228  12.284  0.9109 -0.9353 -0.7183
 9410TIP3    H252426   1.943   5.307  12.385  0.6475 -0.1415 -1.1131
 9411TIP3   OH252427   3.304   4.591  10.450  0.4338 -0.2693 -0.1747
 9411TIP3    H152428   3.392   4.626  10.462  1.4713 -1.9946 -2.1211
 9411TIP3    H252429   3.251   4.666  10.425  2.2912  0.2456 -3.0065
 9412TIP3   OH252430   3.855   5.077   9.276 -0.3943  0.4838  0.2268
 9412TIP3    H152431   3.818   5.088   9.364  1.9608 -2.8416  1.8820
 9412TIP3    H252432   3.949   5.088   9.289  0.3123 -2.8221 -1.1783
 9413TIP3   OH252433   1.647   5.987   8.720 -0.2593 -0.1866 -0.3420
 9413TIP3    H152434   1.625   6.080   8.724 -0.7514 -0.3345  0.6681
 9413TIP3    H252435   1.663   5.962   8.811  0.0771 -1.0419 -0.6261
 9414TIP3   OH252436   2.014   4.274  12.125  0.3428  0.4029  0.1882
 9414TIP3    H152437   1.924   4.263  12.155  0.3825 -1.2440 -0.2150
 9414TIP3    H252438   2.024   4.368  12.112 -1.0603  0.6842  1.0124
 9415TIP3   OH252439   6.239   6.338  11.829 -0.0605  0.1401 -0.3920
 9415TIP3    H152440   6.145   6.349  11.846  0.2802 -0.0788  1.9820
 9415TIP3    H252441   6.243   6.306  11.739 -2.4999 -3.1027  0.4548
 9416TIP3   OH252442   6.636   4.885   8.564 -0.7959 -0.3365  0.4016
 9416TIP3    H152443   6.722   4.899   8.523 -0.9108 -1.9653 -0.4553
 9416TIP3    H252444   6.589   4.967   8.549  0.2010  0.1526 -0.1483
 9417TIP3   OH252445   3.630   4.571  11.160 -0.4305 -0.5611  0.0891
 9417TIP3    H152446   3.570   4.618  11.102  0.9029  0.1469 -0.7798
 9417TIP3    H252447   3.628   4.481  11.129  0.7191 -0.0766 -1.4943
 9418TIP3   OH252448   3.122   2.797   8.970 -0.3042 -0.0809  0.0082
 9418TIP3    H152449   3.205   2.819   9.013 -1.3851  0.7775  1.8039
 9418TIP3    H252450   3.147   2.746   8.893  1.8774  0.2056  0.4620
 9419TIP3   OH252451   5.868   4.416  10.112  0.4536  0.0072 -0.0205
 9419TIP3    H152452   5.908   4.388  10.029  0.0307  0.6485 -0.4502
 9419TIP3    H252453   5.885   4.511  10.115 -1.0691  0.3040 -0.2476
 9420TIP3   OH252454   4.770   1.010   9.520 -0.5709 -0.0789 -0.4413
 9420TIP3    H152455   4.682   0.985   9.548 -0.6420  0.7950  0.1573
 9420TIP3    H252456   4.810   0.928   9.490 -1.1463 -0.7100  0.4701
 9421TIP3   OH252457   2.885   6.704   9.229  0.1934 -0.0817 -0.1597
 9421TIP3    H152458   2.925   6.633   9.178 -0.8456 -0.4713 -0.4664
 9421TIP3    H252459   2.950   6.726   9.296  0.4916 -1.4014  0.0045
 9422TIP3   OH252460   3.786   0.509  11.300  0.1144  0.6428  0.4628
 9422TIP3    H152461   3.830   0.427  11.276 -0.4109  0.8261 -1.2795
 9422TIP3    H252462   3.718   0.483  11.362 -0.3207 -0.3248 -0.3921
 9423TIP3   OH252463   3.424   4.355   9.761  0.0642 -0.7433  0.2851
 9423TIP3    H152464   3.372   4.277   9.780 -0.4834 -0.9480 -1.8655
 9423TIP3    H252465   3.369   4.428   9.790 -0.2295 -1.0718  0.5592
 9424TIP3   OH252466   6.643   6.018  10.545  0.3506 -0.2171  0.7776
 9424TIP3    H152467   6.700   6.075  10.494  0.8593 -1.2890  0.0907
 9424TIP3    H252468   6.557   6.060  10.542  0.2161 -0.5371 -1.5204
 9425TIP3   OH252469   0.308   5.158   9.777  0.5852  0.0365  0.2590
 9425TIP3    H152470   0.226   5.133   9.734  1.4986 -0.3800 -1.2957
 9425TIP3    H252471   0.329   5.244   9.741  2.0780 -0.9168 -1.2430
 9426TIP3   OH252472   4.671   4.685   8.597 -0.5388  0.8510 -0.0122
 9426TIP3    H152473   4.615   4.748   8.643 -1.5709 -1.6050  2.3415
 9426TIP3    H252474   4.707   4.630   8.667  1.2071 -0.5147 -1.8778
 9427TIP3   OH252475   0.385   5.797   9.562 -0.3391 -0.0797 -0.6180
 9427TIP3    H152476   0.294   5.826   9.553 -0.4455 -0.1862  0.0702
 9427TIP3    H252477   0.402   5.747   9.482 -1.6522 -2.0693  0.2702
 9428TIP3   OH252478   1.089   6.092   9.196  0.2479 -0.1871  0.1246
 9428TIP3    H152479   1.080   6.164   9.258  1.1377 -0.2516  0.3396
 9428TIP3    H252480   1.021   6.030   9.221 -0.0559  0.2470  0.3896
 9429TIP3   OH252481   2.206   6.038  11.500  0.1108 -0.3188 -0.4722
 9429TIP3    H152482   2.145   6.034  11.427 -0.2149 -0.0046 -0.2218
 9429TIP3    H252483   2.153   6.064  11.575  0.0157 -2.7586  0.3907
 9430TIP3   OH252484   3.683   4.504  12.025  0.4346 -0.3711  0.4521
 9430TIP3    H152485   3.738   4.581  12.009 -1.1647  0.8412  0.4976
 9430TIP3    H252486   3.741   4.429  12.011  2.0378  0.8398  0.3855
 9431TIP3   OH252487   3.631   6.149  10.389 -0.2660 -0.3270  0.4679
 9431TIP3    H152488   3.555   6.186  10.435 -0.5783 -1.6078  1.0395
 9431TIP3    H252489   3.705   6.174  10.443 -0.4619 -0.4398  0.7949
 9432TIP3   OH252490   2.603   4.114   9.702  0.0283 -0.1968  0.0817
 9432TIP3    H152491   2.507   4.119   9.699  0.0389  2.7022  0.7341
 9432TIP3    H252492   2.629   4.093   9.613 -1.2121  0.0894 -0.3672
 9433TIP3   OH252493   3.543   2.164  10.196  0.0426  0.1518 -0.1480
 9433TIP3    H152494   3.543   2.076  10.158 -0.4656 -0.2981  0.8616
 9433TIP3    H252495   3.534   2.150  10.290  0.8729  1.2526  0.1236
 9434TIP3   OH252496   2.875   1.094  10.414 -0.1904 -0.2016 -0.5328
 9434TIP3    H152497   2.895   1.121  10.504 -1.7649  1.8695 -0.7180
 9434TIP3    H252498   2.927   1.153  10.359 -1.8513  0.9736 -0.9410
 9435TIP3   OH252499   2.947   0.441   9.945  0.2759  0.1447 -0.1906
 9435TIP3    H152500   2.898   0.377   9.893  1.7851 -1.0509 -0.2286
 9435TIP3    H252501   2.946   0.521   9.892  0.1443 -0.4863 -1.1654
 9436TIP3   OH252502   3.075   0.769  11.286 -0.0343  0.2493  0.1005
 9436TIP3    H152503   3.096   0.775  11.379 -0.9183 -1.4919  0.4494
 9436TIP3    H252504   3.097   0.855  11.251  1.7719  0.4655  1.6046
 9437TIP3   OH252505   0.874   3.625  11.045  0.1999 -0.0703 -0.1112
 9437TIP3    H152506   0.962   3.651  11.070 -0.2374 -0.9810  2.7822
 9437TIP3    H252507   0.823   3.633  11.126 -1.7153 -2.2617 -0.9918
 9438TIP3   OH252508   0.021   0.376   9.060 -0.4463  0.0954 -0.5358
 9438TIP3    H152509   0.082   0.302   9.057 -1.0718 -0.4139 -1.0640
 9438TIP3    H252510  -0.062   0.338   9.089 -0.3162  0.9345  1.0529
 9439TIP3   OH252511   2.191   4.317  11.531  0.1411  0.1446 -0.4887
 9439TIP3    H152512   2.196   4.379  11.458 -0.8930  0.0133 -0.6858
 9439TIP3    H252513   2.211   4.370  11.608 -0.0530  0.5807 -0.7293
 9440TIP3   OH252514   5.036   5.670   9.228 -0.2995  0.3159  0.1545
 9440TIP3    H152515   4.981   5.592   9.235  0.7434 -0.4172  0.6409
 9440TIP3    H252516   5.080   5.676   9.313 -0.4875  1.5424  0.1771
 9441TIP3   OH252517   0.416   5.504   8.678  0.2769 -0.3912 -0.4385
 9441TIP3    H152518   0.495   5.507   8.624 -0.0702  1.7371 -0.9232
 9441TIP3    H252519   0.345   5.487   8.617  0.2146 -1.0482 -0.1882
 9442TIP3   OH252520   4.106   2.802  11.301 -0.1630  0.0222  0.1311
 9442TIP3    H152521   4.180   2.838  11.252  0.5364  0.4024  1.4366
 9442TIP3    H252522   4.128   2.710  11.315 -0.8500 -0.3699 -1.1192
 9443TIP3   OH252523   0.317   1.660  10.380  0.1141  0.1954  0.0098
 9443TIP3    H152524   0.329   1.636  10.472  0.0668  2.0164  0.5262
 9443TIP3    H252525   0.293   1.578  10.337  2.5174 -1.2027  1.1275
 9444TIP3   OH252526   4.801   1.870   9.291 -0.3400  0.1913  0.3866
 9444TIP3    H152527   4.752   1.832   9.218 -3.8227  0.6157  2.2755
 9444TIP3    H252528   4.788   1.809   9.363  1.8091  0.4755  1.0821
 9445TIP3   OH252529   6.375   2.537  11.074  0.0232  0.6387 -0.0594
 9445TIP3    H152530   6.355   2.461  11.129  0.1591 -0.5131 -1.5468
 9445TIP3    H252531   6.358   2.612  11.131 -0.0734 -0.4881  1.4701
 9446TIP3   OH252532   3.222   3.400  20.074  0.3303 -0.5339 -0.3461
 9446TIP3    H152533   3.198   3.347  20.149 -2.3195  0.4285 -0.4064
 9446TIP3    H252534   3.141   3.408  20.023  2.1114 -1.6501 -3.6920
 9447TIP3   OH252535   0.225   6.433   9.930  0.1449  0.7687  0.8778
 9447TIP3    H152536   0.283   6.375   9.979  0.6037  0.8537  0.4521
 9447TIP3    H252537   0.173   6.478   9.997  0.3571  0.4656  1.2488
 9448TIP3   OH252538   0.814   1.010   9.646  0.2480 -0.4161 -0.1211
 9448TIP3    H152539   0.870   0.977   9.576  0.8814  1.0344 -0.3332
 9448TIP3    H252540   0.729   1.024   9.604  0.3929 -0.3510 -0.3955
 9449TIP3   OH252541   2.293   3.640   9.116  0.4236 -0.4914  0.7921
 9449TIP3    H152542   2.268   3.652   9.024  2.4079  2.7907  0.5484
 9449TIP3    H252543   2.215   3.666   9.165  0.2159  0.3790  0.0337
 9450TIP3   OH252544   5.751   0.703   9.777  0.7292 -0.3863 -0.3320
 9450TIP3    H152545   5.747   0.766   9.850  1.4077 -0.7380  0.0245
 9450TIP3    H252546   5.827   0.730   9.727  1.1992 -1.0777 -0.0159
 9451TIP3   OH252547   4.903   3.692  11.087  0.1620  0.3090  0.2479
 9451TIP3    H152548   4.947   3.606  11.084 -0.9332 -0.3746  2.1270
 9451TIP3    H252549   4.906   3.717  11.180 -0.7435  1.6650 -0.0634
 9452TIP3   OH252550   2.110   6.772   8.655 -0.1617  0.3494  0.1517
 9452TIP3    H152551   2.128   6.865   8.668 -0.5489  0.4893 -0.2747
 9452TIP3    H252552   2.017   6.763   8.678 -0.1867  0.1160 -0.0439
 9453TIP3   OH252553   1.933   4.077  10.239 -0.1162 -0.0545 -0.1868
 9453TIP3    H152554   1.982   4.151  10.202  0.0232  0.2526  0.5937
 9453TIP3    H252555   1.852   4.075  10.188 -0.7831  1.5696  0.6999
 9454TIP3   OH252556   0.823   3.149   9.386  0.0724  0.5232 -0.1613
 9454TIP3    H152557   0.764   3.104   9.447 -1.9738  2.2622 -0.7309
 9454TIP3    H252558   0.888   3.083   9.362  1.1495 -0.1896  4.0125
 9455TIP3   OH252559   0.925   1.236   9.788 -0.7797  0.6725 -0.1063
 9455TIP3    H152560   1.008   1.203   9.753  0.2584  1.3221  1.6147
 9455TIP3    H252561   0.863   1.165   9.773  0.6556 -0.8087  0.6720
 9456TIP3   OH252562   0.627   5.429  10.335 -0.4330  0.3551  0.1172
 9456TIP3    H152563   0.672   5.450  10.417  0.7504  0.1492 -0.4667
 9456TIP3    H252564   0.646   5.502  10.277  0.4046 -0.4083 -0.6103
 9457TIP3   OH252565   3.597   5.538  10.418 -0.1758  0.3825 -0.4282
 9457TIP3    H152566   3.538   5.463  10.419 -2.6034  2.1599 -0.5949
 9457TIP3    H252567   3.542   5.612  10.445  1.1810  2.7154 -3.4358
 9458TIP3   OH252568   0.720   2.767  10.368  0.1718 -0.4953 -0.3955
 9458TIP3    H152569   0.727   2.774  10.272  0.6068 -1.0889 -0.4112
 9458TIP3    H252570   0.650   2.704  10.382 -0.4948  0.2613 -0.3098
 9459TIP3   OH252571   6.424   2.609  10.695 -0.6402 -0.1383 -0.0059
 9459TIP3    H152572   6.478   2.532  10.711  0.0215  0.0583 -1.1796
 9459TIP3    H252573   6.428   2.659  10.776  0.5424 -0.3779  0.0948
 9460TIP3   OH252574   5.131   4.403   8.620 -0.4089 -0.2162  0.4745
 9460TIP3    H152575   5.141   4.493   8.588 -0.2188 -0.5924 -0.5316
 9460TIP3    H252576   5.159   4.407   8.712  2.2866  0.1888 -0.2997
 9461TIP3   OH252577   3.989   2.582   8.640  0.5341  0.5589  0.1370
 9461TIP3    H152578   4.040   2.664   8.639 -0.2103  1.0342 -1.2566
 9461TIP3    H252579   3.925   2.596   8.710  2.8405 -0.4540  2.6429
 9462TIP3   OH252580   1.749   0.386   9.851 -0.7188  0.2463 -0.0114
 9462TIP3    H152581   1.773   0.306   9.898 -0.2330  0.1178 -0.4668
 9462TIP3    H252582   1.808   0.388   9.775 -0.1365  1.4680  0.4447
 9463TIP3   OH252583   2.220   1.685   9.804  0.2224 -0.0638 -0.1802
 9463TIP3    H152584   2.164   1.680   9.726  0.1811  1.0591 -0.2433
 9463TIP3    H252585   2.164   1.656   9.876  0.2299 -1.0175 -0.5355
 9464TIP3   OH252586   5.860   0.681   8.894 -0.0899 -0.8054 -0.2050
 9464TIP3    H152587   5.803   0.615   8.934  0.1935  0.1467  1.9113
 9464TIP3    H252588   5.870   0.748   8.962 -0.3923  1.4654 -2.2678
 9465TIP3   OH252589   1.228   2.784   9.720 -0.0768  0.3878 -0.4398
 9465TIP3    H152590   1.226   2.714   9.786 -1.4570 -0.0559 -0.9056
 9465TIP3    H252591   1.272   2.744   9.645 -0.8812 -0.0119 -0.7123
 9466TIP3   OH252592   1.241   1.932  10.525 -0.1035  0.7268  0.0655
 9466TIP3    H152593   1.184   1.970  10.459 -1.7724 -0.1579  0.9434
 9466TIP3    H252594   1.212   1.970  10.608 -1.8036 -2.2046  0.9760
 9467TIP3   OH252595   5.826   3.666  10.535  0.8920 -0.5980  0.2385
 9467TIP3    H152596   5.921   3.679  10.542  0.6928  1.8103 -0.7023
 9467TIP3    H252597   5.793   3.686  10.623  1.1981 -0.9221  0.4306
 9468TIP3   OH252598   4.551   5.617  10.156 -0.2987  1.1809  0.4227
 9468TIP3    H152599   4.556   5.558  10.080 -3.6412  2.0307 -0.6587
 9468TIP3    H252600   4.461   5.606  10.187  0.9895  0.7388  4.4844
 9469TIP3   OH252601   0.467   5.750  11.346  0.4334  0.1252  0.6495
 9469TIP3    H152602   0.372   5.751  11.336  0.3759 -0.6391  1.0158
 9469TIP3    H252603   0.500   5.743  11.257  0.0925 -1.0648  0.5970
 9470TIP3   OH252604   4.858   5.395  10.014  0.1332 -0.5955 -0.7126
 9470TIP3    H152605   4.764   5.385  10.032  0.3668  0.1156  1.0965
 9470TIP3    H252606   4.867   5.486   9.986  0.3357 -0.5389 -0.4622
 9471TIP3   OH252607   2.204   0.327  10.098 -0.4261  0.3252 -0.3599
 9471TIP3    H152608   2.119   0.334  10.055  0.3745  1.8302 -1.8287
 9471TIP3    H252609   2.237   0.416  10.100 -0.0635  0.2408  2.8252
 9472TIP3   OH252610   3.011   3.231   8.718  0.1413 -0.3112  0.1681
 9472TIP3    H152611   3.067   3.171   8.669 -1.0074 -0.9187 -0.4389
 9472TIP3    H252612   2.984   3.182   8.795  1.6281  0.5091  1.2815
 9473TIP3   OH252613   1.793   2.524   8.522 -0.4506  0.4899 -0.0324
 9473TIP3    H152614   1.809   2.460   8.591  1.8577  2.3853  1.3598
 9473TIP3    H252615   1.860   2.507   8.456 -0.5963  0.7114 -0.2421
 9474TIP3   OH252616   4.211   1.286  10.528  0.1542 -0.1300  0.3237
 9474TIP3    H152617   4.179   1.237  10.604 -0.0705 -0.3274  0.1064
 9474TIP3    H252618   4.225   1.218  10.461  0.2306  0.0572  0.1504
 9475TIP3   OH252619   2.434   0.053  11.040  0.5277  0.1335 -0.0454
 9475TIP3    H152620   2.375   0.078  11.111  0.0500 -1.5944  0.1920
 9475TIP3    H252621   2.515   0.100  11.060 -0.7277  2.6572 -0.4493
 9476TIP3   OH252622   2.513   1.354   8.980  0.5466 -0.6511  0.0153
 9476TIP3    H152623   2.498   1.383   8.890 -1.5752  0.3166  0.6275
 9476TIP3    H252624   2.573   1.419   9.016  0.2291 -0.1956 -0.2659
 9477TIP3   OH252625   0.166   0.424   9.473  0.2137  0.4768 -0.5979
 9477TIP3    H152626   0.177   0.447   9.565 -0.2759  0.1721 -0.4550
 9477TIP3    H252627   0.124   0.501   9.434  2.0993  1.3503 -0.9887
 9478TIP3   OH252628   6.586   0.960   9.321 -0.0913 -0.1645 -0.1206
 9478TIP3    H152629   6.557   0.949   9.411 -0.5132 -1.0669 -0.3587
 9478TIP3    H252630   6.641   0.883   9.304 -0.3240 -0.1978 -0.7492
 9479TIP3   OH252631   4.130   1.768  10.224 -0.2393  0.0337 -0.5381
 9479TIP3    H152632   4.065   1.703  10.197  0.4713 -0.1956 -1.7612
 9479TIP3    H252633   4.209   1.717  10.242  0.3626  0.5346 -1.6404
 9480TIP3   OH252634   3.108   5.943  10.422 -0.0530  0.1246  0.4283
 9480TIP3    H152635   3.055   5.964  10.499 -1.5981 -2.1985  0.1247
 9480TIP3    H252636   3.196   5.928  10.456 -0.6835 -0.7169  1.7619
 9481TIP3   OH252637   4.585   3.434  11.585 -0.1791  0.3893  0.3195
 9481TIP3    H152638   4.615   3.502  11.645 -0.3841  0.8648 -0.0994
 9481TIP3    H252639   4.635   3.357  11.608  0.3187  0.7849  0.5761
 9482TIP3   OH252640   2.155   5.653  11.435  0.2536 -0.2574  0.3929
 9482TIP3    H152641   2.153   5.566  11.397  0.9249  0.5741 -1.6495
 9482TIP3    H252642   2.074   5.695  11.407  0.6877  0.3187 -0.0387
 9483TIP3   OH252643   5.110   2.296  10.502 -0.2265  0.2711 -0.0999
 9483TIP3    H152644   5.130   2.260  10.416 -0.6494 -0.2774  0.0292
 9483TIP3    H252645   5.018   2.273  10.517 -0.3593  0.9660  0.1996
 9484TIP3   OH252646   5.414   3.354  10.304  0.6359 -0.3049  0.7261
 9484TIP3    H152647   5.432   3.418  10.372 -2.8245  0.0719  1.5059
 9484TIP3    H252648   5.461   3.275  10.331  0.4029  0.2463  2.8525
 9485TIP3   OH252649   2.012   0.892  11.375 -0.0334 -0.0624  0.1756
 9485TIP3    H152650   2.042   0.908  11.464  1.1349  1.2286 -0.4065
 9485TIP3    H252651   1.916   0.895  11.381  0.0377  0.6941  1.2699
 9486TIP3   OH252652   5.468   5.391  11.677  0.4510 -0.5810 -0.1915
 9486TIP3    H152653   5.502   5.400  11.588 -1.8777 -1.8494 -1.2598
 9486TIP3    H252654   5.448   5.481  11.703  1.6603 -0.1369 -0.6914
 9487TIP3   OH252655   5.989   0.961  10.978 -0.0651 -0.1992  0.0533
 9487TIP3    H152656   5.932   0.894  10.941  2.5203 -2.4223 -0.2597
 9487TIP3    H252657   6.002   1.024  10.908 -1.2002 -0.2934 -0.2474
 9488TIP3   OH252658   0.733   3.491   9.185 -0.2991  0.1009 -0.1102
 9488TIP3    H152659   0.660   3.535   9.229  0.4858 -0.5542  1.9859
 9488TIP3    H252660   0.810   3.543   9.208  0.2916 -0.9231  0.3046
 9489TIP3   OH252661   4.896   4.200  12.170  0.0976 -0.0077 -0.1999
 9489TIP3    H152662   4.871   4.174  12.259 -0.7652  0.0326 -0.4217
 9489TIP3    H252663   4.820   4.178  12.116  0.7108 -0.2686 -0.9776
 9490TIP3   OH252664   6.460   6.327  10.638  0.4975 -0.1002  0.0914
 9490TIP3    H152665   6.445   6.419  10.662 -1.0639  0.7637 -3.6304
 9490TIP3    H252666   6.554   6.315  10.651  0.9072  2.3088 -0.1350
 9491TIP3   OH252667   4.266   2.859  10.026  0.1174  0.0394  1.0609
 9491TIP3    H152668   4.205   2.840  10.097 -0.3430  0.0453  0.6623
 9491TIP3    H252669   4.281   2.775   9.983  0.3338  0.0522  1.1053
 9492TIP3   OH252670   2.888   4.052   9.743 -0.2032 -0.0719 -0.2911
 9492TIP3    H152671   2.910   4.023   9.831 -1.2388  1.1879  0.4197
 9492TIP3    H252672   2.792   4.053   9.741 -0.1895  0.1585 -1.3449
 9493TIP3   OH252673   5.502   0.118  11.240  0.0267  0.1797 -0.0377
 9493TIP3    H152674   5.422   0.166  11.260  0.6573  0.6806  1.3376
 9493TIP3    H252675   5.474   0.027  11.233 -0.5289  0.2328  1.3229
 9494TIP3   OH252676   6.240   6.060  11.615 -0.2372 -0.3426 -0.0435
 9494TIP3    H152677   6.163   6.101  11.575 -0.3499  0.9828  1.4345
 9494TIP3    H252678   6.313   6.115  11.588 -0.0579 -0.5236  0.0695
 9495TIP3   OH252679   3.787   1.213  10.554  0.4253 -0.5167 -0.3062
 9495TIP3    H152680   3.814   1.128  10.520  0.8471 -0.3970 -0.2815
 9495TIP3    H252681   3.839   1.276  10.504  0.4660 -0.2978  0.0079
 9496TIP3   OH252682   3.895   1.551  10.997  0.6020  0.3332 -0.5622
 9496TIP3    H152683   3.913   1.530  10.906  0.8743 -0.5388 -0.3207
 9496TIP3    H252684   3.979   1.539  11.042  1.1989  3.4547 -0.6156
 9497TIP3   OH252685   4.502   2.164  11.703 -0.0990  0.0211 -0.7165
 9497TIP3    H152686   4.518   2.256  11.680  0.5927 -0.2214 -1.2282
 9497TIP3    H252687   4.464   2.167  11.790 -0.3072  0.8125 -0.8266
 9498TIP3   OH252688   4.004   1.057   9.709  0.1891  1.1299  0.3383
 9498TIP3    H152689   4.050   1.136   9.680  1.1015  0.5967  0.3017
 9498TIP3    H252690   4.010   1.059   9.805  1.9017  0.1515  0.2918
 9499TIP3   OH252691   0.725   2.756  11.196 -0.1561 -0.3162  0.1493
 9499TIP3    H152692   0.802   2.799  11.232  0.0911 -0.1940 -0.5285
 9499TIP3    H252693   0.655   2.779  11.258  0.4047 -0.7091  0.9510
 9500TIP3   OH252694   0.936   6.235  10.252 -0.0221 -0.6858 -0.3832
 9500TIP3    H152695   0.860   6.193  10.211 -0.4296  0.1185 -0.4614
 9500TIP3    H252696   0.926   6.218  10.345 -0.1597 -0.7877 -0.4160
 9501TIP3   OH252697   5.317   3.550   8.510  0.2098 -0.4239 -0.8325
 9501TIP3    H152698   5.249   3.584   8.569  1.7224  1.0738  0.1586
 9501TIP3    H252699   5.352   3.628   8.467  2.0906 -0.9861 -0.4062
 9502TIP3   OH252700   5.979   1.375  10.745 -0.0095  0.3737 -1.0358
 9502TIP3    H152701   6.049   1.425  10.703  0.4943  0.1169 -0.5238
 9502TIP3    H252702   5.959   1.424  10.824 -0.1237  0.2327 -0.9774
 9503TIP3   OH252703   3.092   5.547  10.810 -0.2120 -0.0841  0.0638
 9503TIP3    H152704   3.028   5.490  10.852  0.5009 -1.6658 -0.9190
 9503TIP3    H252705   3.177   5.513  10.839  0.2385  0.3302 -0.7404
 9504TIP3   OH252706   2.930   4.404  10.225 -0.5468 -0.4050 -0.4860
 9504TIP3    H152707   2.870   4.346  10.178 -2.2097  0.0683  0.9686
 9504TIP3    H252708   2.895   4.492  10.211 -1.8956 -0.3188  2.5550
 9505TIP3   OH252709   5.943   3.900  10.350 -0.0575  0.1026  0.5137
 9505TIP3    H152710   6.015   3.962  10.343 -0.2227  0.0755 -3.1826
 9505TIP3    H252711   5.975   3.832  10.409  2.1899  1.0391  0.4608
 9506TIP3   OH252712   5.822   0.349  10.305 -0.2954 -0.1160  0.0375
 9506TIP3    H152713   5.747   0.363  10.362 -1.4783 -1.3013 -1.1420
 9506TIP3    H252714   5.816   0.256  10.280  0.5504  0.1983 -1.4540
 9507TIP3   OH252715   0.027   6.489  10.162 -0.0467  0.9955 -0.5181
 9507TIP3    H152716   0.006   6.516  10.251  0.6767  0.0959 -0.0613
 9507TIP3    H252717  -0.054   6.450  10.128  0.2057 -0.4076  0.4311
 9508TIP3   OH252718   0.193   3.587   8.528 -0.4056  1.1376  0.1466
 9508TIP3    H152719   0.098   3.584   8.515 -0.4586  1.7177  0.4074
 9508TIP3    H252720   0.208   3.534   8.606 -0.4828  0.8101 -0.0581
 9509TIP3   OH252721   6.332   3.021  10.044 -0.0114  0.2614 -0.7595
 9509TIP3    H152722   6.241   3.049  10.055 -0.2586 -0.9091  0.5846
 9509TIP3    H252723   6.377   3.056  10.121  0.0347 -1.4377  0.0490
 9510TIP3   OH252724   0.536   5.125  10.411 -0.5558 -0.2688  0.4370
 9510TIP3    H152725   0.502   5.191  10.472  0.7742  0.7760  0.0991
 9510TIP3    H252726   0.475   5.052  10.418 -1.6713  0.7140  1.3629
 9511TIP3   OH252727   2.615   4.191  12.334  0.4402 -0.6773  0.1865
 9511TIP3    H152728   2.642   4.105  12.301  1.2759 -0.4098  0.1542
 9511TIP3    H252729   2.521   4.182  12.347  0.7075 -2.0287  1.4603
 9512TIP3   OH252730   5.680   1.249  10.139  0.3871  0.1896 -0.4613
 9512TIP3    H152731   5.694   1.312  10.068  0.7270  0.4474 -0.1724
 9512TIP3    H252732   5.747   1.271  10.204 -0.5347  0.6208  0.3884
 9513TIP3   OH252733   4.853   2.222  10.477  0.0998 -0.4367 -0.0473
 9513TIP3    H152734   4.801   2.182  10.408 -2.3716  1.5902  0.4832
 9513TIP3    H252735   4.826   2.177  10.557 -0.3264  0.1401  0.1379
 9514TIP3   OH252736   5.215   6.653  10.133  0.3106 -0.0609  0.1215
 9514TIP3    H152737   5.264   6.691  10.059  0.1863 -0.5821 -0.2323
 9514TIP3    H252738   5.277   6.655  10.206  0.2152  1.0989  0.2013
 9515TIP3   OH252739   6.148   6.334   8.804  0.1532  0.1335  0.5517
 9515TIP3    H152740   6.108   6.396   8.743  1.6155  0.1196 -0.4831
 9515TIP3    H252741   6.078   6.272   8.825 -1.7304  2.7230  2.5683
 9516TIP3   OH252742   0.282   1.441   9.065  0.1738  0.0584 -1.0734
 9516TIP3    H152743   0.298   1.514   9.125 -1.7562  0.7774 -1.3737
 9516TIP3    H252744   0.320   1.469   8.982 -1.0204  0.9759 -1.3283
 9517TIP3   OH252745   3.002   3.109   9.791 -0.0437 -0.0918 -0.0958
 9517TIP3    H152746   2.974   3.070   9.874 -1.6845  2.4098  0.6430
 9517TIP3    H252747   2.931   3.167   9.766  1.6143  1.3447 -1.8328
 9518TIP3   OH252748   0.461   6.061   9.639  0.2521 -0.0841 -0.1663
 9518TIP3    H152749   0.449   5.979   9.688  0.4751  0.6117  1.0691
 9518TIP3    H252750   0.378   6.107   9.650 -0.1555 -0.4533 -1.5002
 9519TIP3   OH252751   5.122   0.687  11.858  0.1509  0.3191 -0.7769
 9519TIP3    H152752   5.059   0.732  11.915  1.0930  0.1522  0.4152
 9519TIP3    H252753   5.105   0.594  11.872  0.4583  0.2759 -0.7043
 9520TIP3   OH252754   5.537   3.297   9.270 -0.3094  0.0138  0.2687
 9520TIP3    H152755   5.565   3.275   9.358  1.2386  0.1316 -0.1626
 9520TIP3    H252756   5.502   3.215   9.235  1.1977 -0.6406  0.2274
 9521TIP3   OH252757   1.256   1.435   9.608 -0.8786 -0.0573  0.1203
 9521TIP3    H152758   1.351   1.449   9.605 -0.7209 -0.4749  1.9746
 9521TIP3    H252759   1.219   1.518   9.578  0.0535  0.0380 -0.8396
 9522TIP3   OH252760   2.180   1.757  11.089 -0.7091  0.8854 -0.9361
 9522TIP3    H152761   2.141   1.703  11.020 -0.1746 -0.1031 -0.4899
 9522TIP3    H252762   2.131   1.735  11.167  2.8966 -3.3875  0.5825
 9523TIP3   OH252763   6.779   1.041   8.972 -0.5896  0.5997  0.1118
 9523TIP3    H152764   6.793   1.116   9.031  0.4473 -1.2817  2.4382
 9523TIP3    H252765   6.760   0.968   9.031 -0.6955 -1.1705 -2.0116
 9524TIP3   OH252766   3.815   4.013  10.670  0.3098 -0.3551  0.0704
 9524TIP3    H152767   3.795   4.100  10.704  0.5662 -0.3523  0.2193
 9524TIP3    H252768   3.730   3.976  10.648  0.1785 -0.1689  0.2541
 9525TIP3   OH252769   5.354   3.522   9.346 -0.2368  0.2421 -0.8899
 9525TIP3    H152770   5.386   3.600   9.301 -0.9367 -0.1558 -2.1282
 9525TIP3    H252771   5.433   3.474   9.370  0.2367  1.5677  0.4070
 9526TIP3   OH252772   3.949   3.206   8.857  0.1862  0.4968 -0.1079
 9526TIP3    H152773   3.951   3.242   8.946 -1.2996  0.6356 -0.1033
 9526TIP3    H252774   3.867   3.156   8.854  1.3403 -1.4601 -0.6703
 9527TIP3   OH252775   2.120   2.122  10.596 -0.0052  0.3153 -0.4373
 9527TIP3    H152776   2.046   2.122  10.658 -0.6450  2.4650 -1.0964
 9527TIP3    H252777   2.079   2.117  10.510  0.7261 -0.0400 -0.7705
 9528TIP3   OH252778   2.730   2.988  12.122  0.1515  0.4435 -0.1956
 9528TIP3    H152779   2.756   3.073  12.087  1.2661  1.3648  2.6373
 9528TIP3    H252780   2.684   3.007  12.203 -0.3259 -1.6244  0.0851
 9529TIP3   OH252781   0.420   5.026  11.820 -0.0887 -0.7942 -0.1606
 9529TIP3    H152782   0.352   4.963  11.844  0.7074 -0.9332  1.8995
 9529TIP3    H252783   0.469   5.041  11.901  2.3005 -0.6377 -1.5345
 9530TIP3   OH252784   1.387   4.145  12.488  0.8173  1.0324  0.4592
 9530TIP3    H152785   1.339   4.178  12.411  0.6169  2.7765  1.2741
 9530TIP3    H252786   1.439   4.220  12.517  2.8015 -0.3351  0.5933
 9531TIP3   OH252787   6.702   3.682  10.732 -0.2075  0.2417 -0.3003
 9531TIP3    H152788   6.628   3.624  10.715 -0.9374  1.3790 -1.1751
 9531TIP3    H252789   6.779   3.631  10.706 -0.7541 -0.6117 -0.2876
 9532TIP3   OH252790   2.803   1.440   9.627  0.1934 -0.2640 -0.0772
 9532TIP3    H152791   2.815   1.476   9.715 -1.8315  1.2208 -0.3299
 9532TIP3    H252792   2.734   1.374   9.636  1.1115 -1.2929 -0.3131
 9533TIP3   OH252793   1.483   5.184  10.573  0.2404 -0.0909 -0.0222
 9533TIP3    H152794   1.421   5.114  10.593 -0.1689 -0.1453 -1.3280
 9533TIP3    H252795   1.569   5.146  10.592  0.0955 -1.3235 -1.5879
 9534TIP3   OH252796   4.639   6.605  11.600  0.0605 -0.4406  0.2557
 9534TIP3    H152797   4.711   6.560  11.556 -0.3429 -0.9065  0.0571
 9534TIP3    H252798   4.597   6.537  11.652 -0.3734 -0.2227  0.1942
 9535TIP3   OH252799   3.230   4.713  11.306  0.5189  0.5479 -0.6821
 9535TIP3    H152800   3.196   4.791  11.351  1.0476 -0.5738  1.8780
 9535TIP3    H252801   3.166   4.695  11.238 -3.0120 -0.2086  2.4924
 9536TIP3   OH252802   5.441   4.794  11.450  1.1818 -0.0633  0.1882
 9536TIP3    H152803   5.520   4.763  11.494  2.8634  0.7231 -2.0505
 9536TIP3    H252804   5.433   4.886  11.477  2.0108  0.3163 -0.7557
 9537TIP3   OH252805   2.899   2.211   9.572  0.0992 -0.3896  0.3301
 9537TIP3    H152806   2.912   2.288   9.627  2.8298 -0.0556 -0.5940
 9537TIP3    H252807   2.929   2.138   9.626  0.6147 -0.3470  0.1145
 9538TIP3   OH252808   6.515   6.424  10.288 -0.3001 -0.0387  0.3309
 9538TIP3    H152809   6.532   6.500  10.343 -0.1622  0.2127 -0.0573
 9538TIP3    H252810   6.421   6.408  10.298  0.0980 -1.4821  2.5431
 9539TIP3   OH252811   1.916   5.446  10.226 -0.3007 -0.1349  0.2135
 9539TIP3    H152812   1.834   5.397  10.235 -0.2583  0.0331  1.9502
 9539TIP3    H252813   1.923   5.495  10.308 -0.1514  2.5191 -1.2902
 9540TIP3   OH252814   1.813   3.900   9.291 -0.2386 -0.5360  0.5050
 9540TIP3    H152815   1.818   3.839   9.365  0.3008 -0.3625  0.6160
 9540TIP3    H252816   1.789   3.984   9.331  0.2527 -0.3965  0.5127
 9541TIP3   OH252817   6.780   3.149  11.743 -0.3815 -0.1030 -1.1387
 9541TIP3    H152818   6.764   3.225  11.687  1.4128  0.2357 -1.2671
 9541TIP3    H252819   6.860   3.171  11.791  0.7212 -2.2447 -1.8507
 9542TIP3   OH252820   3.092   6.699  10.809 -0.2657  0.4193 -0.1757
 9542TIP3    H152821   3.082   6.677  10.901 -0.1852  1.2362  0.0373
 9542TIP3    H252822   3.027   6.767  10.793 -0.6283 -0.0761 -0.8517
 9543TIP3   OH252823   3.419   4.476  12.014 -0.2415 -0.3293 -0.4297
 9543TIP3    H152824   3.388   4.522  12.092  0.5513  0.3656 -0.5017
 9543TIP3    H252825   3.513   4.495  12.011 -0.5927  1.4680 -2.7122
 9544TIP3   OH252826   2.284   0.585  10.033 -0.5605  0.1623  0.1263
 9544TIP3    H152827   2.283   0.648  10.105  0.6889  0.7184 -0.3088
 9544TIP3    H252828   2.369   0.598   9.990 -0.1413 -1.9862  0.1677
 9545TIP3   OH252829   4.252   3.998  12.174 -0.5518  0.1158 -0.5070
 9545TIP3    H152830   4.232   3.977  12.265  1.2814  0.2099 -0.0611
 9545TIP3    H252831   4.223   3.921  12.125 -0.6640 -0.3374  0.2595
 9546TIP3   OH252832   3.304   3.224  11.858  0.1054  0.0130  0.4394
 9546TIP3    H152833   3.334   3.145  11.902 -1.2293 -1.2302 -0.7754
 9546TIP3    H252834   3.331   3.296  11.916  0.0636 -1.4037  2.2900
 9547TIP3   OH252835   4.116   1.483  10.192  0.5714  0.0065  0.1019
 9547TIP3    H152836   4.158   1.434  10.121  0.3213  1.1747 -0.8831
 9547TIP3    H252837   4.032   1.438  10.205 -0.3617  1.0551 -1.8886
 9548TIP3   OH252838   5.586   4.390  11.232  0.0403  0.2978  0.2822
 9548TIP3    H152839   5.517   4.438  11.187  0.1090 -0.5066 -0.7317
 9548TIP3    H252840   5.561   4.391  11.324 -0.9164  0.6720  0.0241
 9549TIP3   OH252841   2.029   5.564  11.025  0.0229  0.6711 -0.3413
 9549TIP3    H152842   2.110   5.514  11.024 -0.0652  0.4988  0.5171
 9549TIP3    H252843   1.964   5.506  10.984  0.1956  0.5804 -0.4899
 9550TIP3   OH252844   3.561   0.401   9.005 -0.1685  0.5461 -0.0636
 9550TIP3    H152845   3.560   0.317   8.960  1.4983 -0.1297  1.0316
 9550TIP3    H252846   3.651   0.433   8.993  0.9424 -0.4530  3.9387
 9551TIP3   OH252847   3.976   4.501   8.684  0.1685 -0.2012  0.0418
 9551TIP3    H152848   4.036   4.477   8.614  1.7716  1.4466  0.7711
 9551TIP3    H252849   4.032   4.531   8.756 -1.4689  2.1867  0.4797
 9552TIP3   OH252850   2.758   2.888   9.661 -0.0789 -0.2894 -0.0190
 9552TIP3    H152851   2.736   2.801   9.695  1.9220 -1.1145 -0.7147
 9552TIP3    H252852   2.697   2.947   9.706 -0.8290 -1.9183  1.2050
 9553TIP3   OH252853   1.462   2.832  11.315 -0.2300  0.0273  0.0759
 9553TIP3    H152854   1.369   2.809  11.313 -0.4550  0.6584  1.7156
 9553TIP3    H252855   1.478   2.873  11.230 -1.3048 -0.6065 -0.4510
 9554TIP3   OH252856   3.717   3.049   9.427  0.6608 -0.5400  0.1619
 9554TIP3    H152857   3.738   3.141   9.443 -0.7503  0.3752 -2.5276
 9554TIP3    H252858   3.621   3.046   9.424  0.6948 -1.9556 -0.3570
 9555TIP3   OH252859   3.537   5.985   9.979 -0.1943 -0.7939  0.6294
 9555TIP3    H152860   3.545   5.908   9.922 -0.9543 -0.5221  0.1246
 9555TIP3    H252861   3.461   6.032   9.944  1.4267  1.2509 -0.3548
 9556TIP3   OH252862   5.943   3.910  11.495  0.4395 -0.0228 -0.5900
 9556TIP3    H152863   5.873   3.917  11.560  0.8141 -0.0855 -0.1773
 9556TIP3    H252864   5.907   3.853  11.427  0.2588 -0.4373 -0.1519
 9557TIP3   OH252865   0.427   3.989   9.049 -0.4487  0.2454  0.0703
 9557TIP3    H152866   0.437   4.016   9.140  2.0834  0.2131 -0.1054
 9557TIP3    H252867   0.447   3.895   9.050 -1.1742  0.0818 -0.4195
 9558TIP3   OH252868   6.657   4.291  10.916 -0.2077 -0.2227  0.3609
 9558TIP3    H152869   6.644   4.211  10.965 -0.3723  0.5412  1.6081
 9558TIP3    H252870   6.751   4.309  10.922 -0.4449  0.6824  1.7497
 9559TIP3   OH252871   6.241   4.590  11.400 -0.3967 -0.2042  0.3649
 9559TIP3    H152872   6.175   4.587  11.469 -0.3399  0.2874  0.4483
 9559TIP3    H252873   6.283   4.504  11.403 -0.5772 -0.2808  0.7634
 9560TIP3   OH252874   4.822   6.212  10.950  0.0880  0.0605 -0.6645
 9560TIP3    H152875   4.805   6.265  10.872  0.5832  0.2826 -0.6285
 9560TIP3    H252876   4.794   6.267  11.023  0.4523  0.2141 -0.6365
 9561TIP3   OH252877   5.975   6.335  11.239  0.2236  0.2074  0.0676
 9561TIP3    H152878   5.977   6.418  11.191 -0.2303  0.3848  0.3420
 9561TIP3    H252879   5.924   6.276  11.183 -1.6208  0.8544  0.9732
 9562TIP3   OH252880   1.148   3.106  10.455  0.7446 -0.4020  0.3739
 9562TIP3    H152881   1.186   3.173  10.399 -2.2692  1.0264 -0.1766
 9562TIP3    H252882   1.154   3.143  10.543 -0.6810  0.5778  0.1018
 9563TIP3   OH252883   1.960   5.486   8.623 -0.5357  0.0902  0.5828
 9563TIP3    H152884   2.003   5.551   8.567  0.5153 -0.0301  1.2258
 9563TIP3    H252885   1.869   5.488   8.595  0.1000 -0.6318 -1.7837
 9564TIP3   OH252886   3.456   4.033  10.476  0.0377 -0.2419 -0.4595
 9564TIP3    H152887   3.460   4.051  10.382 -1.5119 -0.9873 -0.7081
 9564TIP3    H252888   3.453   4.119  10.516 -2.8653  0.1893 -1.3561
 9565TIP3   OH252889   2.572   3.657  10.553  0.3805 -0.3161  0.5961
 9565TIP3    H152890   2.546   3.574  10.514 -1.6448  1.1311 -1.4492
 9565TIP3    H252891   2.530   3.657  10.639  1.8666 -2.0725  1.3775
 9566TIP3   OH252892   6.358   0.223  10.404 -0.2553 -0.4528  0.0386
 9566TIP3    H152893   6.271   0.183  10.392  0.3163 -1.5065 -0.7771
 9566TIP3    H252894   6.388   0.190  10.489 -1.2386  1.1138  1.0582
 9567TIP3   OH252895   3.353   6.216   9.320 -0.0482  0.2541 -0.0189
 9567TIP3    H152896   3.304   6.192   9.242  0.0130 -0.1011  0.0505
 9567TIP3    H252897   3.429   6.158   9.320  0.5474  1.0294 -0.3001
 9568TIP3   OH252898   3.204   0.595   9.840 -0.1893  0.0151  0.5147
 9568TIP3    H152899   3.118   0.619   9.807 -0.3333 -0.5401  0.4719
 9568TIP3    H252900   3.266   0.646   9.787 -0.4586 -0.1491  0.0374
 9569TIP3   OH252901   1.314   1.611   8.899 -0.3339  0.3335  0.1500
 9569TIP3    H152902   1.253   1.672   8.858 -1.2729  0.9821  2.3286
 9569TIP3    H252903   1.394   1.618   8.848 -1.0854  1.8263 -0.8976
 9570TIP3   OH252904   3.610   0.614  10.924 -0.1584  0.0707  0.2774
 9570TIP3    H152905   3.579   0.627  11.014  0.9800  1.2961  0.5251
 9570TIP3    H252906   3.704   0.599  10.933 -0.1563 -0.5487 -0.6666
 9571TIP3   OH252907   4.130   5.825   8.846  0.4208 -0.1635 -0.3945
 9571TIP3    H152908   4.195   5.829   8.916 -0.9058 -0.4576  0.8814
 9571TIP3    H252909   4.110   5.732   8.838 -0.8002  0.0425  0.1350
 9572TIP3   OH252910   5.483   0.477  11.246  0.2163  0.3575 -0.3939
 9572TIP3    H152911   5.564   0.502  11.291 -0.5807 -0.5520  1.6814
 9572TIP3    H252912   5.435   0.560  11.236  0.7765  0.6957 -0.3185
 9573TIP3   OH252913   0.903   2.125   9.706 -0.2085  0.3354  0.0454
 9573TIP3    H152914   0.880   2.170   9.787 -1.3569 -1.2933  0.6517
 9573TIP3    H252915   0.820   2.108   9.663  0.1284 -1.7372  0.1336
 9574TIP3   OH252916   4.780   4.455  11.718  0.0976 -0.5040  0.1141
 9574TIP3    H152917   4.743   4.538  11.746 -0.5660 -1.0498  0.9076
 9574TIP3    H252918   4.862   4.447  11.767  0.1295 -0.3507  0.0859
 9575TIP3   OH252919   3.781   6.668   9.943  0.4817  0.0099 -0.3195
 9575TIP3    H152920   3.844   6.660  10.014 -1.5652 -2.3361  1.4097
 9575TIP3    H252921   3.703   6.624   9.976 -1.5501  1.3885 -2.9512
 9576TIP3   OH252922   2.274   2.413   9.820  0.4005 -0.1100 -0.2081
 9576TIP3    H152923   2.309   2.332   9.784  2.2275  0.9453 -0.9519
 9576TIP3    H252924   2.309   2.417   9.910 -0.1341 -0.3899  0.0171
 9577TIP3   OH252925   1.368   4.678   9.833  0.0100  0.0704  0.1354
 9577TIP3    H152926   1.416   4.628   9.767  0.9568  1.4721 -0.2798
 9577TIP3    H252927   1.368   4.622   9.911  3.4575  0.4929  0.5668
 9578TIP3   OH252928   1.504   6.725   8.552  0.3563 -0.0555  0.5641
 9578TIP3    H152929   1.501   6.668   8.475  0.0642  1.7757 -0.8276
 9578TIP3    H252930   1.572   6.686   8.608  1.1433 -0.9828 -0.9747
 9579TIP3   OH252931   2.065   3.507   9.406  0.0026 -0.2341  0.0953
 9579TIP3    H152932   2.058   3.484   9.314  0.6832  2.8263 -0.8523
 9579TIP3    H252933   2.116   3.436   9.445 -1.0712 -2.0435 -1.6438
 9580TIP3   OH252934   0.929   5.355  10.448 -0.4800  0.0585  0.3018
 9580TIP3    H152935   1.010   5.360  10.499 -1.4133 -0.6027  1.9140
 9580TIP3    H252936   0.886   5.439  10.464 -0.1727  0.3645 -0.4616
 9581TIP3   OH252937   1.060   4.903  10.797  0.1283  0.5389  0.0725
 9581TIP3    H152938   1.089   4.863  10.879  1.0238  2.4223  0.7350
 9581TIP3    H252939   0.980   4.855  10.774  0.0569 -0.2877  1.8385
 9582TIP3   OH252940   1.105   4.932   8.901 -0.1800  0.0329  0.1822
 9582TIP3    H152941   1.030   4.886   8.939  0.5873 -1.7389 -0.3325
 9582TIP3    H252942   1.171   4.931   8.969 -0.0018 -0.0294  0.0087
 9583TIP3   OH252943   1.684   3.192   8.644  0.5308 -0.1298 -0.2631
 9583TIP3    H152944   1.737   3.126   8.600 -0.0887  0.2255 -1.6100
 9583TIP3    H252945   1.744   3.263   8.664  0.8540 -0.3517 -0.4449
 9584TIP3   OH252946   6.602   2.135  10.722  0.2702  0.2683  0.2397
 9584TIP3    H152947   6.681   2.081  10.719 -0.6123 -1.3253  2.6544
 9584TIP3    H252948   6.558   2.109  10.803 -3.1040  0.5816 -1.3052
 9585TIP3   OH252949   0.566   1.290   8.742 -0.6979 -0.9735 -0.1316
 9585TIP3    H152950   0.651   1.326   8.716 -0.8636 -0.5113 -0.0384
 9585TIP3    H252951   0.569   1.199   8.714  0.3682 -1.3462  1.0822
 9586TIP3   OH252952   3.114   6.797   9.388 -0.2535 -0.1129 -0.5525
 9586TIP3    H152953   3.199   6.753   9.382 -1.0762 -1.7435 -0.9713
 9586TIP3    H252954   3.130   6.885   9.352  0.9798 -0.7994 -1.8058
 9587TIP3   OH252955   2.951   1.452  10.603 -0.0121  0.6236 -0.1776
 9587TIP3    H152956   2.950   1.526  10.663 -1.3645 -1.7467  3.0406
 9587TIP3    H252957   2.925   1.377  10.657  1.6353 -2.3156 -3.0923
 9588TIP3   OH252958   4.408   2.652  10.521 -0.3385 -0.3267 -0.1371
 9588TIP3    H152959   4.454   2.584  10.471  0.0067 -1.1242  1.2152
 9588TIP3    H252960   4.356   2.698  10.455 -0.7060 -1.9970 -1.0867
 9589TIP3   OH252961   2.516   0.442  11.172  0.7979  0.4920 -0.0826
 9589TIP3    H152962   2.574   0.505  11.215  0.6951  0.8707 -0.4997
 9589TIP3    H252963   2.503   0.477  11.084  1.2760 -0.4520 -0.5481
 9590TIP3   OH252964   2.696   4.283  10.123  0.0239  0.3447  0.1343
 9590TIP3    H152965   2.613   4.247  10.091 -0.8050  0.1896  2.2764
 9590TIP3    H252966   2.756   4.274  10.049 -1.4244 -1.0724 -0.9493
 9591TIP3   OH252967   3.888   2.400   9.544 -0.4232  0.0085 -0.4767
 9591TIP3    H152968   3.966   2.403   9.488  1.4215 -2.0550  1.7367
 9591TIP3    H252969   3.906   2.463   9.614 -0.5341 -0.7366  0.2415
 9592TIP3   OH252970   5.028   1.414   9.924  0.4662 -0.6516 -0.1830
 9592TIP3    H152971   5.034   1.484   9.988  1.5297  1.5782 -2.5090
 9592TIP3    H252972   5.090   1.348   9.954  1.3637  0.5898  0.7842
 9593TIP3   OH252973   0.015   1.584   9.175 -0.1283 -0.0500 -0.0244
 9593TIP3    H152974   0.089   1.627   9.134  2.6066 -1.7256  2.7025
 9593TIP3    H252975  -0.019   1.649   9.237 -1.6170  1.0255 -1.8806
 9594TIP3   OH252976   4.203   4.293  10.232  0.4838 -0.4499  0.1288
 9594TIP3    H152977   4.200   4.216  10.288 -3.0821 -0.2448  0.3964
 9594TIP3    H252978   4.206   4.258  10.143 -0.3678 -0.8814  0.2685
 9595TIP3   OH252979   1.810   1.207  19.369  0.2079 -0.3654 -0.7352
 9595TIP3    H152980   1.771   1.241  19.450  0.1812 -0.0650 -0.8714
 9595TIP3    H252981   1.778   1.117  19.363  0.9424 -0.7019  0.0616
 9596TIP3   OH252982   6.141   3.163   8.466  0.3286 -0.6700 -0.6088
 9596TIP3    H152983   6.214   3.110   8.433  0.2177 -1.4852  0.3894
 9596TIP3    H252984   6.083   3.099   8.507  1.1148  0.3661  2.3470
 9597TIP3   OH252985   0.536   3.203   9.731 -0.2773 -0.5029 -0.1409
 9597TIP3    H152986   0.568   3.270   9.792  1.3175  0.0871 -1.5746
 9597TIP3    H252987   0.458   3.168   9.774 -0.3554  1.2929  1.3010
 9598TIP3   OH252988   3.253   1.377   9.035  0.4016 -0.6026  0.3322
 9598TIP3    H152989   3.305   1.455   9.055  0.5852 -0.0728 -1.9047
 9598TIP3    H252990   3.313   1.320   8.987 -0.0050 -1.7288  1.1199
 9599TIP3   OH252991   2.029   3.217  10.909 -0.0279 -0.6388  0.0292
 9599TIP3    H152992   2.105   3.165  10.933 -0.9273 -1.2539  1.7561
 9599TIP3    H252993   1.968   3.204  10.982 -1.8418 -0.2853 -1.3657
 9600TIP3   OH252994   0.262   6.434  10.886 -0.0478  0.1525 -0.0591
 9600TIP3    H152995   0.236   6.436  10.978 -1.1968 -0.8660 -0.3324
 9600TIP3    H252996   0.297   6.521  10.869  0.6070  0.2171  1.4490
 9601TIP3   OH252997   0.278   3.033   8.920 -0.2353  0.3209 -0.3454
 9601TIP3    H152998   0.244   3.064   9.004 -0.2679 -1.6867  0.4344
 9601TIP3    H252999   0.322   3.109   8.882 -2.9270  2.2006 -0.0060
 9602TIP3   OH253000   2.190   4.948  10.380  0.2212 -0.0169 -0.0557
 9602TIP3    H153001   2.275   4.907  10.395  0.6951  0.6299 -0.8789
 9602TIP3    H253002   2.139   4.881  10.334  1.2182  0.4816 -2.0104
 9603TIP3   OH253003   3.625   0.257  11.725  0.0022 -0.2055  0.1815
 9603TIP3    H153004   3.576   0.235  11.805 -0.0223  2.9613  1.1800
 9603TIP3    H253005   3.707   0.209  11.733 -0.7315 -1.3352  1.2240
 9604TIP3   OH253006   5.999   4.225  10.777 -0.5733  0.6831 -0.5677
 9604TIP3    H153007   5.935   4.246  10.844  0.1697  0.0769  0.3544
 9604TIP3    H253008   5.965   4.146  10.735 -0.1228 -0.0379  0.3807
 9605TIP3   OH253009   6.677   4.694  11.790  0.2955  0.1363 -0.4063
 9605TIP3    H153010   6.763   4.709  11.829 -0.0490 -1.4618  1.0583
 9605TIP3    H253011   6.657   4.602  11.808 -1.1404  0.0945 -1.9100
 9606TIP3   OH253012   4.639   4.728  11.390  0.0967 -0.8921 -0.0180
 9606TIP3    H153013   4.592   4.646  11.376 -1.6647 -0.0401  0.5323
 9606TIP3    H253014   4.632   4.774  11.307 -1.5657 -0.0679  0.5371
 9607TIP3   OH253015   0.051   2.356  10.050 -0.1028 -0.3263 -0.1870
 9607TIP3    H153016   0.047   2.384   9.958 -2.1341  0.6069  0.1376
 9607TIP3    H253017  -0.007   2.416  10.096 -1.6673 -2.7649  1.1868
 9608TIP3   OH253018   4.038   3.118   9.881 -0.0532  0.5917  0.3511
 9608TIP3    H153019   4.080   3.043   9.838 -0.5630  0.1587  0.5867
 9608TIP3    H253020   4.022   3.088   9.971 -3.3271 -0.3369 -0.3954
 9609TIP3   OH253021   0.002   3.484  11.068  0.1712 -0.3255 -0.4908
 9609TIP3    H153022  -0.064   3.540  11.110  1.2306  1.5191 -1.1378
 9609TIP3    H253023  -0.049   3.420  11.018 -1.1023 -0.2086  0.5943
 9610TIP3   OH253024   4.505   1.530   8.777  0.8012 -0.0954  0.3441
 9610TIP3    H153025   4.470   1.441   8.778  2.2207 -0.6897 -0.3864
 9610TIP3    H253026   4.553   1.538   8.860  0.8421 -0.0808  0.3186
 9611TIP3   OH253027   2.965   5.667   8.815 -0.6486  0.5988 -0.3005
 9611TIP3    H153028   2.943   5.758   8.832  0.3321  1.6130 -3.6662
 9611TIP3    H253029   2.895   5.635   8.758 -1.5248 -1.1722  1.6199
 9612TIP3   OH253030   2.106   2.757   9.481 -0.5111 -0.3043 -0.5995
 9612TIP3    H153031   2.166   2.762   9.555 -1.7157 -1.9599  0.5770
 9612TIP3    H253032   2.074   2.846   9.469 -2.1434 -0.3131  2.5606
 9613TIP3   OH253033   1.027   1.293   9.261  0.1913  0.4569  0.0543
 9613TIP3    H153034   1.007   1.380   9.227  0.4459 -0.2246 -1.9604
 9613TIP3    H253035   1.024   1.236   9.184  2.0433 -0.9792  0.9771
 9614TIP3   OH253036   3.879   6.168  10.478  0.4226 -0.2679 -0.2513
 9614TIP3    H153037   3.954   6.224  10.498 -0.3148 -0.1449  2.5648
 9614TIP3    H253038   3.906   6.119  10.400  3.2481  0.1132  0.3775
 9615TIP3   OH253039   0.694   0.087   9.174 -0.0405 -0.4754 -0.4224
 9615TIP3    H153040   0.707  -0.004   9.146  0.4899 -0.3272 -0.6584
 9615TIP3    H253041   0.688   0.137   9.093  0.8608 -0.1368 -0.2990
 9616TIP3   OH253042   5.884   2.903  11.639  0.6041  0.0058  0.1244
 9616TIP3    H153043   5.931   2.960  11.699  0.6615 -0.3513  0.4191
 9616TIP3    H253044   5.929   2.913  11.555  1.0029 -0.0937  0.3292
 9617TIP3   OH253045   3.721   4.799  10.427 -0.3098 -0.1262  0.5862
 9617TIP3    H153046   3.799   4.749  10.450  1.1592  1.6567 -0.1903
 9617TIP3    H253047   3.662   4.735  10.388  1.5495 -1.2471 -0.5471
 9618TIP3   OH253048   3.672   2.122   9.172  0.2640  0.2306 -0.0515
 9618TIP3    H153049   3.694   2.156   9.259 -2.3616 -2.1358  1.6986
 9618TIP3    H253050   3.723   2.041   9.164 -2.2327 -1.5640  1.0369
 9619TIP3   OH253051   5.959   0.866  10.491 -0.4756  0.6981 -0.0147
 9619TIP3    H153052   5.896   0.801  10.459  1.2723 -1.4763  0.6586
 9619TIP3    H253053   6.026   0.870  10.423 -0.5502  1.8433 -0.0383
 9620TIP3   OH253054   1.340   2.687  10.758  0.4558  0.4055  0.3610
 9620TIP3    H153055   1.362   2.733  10.676 -2.0798  0.2903 -0.4790
 9620TIP3    H253056   1.262   2.732  10.790 -0.7122 -1.7648  0.7716
 9621TIP3   OH253057   3.696   4.641  11.609  0.7040 -0.2012 -0.2043
 9621TIP3    H153058   3.775   4.644  11.555  1.3274  1.0591  0.7393
 9621TIP3    H253059   3.635   4.588  11.558  1.6654 -0.0217 -1.6043
 9622TIP3   OH253060   2.908   0.567  12.076  0.0567  0.8724 -0.1250
 9622TIP3    H153061   2.825   0.605  12.048 -0.1637  1.0508  0.7359
 9622TIP3    H253062   2.974   0.630  12.048 -0.0392  0.4899 -1.2566
 9623TIP3   OH253063   6.396   3.251  10.185  0.2961 -0.2384 -0.2692
 9623TIP3    H153064   6.408   3.329  10.131 -1.2849  1.4237  1.6351
 9623TIP3    H253065   6.454   3.265  10.260 -0.3317 -0.6791  0.3076
 9624TIP3   OH253066   6.494   5.583  11.013  0.2412  0.6482 -0.2465
 9624TIP3    H153067   6.435   5.512  11.037 -0.5638  1.1090 -0.8114
 9624TIP3    H253068   6.566   5.540  10.966 -0.5707  0.2531 -1.1687
 9625TIP3   OH253069   1.577   0.800  10.051 -0.6390 -0.1272  0.6992
 9625TIP3    H153070   1.633   0.727  10.023 -0.4289  0.1626  0.3427
 9625TIP3    H253071   1.494   0.785  10.007 -0.2776  0.3799 -0.1902
 9626TIP3   OH253072   4.700   4.067  12.019 -0.4437  0.0099 -0.2607
 9626TIP3    H153073   4.659   3.981  12.010 -0.3777 -0.1676  1.0496
 9626TIP3    H253074   4.631   4.129  11.994 -0.3267 -0.4159 -1.7519
 9627TIP3   OH253075   2.425   4.051  10.350  0.2127  0.0117 -0.0842
 9627TIP3    H153076   2.450   4.127  10.401  1.7954 -0.6281  0.1695
 9627TIP3    H253077   2.493   3.986  10.369 -0.7850 -1.2746 -0.7138
 9628TIP3   OH253078   6.792   6.294   9.788  0.2675 -0.1280  0.2534
 9628TIP3    H153079   6.735   6.371   9.783  0.5605  0.0893  0.2290
 9628TIP3    H253080   6.876   6.329   9.816  0.5791 -0.3550 -0.3904
 9629TIP3   OH253081   5.036   0.565  11.493 -0.2581  0.4322 -0.1599
 9629TIP3    H153082   4.990   0.598  11.570 -1.4533  0.7347 -0.9736
 9629TIP3    H253083   5.024   0.633  11.427  2.0239  0.8566 -0.1926
 9630TIP3   OH253084   6.354   3.120  11.519  0.0308 -0.2826  0.2931
 9630TIP3    H153085   6.408   3.057  11.567  1.4663  1.3203  0.9014
 9630TIP3    H253086   6.376   3.105  11.427  0.8401 -0.2667  0.4719
 9631TIP3   OH253087   6.643   2.395  10.946 -0.3459  0.0377  0.1017
 9631TIP3    H153088   6.558   2.411  10.987  0.3353 -1.5507  2.3101
 9631TIP3    H253089   6.685   2.331  11.002  1.5247 -0.7624 -2.0593
 9632TIP3   OH253090   2.018   6.278  10.797 -0.2982 -0.0249 -0.1764
 9632TIP3    H153091   2.084   6.235  10.743  0.8178  0.3466  0.8439
 9632TIP3    H253092   1.935   6.243  10.766  0.4677 -1.6761 -0.4712
 9633TIP3   OH253093   5.035   2.980  11.076 -0.1200 -0.6526 -0.0162
 9633TIP3    H153094   5.104   2.985  11.142  0.6772  1.7268 -0.9316
 9633TIP3    H253095   4.955   3.005  11.122  0.4560  1.1212  0.0548
 9634TIP3   OH253096   6.368   3.290   8.711 -0.9546  0.3475  0.0473
 9634TIP3    H153097   6.330   3.343   8.782 -1.1918 -0.0658  0.2299
 9634TIP3    H253098   6.293   3.248   8.670 -0.9163  1.3127 -1.0503
 9635TIP3   OH253099   6.166   5.703   8.859 -0.7397 -0.1278 -0.3328
 9635TIP3    H153100   6.214   5.779   8.826 -0.1834 -0.6910 -0.8405
 9635TIP3    H253101   6.233   5.638   8.878 -1.1142 -0.1269  1.1310
 9636TIP3   OH253102   6.647   6.055   9.756  0.2642 -0.5233 -0.3528
 9636TIP3    H153103   6.709   5.993   9.795  0.0905 -0.6138 -0.2206
 9636TIP3    H253104   6.689   6.140   9.765 -0.0163 -0.4701  0.5329
 9637TIP3   OH253105   2.261   6.221  11.186 -0.3111  0.1880  0.4140
 9637TIP3    H153106   2.170   6.205  11.162 -0.2828  0.7231 -0.0865
 9637TIP3    H253107   2.259   6.306  11.231  0.0002  0.4611 -0.0674
 9638TIP3   OH253108   1.419   0.235  11.686 -0.2163 -0.4629  0.3156
 9638TIP3    H153109   1.470   0.197  11.757  0.4290  0.6933  0.5037
 9638TIP3    H253110   1.458   0.321  11.672 -0.4100 -0.6048 -1.3516
 9639TIP3   OH253111   1.282   5.401   9.335 -0.3824  0.2866  0.0080
 9639TIP3    H153112   1.364   5.415   9.382 -1.1445  0.3538  1.3652
 9639TIP3    H253113   1.271   5.306   9.332  0.5917  0.1722 -1.7650
 9640TIP3   OH253114   4.445   1.229   9.146  0.7849 -0.1212  0.4216
 9640TIP3    H153115   4.448   1.324   9.154  0.9002 -0.0113 -0.7614
 9640TIP3    H253116   4.529   1.199   9.182  1.6265  0.3932 -1.0277
 9641TIP3   OH253117   4.026   2.145  11.342 -0.4869  0.2428 -0.5335
 9641TIP3    H153118   4.047   2.234  11.315  0.6392  0.4622  0.9415
 9641TIP3    H253119   4.089   2.125  11.411 -0.3566 -1.8861 -1.1726
 9642TIP3   OH253120   5.339   2.283   9.216 -1.1737  0.2770  0.1572
 9642TIP3    H153121   5.331   2.254   9.126 -1.7294 -0.5708  0.4656
 9642TIP3    H253122   5.330   2.203   9.268  0.6589  0.4997  0.9195
 9643TIP3   OH253123   5.492   0.633   9.235  0.4786  0.8642 -0.0149
 9643TIP3    H153124   5.497   0.696   9.307 -1.6331  1.6946 -0.5430
 9643TIP3    H253125   5.438   0.676   9.169  1.4515 -0.3303 -1.6708
 9644TIP3   OH253126   3.720   3.681   9.593  0.3597 -0.0969  0.5348
 9644TIP3    H153127   3.662   3.654   9.522  1.1900 -0.1110 -0.1547
 9644TIP3    H253128   3.671   3.747   9.641  0.4629  1.2435 -1.1229
 9645TIP3   OH253129   3.450   5.233  10.195 -0.2369  0.0143 -0.8171
 9645TIP3    H153130   3.450   5.232  10.291 -3.5446  2.6970 -0.6166
 9645TIP3    H253131   3.461   5.325  10.172 -1.7193 -0.2720 -2.8944
 9646TIP3   OH253132   2.216   6.761   9.118  0.0911  0.0330 -0.2775
 9646TIP3    H153133   2.262   6.690   9.073  0.2951  0.2059 -0.3449
 9646TIP3    H253134   2.286   6.815   9.154 -0.0584  0.3080 -0.3966
 9647TIP3   OH253135   6.238   6.527  10.085  0.5905  0.0250  0.3521
 9647TIP3    H153136   6.267   6.463  10.020  2.3054  1.5378 -0.4562
 9647TIP3    H253137   6.206   6.474  10.159 -0.0057 -1.7243 -1.0944
 9648TIP3   OH253138   1.331   3.873  10.782 -0.4261  0.4790  0.5907
 9648TIP3    H153139   1.339   3.941  10.848 -1.4799 -0.8454  2.1756
 9648TIP3    H253140   1.248   3.891  10.738  0.1472  1.2028 -0.2428
 9649TIP3   OH253141   4.064   0.426  11.119 -0.0480  0.3139 -0.1546
 9649TIP3    H153142   4.053   0.335  11.147  1.1935 -0.4589 -1.9780
 9649TIP3    H253143   4.124   0.464  11.184  1.8548 -1.0841 -1.0141
 9650TIP3   OH253144   0.947   4.862   9.144 -0.2040  0.1787 -0.5201
 9650TIP3    H153145   0.913   4.952   9.141 -0.0251  0.2580 -0.2002
 9650TIP3    H253146   0.923   4.831   9.232 -0.8182 -0.3034 -0.8536
 9651TIP3   OH253147   1.641   6.397   9.033 -0.8773  0.3451  0.1350
 9651TIP3    H153148   1.692   6.338   8.977 -1.3661  0.9807 -0.9929
 9651TIP3    H253149   1.706   6.435   9.092 -0.4991 -1.0479  0.6746
 9652TIP3   OH253150   1.677   5.841  11.037  0.2191  0.1936 -0.3358
 9652TIP3    H153151   1.626   5.856  10.957  0.3907 -0.4372 -0.5690
 9652TIP3    H253152   1.739   5.772  11.013 -0.6718 -1.0341  0.7355
 9653TIP3   OH253153   2.962   3.381  11.370  0.2300  0.2175 -0.2262
 9653TIP3    H153154   3.013   3.363  11.291 -1.2441  2.0317 -1.6869
 9653TIP3    H253155   2.877   3.341  11.353 -0.4853  1.6220 -0.1238
 9654TIP3   OH253156   5.087   4.708  11.146  0.1241 -0.2611 -0.6016
 9654TIP3    H153157   5.008   4.654  11.153 -0.6193  0.6260 -1.7549
 9654TIP3    H253158   5.124   4.684  11.061  1.7499 -1.4722  0.3881
 9655TIP3   OH253159   1.301   5.035  10.695 -0.0588  0.1002  0.5608
 9655TIP3    H153160   1.245   4.960  10.716  2.0814 -1.8302 -0.1712
 9655TIP3    H253161   1.311   5.082  10.778  0.5804 -1.9330  1.7129
 9656TIP3   OH253162   5.182   6.374  10.043 -0.2315 -0.3539  0.4740
 9656TIP3    H153163   5.179   6.456  10.092 -1.1798 -0.2159  0.1909
 9656TIP3    H253164   5.116   6.318  10.084  0.1736 -0.8634  0.4526
 9657TIP3   OH253165   0.179   3.562  10.728  0.6115  0.2187 -0.0365
 9657TIP3    H153166   0.142   3.486  10.683  1.2618 -0.2291  0.1656
 9657TIP3    H253167   0.259   3.582  10.681  1.4267 -0.4038  1.0459
 9658TIP3   OH253168   5.902   5.831  11.539  0.2728 -0.3776 -0.1684
 9658TIP3    H153169   5.832   5.797  11.595  0.7215 -2.2346 -0.6445
 9658TIP3    H253170   5.874   5.919  11.515 -1.5934 -0.8428  0.1600
 9659TIP3   OH253171   5.981   6.414  11.909 -0.4246 -0.0131  0.1905
 9659TIP3    H153172   5.918   6.370  11.966 -0.1049  0.0766  0.6198
 9659TIP3    H253173   6.027   6.475  11.967 -0.4545  0.4601 -0.2726
 9660TIP3   OH253174   2.857   5.547  11.745 -0.4077 -0.2292  0.0752
 9660TIP3    H153175   2.840   5.496  11.824 -1.8608  3.0090  2.0498
 9660TIP3    H253176   2.925   5.609  11.771  0.8522 -0.6319 -2.0342
 9661TIP3   OH253177   1.809   0.814   8.765  0.3047  0.3183 -0.6539
 9661TIP3    H153178   1.900   0.787   8.771 -0.2565 -1.4858  1.8029
 9661TIP3    H253179   1.760   0.731   8.759 -1.1785  1.2247 -1.6144
 9662TIP3   OH253180   2.829   0.495  12.339 -0.4734 -0.2064 -0.3655
 9662TIP3    H153181   2.838   0.537  12.253 -0.9138  0.6932  0.0214
 9662TIP3    H253182   2.875   0.553  12.399 -1.3594 -0.1025  0.2287
 9663TIP3   OH253183   3.143   4.040  11.559 -0.1304  0.2213 -0.1735
 9663TIP3    H153184   3.107   4.128  11.567 -1.0139 -0.0894 -0.6590
 9663TIP3    H253185   3.086   3.985  11.613  0.8237  0.0497  0.6852
 9664TIP3   OH253186   2.795   4.590   8.754 -0.6498 -0.4306 -0.0952
 9664TIP3    H153187   2.795   4.537   8.833  1.3597 -0.6822 -0.2253
 9664TIP3    H253188   2.887   4.595   8.727 -1.0851  0.9871 -1.5165
 9665TIP3   OH253189   3.452   3.035  10.907  0.2126 -0.1494  0.8153
 9665TIP3    H153190   3.534   3.013  10.862 -0.4478  1.3024 -1.2626
 9665TIP3    H253191   3.400   2.955  10.903  0.0187  0.0309 -1.4747
 9666TIP3   OH253192   6.794   5.606  10.402 -0.1671  0.3202  0.2490
 9666TIP3    H153193   6.738   5.545  10.354 -0.7202  1.7833 -1.0403
 9666TIP3    H253194   6.734   5.672  10.436  0.6948  1.6451 -0.7307
 9667TIP3   OH253195   2.054   3.200   9.406  0.5441  0.4083 -0.5161
 9667TIP3    H153196   1.965   3.192   9.441  0.5600  0.6623 -0.4159
 9667TIP3    H253197   2.046   3.175   9.314  0.6636 -1.1315 -0.1351
 9668TIP3   OH253198   5.517   5.881   8.734  0.2927 -0.0667 -0.3540
 9668TIP3    H153199   5.425   5.897   8.712 -0.0165 -1.1208  0.1416
 9668TIP3    H253200   5.517   5.873   8.829  0.9830  0.4269 -0.3109
 9669TIP3   OH253201   5.242   6.520  11.964 -0.1730  0.1017 -0.4922
 9669TIP3    H153202   5.152   6.506  11.933 -0.8315 -0.7776  1.6346
 9669TIP3    H253203   5.234   6.586  12.033  0.9336  0.5200 -0.7419
 9670TIP3   OH253204   4.597   0.145  11.719 -0.0631 -1.0716  0.1233
 9670TIP3    H153205   4.547   0.201  11.779 -2.0331 -2.1009 -0.4595
 9670TIP3    H253206   4.656   0.096  11.776  0.9403  0.7650  0.7472
 9671TIP3   OH253207   2.242   5.426   9.386 -0.2873 -0.3364  0.5377
 9671TIP3    H153208   2.243   5.361   9.316  1.4744  0.0969  0.0977
 9671TIP3    H253209   2.277   5.380   9.462 -1.2737 -0.5321  0.8887
 9672TIP3   OH253210   0.059   5.307   8.974 -0.0408 -0.2618  0.3406
 9672TIP3    H153211  -0.001   5.333   9.043  0.5798  1.0249  0.4267
 9672TIP3    H253212   0.104   5.388   8.949  0.1809 -0.8043 -1.1522
 9673TIP3   OH253213   2.360   2.198   9.680  0.0790 -0.3901 -0.3217
 9673TIP3    H153214   2.430   2.141   9.711  0.4623  0.5190  0.5612
 9673TIP3    H253215   2.287   2.139   9.661  0.2405 -1.1330  1.1800
 9674TIP3   OH253216   6.718   4.666  11.522  0.3724 -0.7633 -0.5727
 9674TIP3    H153217   6.673   4.676  11.606  2.5839 -0.1722  0.6027
 9674TIP3    H253218   6.729   4.571  11.513 -0.8565 -0.9064 -0.7815
 9675TIP3   OH253219   1.094   4.280   9.732 -0.2173  0.4931  0.0193
 9675TIP3    H153220   1.095   4.318   9.820  0.6307  0.5271  0.0030
 9675TIP3    H253221   1.015   4.226   9.731 -1.2800  1.9507  0.1662
 9676TIP3   OH253222   5.202   0.352   9.491 -0.0345  0.2149  0.3463
 9676TIP3    H153223   5.194   0.408   9.414  1.5560  0.9047  0.6283
 9676TIP3    H253224   5.165   0.268   9.465  0.8438  0.3102 -1.3047
 9677TIP3   OH253225   2.859   2.446  11.215  0.4161  0.6880  0.8009
 9677TIP3    H153226   2.877   2.493  11.134 -0.5994 -0.2939 -0.0368
 9677TIP3    H253227   2.779   2.486  11.248 -0.1506 -0.0554  0.3672
 9678TIP3   OH253228   5.029   3.444  11.107  0.2227 -0.5949  0.1177
 9678TIP3    H153229   4.989   3.382  11.048  0.5544  0.1705 -0.9470
 9678TIP3    H253230   5.065   3.391  11.178 -1.3334 -1.4062  0.3234
 9679TIP3   OH253231   6.234   4.877   9.865  0.4497  0.6825  0.4685
 9679TIP3    H153232   6.184   4.853   9.787  0.6246  0.9211  0.2803
 9679TIP3    H253233   6.225   4.802   9.924 -0.0877  0.7063  0.4167
 9680TIP3   OH253234   4.160   3.422   9.412  0.1115  0.8797  0.2581
 9680TIP3    H153235   4.087   3.398   9.468  0.6952 -0.6719  0.4092
 9680TIP3    H253236   4.138   3.385   9.326  0.1279  1.5413 -0.0407
 9681TIP3   OH253237   5.343   0.336  10.687 -0.1540 -0.3843 -0.4389
 9681TIP3    H153238   5.340   0.431  10.695  2.6990 -0.0958 -1.6049
 9681TIP3    H253239   5.322   0.319  10.595 -0.0428 -0.8307 -0.3865
 9682TIP3   OH253240   2.610   6.380  10.607 -0.0057  0.0732  0.6181
 9682TIP3    H153241   2.652   6.403  10.525 -1.1366  0.1090  0.0218
 9682TIP3    H253242   2.682   6.358  10.666  0.7825 -1.0203 -0.6955
 9683TIP3   OH253243   5.558   4.336   9.359  0.5476  0.0898 -0.4863
 9683TIP3    H153244   5.469   4.358   9.388 -0.4036 -0.0332 -3.0129
 9683TIP3    H253245   5.612   4.345   9.437 -1.7798 -0.4561  1.3066
 9684TIP3   OH253246   5.732   5.628   9.240 -0.2164  0.6094  0.2785
 9684TIP3    H153247   5.700   5.575   9.167  0.3116 -0.0011  0.4735
 9684TIP3    H253248   5.814   5.666   9.208  1.9325 -2.4352  1.6060
 9685TIP3   OH253249   2.607   6.710  11.298  0.3107 -0.6572  0.1519
 9685TIP3    H153250   2.591   6.800  11.272  0.0000 -0.4263  1.0928
 9685TIP3    H253251   2.522   6.667  11.288  0.0743 -0.4542  1.1850
 9686TIP3   OH253252   0.944   5.035   9.444  0.1266 -0.1866 -0.4512
 9686TIP3    H153253   0.915   4.960   9.497 -1.4186  0.2380 -0.6355
 9686TIP3    H253254   0.875   5.046   9.378  1.0725  0.4854 -1.3610
 9687TIP3   OH253255   5.531   0.888  11.471  0.0332 -0.1123  0.6462
 9687TIP3    H153256   5.621   0.904  11.500 -0.3280  1.1459  1.1274
 9687TIP3    H253257   5.514   0.956  11.406 -0.5371 -0.4148  0.4724
 9688TIP3   OH253258   0.052   6.313  10.692  0.1834  0.2298 -0.2188
 9688TIP3    H153259   0.122   6.331  10.754 -1.9816 -1.2666  2.9681
 9688TIP3    H253260   0.079   6.233  10.648  2.1293  1.7494 -2.0017
 9689TIP3   OH253261   3.194   3.359  10.168  0.0625  0.0596  0.4248
 9689TIP3    H153262   3.240   3.381  10.087  1.8214 -0.9770  1.1027
 9689TIP3    H253263   3.102   3.378  10.149  0.7690  2.9168 -0.7428
 9690TIP3   OH253264   2.976   4.622   9.557 -0.1845  0.2282  0.1254
 9690TIP3    H153265   2.946   4.704   9.516 -0.3313  0.1341  0.0447
 9690TIP3    H253266   2.913   4.556   9.528  0.4432 -0.0925 -0.5279
 9691TIP3   OH253267   0.399   2.022  11.389  0.6483 -0.4835 -0.5593
 9691TIP3    H153268   0.439   1.974  11.316 -0.9863 -2.5899 -0.1664
 9691TIP3    H253269   0.464   2.016  11.459  0.3803 -2.4995 -0.4165
 9692TIP3   OH253270   6.571   2.438   9.552 -0.2383  0.3177 -0.0956
 9692TIP3    H153271   6.651   2.431   9.604  0.5392  0.5718 -1.2034
 9692TIP3    H253272   6.601   2.467   9.466 -1.5249  0.3572 -0.5599
 9693TIP3   OH253273   6.029   0.243  11.514  0.0765  0.2274 -0.0261
 9693TIP3    H153274   6.084   0.191  11.573 -1.4755 -1.8363 -0.2890
 9693TIP3    H253275   6.061   0.223  11.426 -0.5270 -0.2972 -0.1297
 9694TIP3   OH253276   3.698   1.158   8.837  0.6889 -0.4375 -0.3332
 9694TIP3    H153277   3.761   1.086   8.833 -1.7418 -2.7853  0.1718
 9694TIP3    H253278   3.638   1.141   8.764  0.0488  1.1276 -0.2181
 9695TIP3   OH253279   3.878   6.450  10.748 -0.0747 -0.0646  0.0914
 9695TIP3    H153280   3.922   6.471  10.665 -0.4071 -0.4574 -0.1907
 9695TIP3    H253281   3.814   6.382  10.724  1.2564 -1.7211  1.0322
 9696TIP3   OH253282   2.328   2.971  11.875  0.1372  0.2934 -0.7157
 9696TIP3    H153283   2.252   2.961  11.932  1.4442  0.4037  1.1467
 9696TIP3    H253284   2.342   3.065  11.868  1.7702  0.2905  1.4170
 9697TIP3   OH253285   0.895   5.462  11.418  0.4890  0.3034  0.2724
 9697TIP3    H153286   0.813   5.442  11.463  0.3552 -0.5786 -0.3342
 9697TIP3    H253287   0.868   5.512  11.341  0.8025  2.7304  1.6572
 9698TIP3   OH253288   2.094   4.745  11.673  0.9108 -0.3720 -0.2533
 9698TIP3    H153289   2.156   4.675  11.652  2.2780  0.5986  0.4016
 9698TIP3    H253290   2.139   4.799  11.738 -0.4027  0.6982 -0.1743
 9699TIP3   OH253291   4.338   4.124  11.749 -0.4956 -0.0087  0.0658
 9699TIP3    H153292   4.322   4.043  11.702  0.7392  0.1223 -0.6213
 9699TIP3    H253293   4.421   4.110  11.794 -0.2973  0.8485 -0.0098
 9700TIP3   OH253294   1.423   0.074  10.492  0.3267  0.1774  0.5285
 9700TIP3    H153295   1.510   0.042  10.469 -0.3448 -1.0499 -0.4460
 9700TIP3    H253296   1.364   0.004  10.466 -0.9766  1.0184  1.0910
 9701TIP3   OH253297   2.459   1.680  11.878 -0.5290 -0.4810  0.3159
 9701TIP3    H153298   2.489   1.591  11.860  1.6829  0.1350  0.5634
 9701TIP3    H253299   2.510   1.707  11.955 -0.6082  1.2226 -0.1890
 9702TIP3   OH253300   5.006   0.684  10.276 -0.1947 -0.0208 -0.5223
 9702TIP3    H153301   5.070   0.723  10.336  0.9089 -1.6476 -0.5993
 9702TIP3    H253302   5.058   0.641  10.209 -1.3608 -1.3053 -0.6584
 9703TIP3   OH253303   5.121   3.034  10.120  0.9543  0.0092  0.9075
 9703TIP3    H153304   5.215   3.038  10.136  1.1140  2.4885 -0.2601
 9703TIP3    H253305   5.113   3.013  10.027  0.3118 -0.7146  1.1073
 9704TIP3   OH253306   5.103   6.783  11.248 -0.2820 -0.1998  0.3466
 9704TIP3    H153307   5.112   6.842  11.323  0.4778 -0.4624  0.4687
 9704TIP3    H253308   5.114   6.695  11.284 -0.2308 -0.3497 -0.0210
 9705TIP3   OH253309   0.459   0.206   9.668  0.0558 -0.0969 -0.3640
 9705TIP3    H153310   0.433   0.280   9.613  2.2144  2.1822  1.4622
 9705TIP3    H253311   0.539   0.173   9.626  0.0331 -0.3055 -0.2420
 9706TIP3   OH253312   2.373   6.573  11.261  0.4617 -0.2668  0.0836
 9706TIP3    H153313   2.334   6.590  11.175  1.0756  0.1572 -0.1177
 9706TIP3    H253314   2.316   6.618  11.323 -0.7409 -1.6721  0.0467
 9707TIP3   OH253315   0.134   5.011   8.827  0.2067  0.2883 -0.1329
 9707TIP3    H153316   0.154   5.031   8.919  1.3375  0.7734 -0.4571
 9707TIP3    H253317   0.040   4.998   8.825  0.0744  0.9181  0.9865
 9708TIP3   OH253318   3.040   3.561   9.706 -0.4190 -0.2320  0.2545
 9708TIP3    H153319   3.003   3.476   9.682 -1.4621  0.1530  0.4342
 9708TIP3    H253320   2.970   3.623   9.689  0.5462  0.6856 -0.4722
 9709TIP3   OH253321   4.509   0.087   9.091 -0.1028  0.2636  0.2478
 9709TIP3    H153322   4.468   0.056   9.173 -1.9852 -0.5482 -0.9290
 9709TIP3    H253323   4.436   0.120   9.040  0.8408 -0.4355 -1.6341
 9710TIP3   OH253324   4.567   1.945   9.490  0.3102 -0.3229  0.3694
 9710TIP3    H153325   4.637   1.925   9.552  0.1813 -1.6521  0.1217
 9710TIP3    H253326   4.512   1.867   9.490 -0.6787  0.3506 -0.1127
 9711TIP3   OH253327   0.095   2.896  11.724 -0.0688 -0.1053 -0.3365
 9711TIP3    H153328   0.060   2.984  11.738 -0.0839  0.4167 -3.0163
 9711TIP3    H253329   0.179   2.910  11.680  0.6927 -1.4401  0.6057
 9712TIP3   OH253330   6.614   3.054   9.582 -0.8138 -0.2194  0.1089
 9712TIP3    H153331   6.618   3.081   9.673 -0.7288  0.8827 -0.2001
 9712TIP3    H253332   6.693   3.093   9.542 -1.1691 -0.1621 -0.5538
 9713TIP3   OH253333   3.729   3.674   9.039  0.2894  0.1777 -0.3694
 9713TIP3    H153334   3.770   3.754   9.005  0.4588 -0.1613 -0.9729
 9713TIP3    H253335   3.766   3.604   8.985  1.6310 -0.5531  1.4159
 9714TIP3   OH253336   4.320   4.950  10.101  0.0122 -0.3284 -0.0218
 9714TIP3    H153337   4.263   4.986  10.170 -1.0646 -0.8772 -0.6071
 9714TIP3    H253338   4.263   4.894  10.049  0.8696 -0.1129 -1.2356
 9715TIP3   OH253339   2.479   1.559  11.558  0.5969 -0.2018  0.1637
 9715TIP3    H153340   2.508   1.601  11.639  0.0266 -2.5178  1.6836
 9715TIP3    H253341   2.387   1.536  11.574  0.5808 -1.0463 -0.9695
 9716TIP3   OH253342   6.063   6.258  11.559  0.4621  0.2658 -0.2609
 9716TIP3    H153343   5.985   6.250  11.503 -2.0478  1.4650  2.7259
 9716TIP3    H253344   6.089   6.349  11.550  1.7112 -0.1786 -1.3912
 9717TIP3   OH253345   3.922   4.091  11.301 -0.4736 -0.3654  0.4369
 9717TIP3    H153346   3.982   4.022  11.273 -1.2239 -1.1159  0.6325
 9717TIP3    H253347   3.852   4.090  11.236  0.9064  2.2036 -1.2555
 9718TIP3   OH253348   0.963   6.691  10.431  0.5116  0.5784  0.3844
 9718TIP3    H153349   1.000   6.645  10.507  1.7418 -2.0619 -1.6362
 9718TIP3    H253350   1.040   6.718  10.380 -0.2911  1.6961 -0.2683
 9719TIP3   OH253351   4.454   3.764  10.007  0.1985 -0.6171  0.2025
 9719TIP3    H153352   4.479   3.834   9.947  1.4014 -0.1289  1.2391
 9719TIP3    H253353   4.473   3.683   9.960 -0.9184 -0.2776 -0.8892
 9720TIP3   OH253354   4.141   3.078  10.615 -0.8630 -0.1295  0.1866
 9720TIP3    H153355   4.182   3.068  10.701 -0.1503 -1.7180 -0.3131
 9720TIP3    H253356   4.195   3.143  10.570 -0.2331 -0.5379  0.3438
 9721TIP3   OH253357   2.354   2.627   9.199 -0.3480  0.0579 -0.4900
 9721TIP3    H153358   2.288   2.572   9.242  0.4703 -1.1661 -0.7634
 9721TIP3    H253359   2.428   2.628   9.260  0.3170 -0.6147 -1.2649
 9722TIP3   OH253360   5.607   0.351   9.884 -0.3919 -0.7099  0.1927
 9722TIP3    H153361   5.551   0.277   9.906 -2.8411  1.0138  0.1051
 9722TIP3    H253362   5.614   0.348   9.789 -0.2890 -0.9402  0.2053
 9723TIP3   OH253363   4.940   1.620  11.831  0.2166 -0.3082 -0.2281
 9723TIP3    H153364   4.964   1.681  11.900  0.8813  0.6413 -1.2630
 9723TIP3    H253365   4.870   1.664  11.783 -1.0773 -1.4732  0.5352
 9724TIP3   OH253366   1.243   6.635   8.380 -0.4714  0.1884  0.2297
 9724TIP3    H153367   1.288   6.550   8.376 -2.6785 -0.9854 -1.8357
 9724TIP3    H253368   1.257   6.673   8.294 -0.8984  1.1887  0.5932
 9725TIP3   OH253369   3.718   0.989  10.861 -0.7980 -0.1390 -0.2933
 9725TIP3    H153370   3.764   0.935  10.925 -2.8305 -1.5987  0.0230
 9725TIP3    H253371   3.726   1.078  10.895 -1.8562 -0.8684  2.0819
 9726TIP3   OH253372   6.522   5.152   8.645  0.4319  0.0216  0.5303
 9726TIP3    H153373   6.451   5.091   8.661  2.0960 -2.1814 -0.0806
 9726TIP3    H253374   6.480   5.238   8.645 -1.7700 -0.9274  2.9387
 9727TIP3   OH253375   2.332   6.321   8.761 -0.1126  0.1578 -0.0661
 9727TIP3    H153376   2.285   6.391   8.715  1.4123  0.7703 -0.7815
 9727TIP3    H253377   2.291   6.316   8.847 -0.7564  1.4122 -0.2813
 9728TIP3   OH253378   5.838   2.511  10.901  0.0041 -0.7054 -0.2516
 9728TIP3    H153379   5.854   2.418  10.916 -1.9973 -0.7441  2.3203
 9728TIP3    H253380   5.755   2.514  10.853 -0.8924 -0.2795  1.2576
 9729TIP3   OH253381   5.736   5.141  10.566  0.4166  0.2558  0.1505
 9729TIP3    H153382   5.662   5.130  10.506  1.6043 -1.9194 -1.0762
 9729TIP3    H253383   5.726   5.229  10.601 -2.3171  0.3172 -0.5253
 9730TIP3   OH253384   3.545   3.963  10.729  0.1853  0.0946 -0.3165
 9730TIP3    H153385   3.500   3.977  10.813  0.4508 -6.4326  1.4442
 9730TIP3    H253386   3.474   3.951  10.666 -0.2270 -0.4193  0.2330
 9731TIP3   OH253387   6.066   0.509  10.397  0.2019 -0.2471 -0.3059
 9731TIP3    H153388   6.152   0.509  10.353  0.4576 -0.3956  0.1870
 9731TIP3    H253389   6.014   0.446  10.347  1.1877 -2.1343  0.9257
 9732TIP3   OH253390   6.366   3.398  11.463  0.3359 -0.0309 -0.2506
 9732TIP3    H153391   6.354   3.304  11.478  0.3858  0.0341  0.2418
 9732TIP3    H253392   6.397   3.431  11.548 -1.2323  0.6981  0.0791
 9733TIP3   OH253393   1.943   0.802  10.563 -0.3768  0.9587  0.5717
 9733TIP3    H153394   1.946   0.707  10.573  0.5345  0.7618 -1.1021
 9733TIP3    H253395   2.009   0.835  10.623  1.4423  0.2640 -0.9642
 9734TIP3   OH253396   1.722   4.788   8.889 -0.4011 -0.6064 -0.4414
 9734TIP3    H153397   1.642   4.796   8.941  0.8843  0.4966  1.4688
 9734TIP3    H253398   1.773   4.866   8.910  0.5542 -0.5001 -2.8032
 9735TIP3   OH253399   3.354   6.360  11.984 -0.6805  0.0181 -0.0551
 9735TIP3    H153400   3.424   6.425  11.980 -0.1976 -0.4949 -0.0799
 9735TIP3    H253401   3.274   6.410  11.969 -0.3036  0.5830 -0.2160
 9736TIP3   OH253402   1.355   3.450  10.849  0.4448 -0.5327  0.3811
 9736TIP3    H153403   1.384   3.537  10.878  2.0612 -1.0256  0.3723
 9736TIP3    H253404   1.436   3.399  10.844 -0.5011 -2.1072  0.5965
 9737TIP3   OH253405   2.597   2.835  11.674  0.3015 -0.1829  0.2083
 9737TIP3    H153406   2.560   2.919  11.646  1.5650  0.7830  1.2916
 9737TIP3    H253407   2.586   2.834  11.769  3.4106  0.4458  0.7112
 9738TIP3   OH253408   3.348   6.356  11.116  0.3616 -0.5156 -0.0382
 9738TIP3    H153409   3.292   6.323  11.046 -0.9319  0.7120  0.3701
 9738TIP3    H253410   3.382   6.440  11.083 -0.2756  0.0851  0.7824
 9739TIP3   OH253411   5.687   0.512  10.933  0.1590  0.3109 -0.6367
 9739TIP3    H153412   5.620   0.536  10.869  0.4570  0.2517 -0.9760
 9739TIP3    H253413   5.652   0.434  10.976 -0.2878  0.6703 -0.3458
 9740TIP3   OH253414   1.749   3.096   9.793 -0.6301  0.1791 -0.0520
 9740TIP3    H153415   1.791   3.107   9.879 -0.2375  1.8814 -0.4300
 9740TIP3    H253416   1.682   3.163   9.790 -1.7282 -0.9005 -0.4763
 9741TIP3   OH253417   2.154   1.220   8.778  0.2989 -0.4514  0.2013
 9741TIP3    H153418   2.120   1.151   8.835 -1.3897  1.1151  1.1936
 9741TIP3    H253419   2.129   1.194   8.690 -0.8841 -0.8008  0.6287
 9742TIP3   OH253420   0.898   1.611  10.419 -0.2378  0.0493  0.1088
 9742TIP3    H153421   0.803   1.603  10.420 -0.1744 -1.2157  2.5416
 9742TIP3    H253422   0.928   1.538  10.366 -0.5554 -2.5518  3.2331
 9743TIP3   OH253423   2.541   0.439  12.061 -0.2766 -0.3041  0.0736
 9743TIP3    H153424   2.584   0.517  12.025 -1.8331  0.2513 -0.6796
 9743TIP3    H253425   2.611   0.389  12.101  1.1423  0.3433 -1.4888
 9744TIP3   OH253426   2.708   0.724   9.759  0.2922  0.3650 -0.0605
 9744TIP3    H153427   2.645   0.788   9.727 -1.7879 -1.6303 -0.1629
 9744TIP3    H253428   2.668   0.688   9.838  1.9363 -0.0301  0.6359
 9745TIP3   OH253429   4.130   4.792   9.403 -0.1688 -0.4209  0.6653
 9745TIP3    H153430   4.048   4.767   9.362 -0.3772 -0.1810  0.9320
 9745TIP3    H253431   4.188   4.717   9.388 -0.0967 -0.1581 -0.4368
 9746TIP3   OH253432   1.607   0.349  10.955  0.5776 -0.3005  0.0172
 9746TIP3    H153433   1.529   0.298  10.974  1.1067 -1.1165  0.0330
 9746TIP3    H253434   1.581   0.440  10.971  0.4068 -0.7539  2.7643
 9747TIP3   OH253435   5.149   6.501   9.351  0.4374 -0.0398  0.5050
 9747TIP3    H153436   5.224   6.508   9.410  0.7529  0.1742  0.0832
 9747TIP3    H253437   5.182   6.450   9.277  0.3608  0.6056  0.0142
 9748TIP3   OH253438   3.975   3.152  12.806 -0.2795 -0.2236 -0.0880
 9748TIP3    H153439   4.007   3.066  12.778  4.5669  1.1299  0.3938
 9748TIP3    H253440   3.931   3.135  12.889  0.9939 -2.2306  0.2564
 9749TIP3   OH253441   0.498   5.702   9.301  0.0110  0.5854  0.6547
 9749TIP3    H153442   0.434   5.652   9.251 -0.3334  1.0947  0.5706
 9749TIP3    H253443   0.577   5.649   9.298 -0.5263 -0.2659  1.1337
 9750TIP3   OH253444   4.143   5.993  10.977 -0.1796 -0.0568  0.6456
 9750TIP3    H153445   4.113   5.904  10.965 -0.0131 -0.1474  0.8822
 9750TIP3    H253446   4.192   6.014  10.898 -1.3383  0.2914 -0.0009
 9751TIP3   OH253447   3.739   4.445  10.040  0.7358  0.1087  0.1731
 9751TIP3    H153448   3.740   4.374  10.104 -0.9874 -1.0409 -0.9833
 9751TIP3    H253449   3.759   4.402   9.957  1.2811  1.2857 -0.3367
 9752TIP3   OH253450   2.994   1.936   8.857 -0.4297 -0.3084 -0.2436
 9752TIP3    H153451   3.090   1.939   8.858 -0.2069 -3.4325 -1.6020
 9752TIP3    H253452   2.970   1.924   8.949  0.3317  1.8371  0.2910
 9753TIP3   OH253453   3.966   3.870   8.376 -0.2169  0.2221 -0.2111
 9753TIP3    H153454   4.014   3.883   8.295  0.3172  0.3346  0.1164
 9753TIP3    H253455   4.002   3.789   8.413 -1.4237 -0.5807 -0.7623
 9754TIP3   OH253456   0.001   1.312   9.071 -0.1171 -0.1592 -0.1264
 9754TIP3    H153457   0.087   1.326   9.031 -0.0159 -0.1822  0.0774
 9754TIP3    H253458  -0.016   1.392   9.120 -0.1685 -0.1925 -0.0896
 9755TIP3   OH253459   3.425   4.299  10.605  0.5000 -0.0950  0.5936
 9755TIP3    H153460   3.343   4.346  10.592  0.2835 -0.5686  0.2039
 9755TIP3    H253461   3.492   4.367  10.608  0.6560  0.1348 -3.2482
 9756TIP3   OH253462   4.279   3.822  10.239  0.0511  0.0804  0.3452
 9756TIP3    H153463   4.302   3.733  10.266 -2.4366 -1.3580 -1.8310
 9756TIP3    H253464   4.320   3.832  10.153  1.7087  1.7641  1.2594
 9757TIP3   OH253465   2.886   3.104  10.251  0.2893 -0.3384 -0.0414
 9757TIP3    H153466   2.878   3.067  10.163  1.7916 -1.3238  0.2032
 9757TIP3    H253467   2.980   3.110  10.267  0.1232  2.6063  0.3975
 9758TIP3   OH253468   3.763   3.572  12.133  0.1805 -0.2112 -0.4842
 9758TIP3    H153469   3.761   3.477  12.128  0.6656 -0.1805 -1.3942
 9758TIP3    H253470   3.671   3.598  12.143 -0.1101 -0.7027 -1.7479
 9759TIP3   OH253471   1.968   6.604  10.058  0.5987 -0.3237 -0.1504
 9759TIP3    H153472   1.986   6.633  10.147  0.7978  1.8597 -0.8413
 9759TIP3    H253473   1.962   6.509  10.064 -0.9453 -0.1496  2.4518
 9760TIP3   OH253474   0.869   4.372  10.275 -0.4643  0.2902 -0.3467
 9760TIP3    H153475   0.893   4.411  10.360  1.1333  1.2560 -1.1835
 9760TIP3    H253476   0.837   4.446  10.223 -1.5569 -0.3176 -0.5512
 9761TIP3   OH253477   4.279   2.963   9.274  0.2101  0.4168 -0.5313
 9761TIP3    H153478   4.218   3.034   9.255  0.7814  0.9761 -0.3180
 9761TIP3    H253479   4.225   2.895   9.316 -0.5980  0.1359 -1.9844
 9762TIP3   OH253480   2.058   3.455  11.173 -0.9515  0.0357 -0.1773
 9762TIP3    H153481   2.133   3.497  11.132 -0.0678 -2.2782 -1.1255
 9762TIP3    H253482   2.075   3.461  11.267  0.8055 -0.9922 -0.3798
 9763TIP3   OH253483   5.477   0.687   9.747 -0.2447 -0.1061 -0.0627
 9763TIP3    H153484   5.571   0.702   9.759 -0.0191 -0.7696 -0.8761
 9763TIP3    H253485   5.471   0.641   9.663 -1.2524 -0.5711  0.2499
 9764TIP3   OH253486   3.740   4.082  11.570  0.5539 -0.1479 -0.6316
 9764TIP3    H153487   3.692   4.098  11.651 -0.6130  2.4804 -1.7478
 9764TIP3    H253488   3.772   4.168  11.544 -0.4875 -0.6109 -3.7817
 9765TIP3   OH253489   6.460   1.758   9.604  0.1620 -0.3496  0.1063
 9765TIP3    H153490   6.425   1.830   9.551 -0.8643 -0.6581  0.3470
 9765TIP3    H253491   6.388   1.731   9.660  0.6646 -1.2813  0.3401
 9766TIP3   OH253492   0.739   3.975  10.487  0.4398 -0.4574  0.2022
 9766TIP3    H153493   0.686   4.013  10.557  1.0282 -0.1412  0.4761
 9766TIP3    H253494   0.693   3.999  10.407 -0.9303 -1.8722  0.5086
 9767TIP3   OH253495   5.561   2.818   9.194 -0.1154 -0.0638 -0.0748
 9767TIP3    H153496   5.588   2.734   9.231 -1.7395  0.0753  1.5872
 9767TIP3    H253497   5.558   2.803   9.100  0.2739 -1.6578  0.1399
 9768TIP3   OH253498   4.077   5.226   8.950 -0.5183  0.4956  0.3569
 9768TIP3    H153499   4.110   5.251   8.863  1.1099 -0.9321  0.4987
 9768TIP3    H253500   3.995   5.179   8.932  0.0203 -0.1611 -0.4626
 9769TIP3   OH253501   0.039   5.744   8.684  0.3177  0.1652 -0.2499
 9769TIP3    H153502  -0.036   5.797   8.709 -1.0288 -1.5221 -0.5679
 9769TIP3    H253503   0.009   5.653   8.691  1.8102 -0.5366 -1.9650
 9770TIP3   OH253504   0.749   1.284  10.932  0.2098 -0.1578 -0.0575
 9770TIP3    H153505   0.687   1.215  10.912 -1.2728  1.0443  0.1983
 9770TIP3    H253506   0.757   1.335  10.851  1.0183 -0.4128 -0.1460
 9771TIP3   OH253507   1.454   6.126  10.015 -0.0531  0.1061  0.7161
 9771TIP3    H153508   1.426   6.043  10.053 -0.0183 -0.4455 -0.4188
 9771TIP3    H253509   1.373   6.175  10.002 -0.2538 -0.4392 -0.1632
 9772TIP3   OH253510   0.200   5.973   9.190  0.4622  0.3203  0.0614
 9772TIP3    H153511   0.149   6.054   9.199 -0.3192 -0.2567  0.9484
 9772TIP3    H253512   0.254   5.969   9.268  1.8367  0.8672 -0.8166
 9773TIP3   OH253513   6.439   3.951  10.510  0.1064 -0.4646 -0.2860
 9773TIP3    H153514   6.391   3.917  10.434 -0.6756  2.5970 -1.3156
 9773TIP3    H253515   6.531   3.946  10.484 -0.0973 -0.2975 -1.0973
 9774TIP3   OH253516   3.874   4.982   9.859 -0.1442  0.2970 -0.8592
 9774TIP3    H153517   3.805   4.994   9.924  0.2726  1.1944 -0.5731
 9774TIP3    H253518   3.842   4.911   9.803 -0.5010 -0.5044  0.3274
 9775TIP3   OH253519   3.781   2.916  10.565 -0.2598 -0.0345  0.0932
 9775TIP3    H153520   3.736   2.894  10.647 -0.8089  0.1833 -0.1433
 9775TIP3    H253521   3.712   2.954  10.509 -0.4382 -2.3122 -1.3504
 9776TIP3   OH253522   3.598   4.881  10.669 -0.5751 -0.8889 -0.2346
 9776TIP3    H153523   3.602   4.812  10.735 -2.6239 -3.0895 -2.1979
 9776TIP3    H253524   3.642   4.843  10.592  1.6658  1.5473 -0.2734
 9777TIP3   OH253525   1.705   4.977  11.664  0.6151  0.1024  0.3334
 9777TIP3    H153526   1.752   4.924  11.599 -0.0899  0.1010 -0.1843
 9777TIP3    H253527   1.614   4.949  11.656  0.6153 -0.3758  1.8074
 9778TIP3   OH253528   2.053   3.375  10.007 -0.1901  0.4611 -0.0110
 9778TIP3    H153529   2.107   3.377   9.928  0.4638 -0.3403  0.3954
 9778TIP3    H253530   2.035   3.467  10.026 -0.0356  0.6754 -0.8790
 9779TIP3   OH253531   3.040   2.503   9.225  0.0306  0.1624 -0.7610
 9779TIP3    H153532   3.061   2.431   9.165  0.9927 -0.2767  0.0767
 9779TIP3    H253533   3.119   2.514   9.278 -0.8411  0.4399  0.5323
 9780TIP3   OH253534   6.391   0.534   9.232  0.0532 -0.0589 -0.1871
 9780TIP3    H153535   6.421   0.559   9.319 -0.9891 -0.9502  0.4536
 9780TIP3    H253536   6.395   0.614   9.181 -0.9105  0.8726  1.1363
 9781TIP3   OH253537   2.293   1.453   9.142 -0.3615 -0.6347  0.4382
 9781TIP3    H153538   2.294   1.437   9.048 -1.2370  0.1223  0.2818
 9781TIP3    H253539   2.371   1.409   9.175  0.1136 -0.6642 -0.6810
 9782TIP3   OH253540   2.636   2.204   9.456 -0.0584  0.0179 -0.6546
 9782TIP3    H153541   2.655   2.231   9.366  2.2212 -1.7011 -0.7637
 9782TIP3    H253542   2.722   2.199   9.499 -0.6687 -3.0893  0.4387
 9783TIP3   OH253543   4.819   2.437  10.342 -0.4519 -0.2185  0.2759
 9783TIP3    H153544   4.860   2.384  10.274  1.9948  0.3872  1.1495
 9783TIP3    H253545   4.840   2.391  10.424 -2.8108 -0.6204  0.7168
 9784TIP3   OH253546   2.151   5.698   9.177 -0.8234  0.1570 -0.2022
 9784TIP3    H153547   2.117   5.609   9.164  1.6049 -0.8201 -0.4264
 9784TIP3    H253548   2.118   5.747   9.102 -0.4441 -1.1495 -1.2735
 9785TIP3   OH253549   4.582   5.871   9.165  0.3761 -0.4804 -0.3739
 9785TIP3    H153550   4.670   5.894   9.134  0.8262  1.0004  1.8163
 9785TIP3    H253551   4.569   5.924   9.243 -2.9649  0.2210 -1.2547
 9786TIP3   OH253552   5.936   3.566  11.611  0.0799  0.3739 -0.2939
 9786TIP3    H153553   5.931   3.597  11.702 -0.9881  0.2765 -0.3142
 9786TIP3    H253554   5.865   3.611  11.566 -0.1463 -0.4802 -0.8168
 9787TIP3   OH253555   3.243   1.980  10.144  0.1163  0.4556 -0.0887
 9787TIP3    H153556   3.319   1.934  10.181 -1.0367 -1.6112 -0.0996
 9787TIP3    H253557   3.206   2.027  10.218 -0.1154 -0.7415  0.5922
 9788TIP3   OH253558   3.328   0.425  10.347 -0.0360  0.0832 -0.0046
 9788TIP3    H153559   3.297   0.478  10.274 -0.5945 -0.4856 -0.1922
 9788TIP3    H253560   3.352   0.488  10.415  3.0865  0.8338 -1.6049
 9789TIP3   OH253561   4.929   0.212  11.715 -0.0861  0.4336 -0.2255
 9789TIP3    H153562   4.976   0.152  11.773 -0.2211 -0.7684 -1.3149
 9789TIP3    H253563   4.986   0.289  11.709  0.2706  0.2752  0.9016
 9790TIP3   OH253564   2.154   3.365   9.714 -0.8168  0.5617 -0.4801
 9790TIP3    H153565   2.063   3.384   9.737 -1.0623  2.0911 -2.4257
 9790TIP3    H253566   2.183   3.442   9.665  1.7626  0.3775  0.6297
 9791TIP3   OH253567   4.532   2.493  10.356  0.0235  0.3653 -0.4839
 9791TIP3    H153568   4.487   2.414  10.387 -0.7878  1.4538  1.3015
 9791TIP3    H253569   4.623   2.466  10.344  0.1524 -0.4645  1.8472
 9792TIP3   OH253570   3.021   5.200   8.794 -0.1493 -0.0510 -0.0432
 9792TIP3    H153571   3.083   5.272   8.802 -1.5105  1.1348  0.2188
 9792TIP3    H253572   3.076   5.122   8.784  1.4825  1.3119 -4.2936
 9793TIP3   OH253573   6.770   5.551  10.958  0.1795  0.2052 -0.3122
 9793TIP3    H153574   6.825   5.601  10.899 -2.0452  2.0279 -1.0063
 9793TIP3    H253575   6.790   5.459  10.939  1.2551  0.7799 -2.1633
 9794TIP3   OH253576   0.736   2.760   8.783 -0.8268 -0.6793  0.3682
 9794TIP3    H153577   0.769   2.672   8.763  0.4343 -0.0813 -0.2928
 9794TIP3    H253578   0.815   2.813   8.794 -1.4212  1.1631 -2.8777
 9795TIP3   OH253579   5.772   4.285   8.408  0.1134 -0.3154  0.1345
 9795TIP3    H153580   5.828   4.208   8.414 -0.7525 -1.1158 -1.3726
 9795TIP3    H253581   5.827   4.352   8.368  0.4035 -0.6666 -0.0595
 9796TIP3   OH253582   5.327   5.891  11.343 -0.2589 -0.2933  0.5971
 9796TIP3    H153583   5.400   5.858  11.395 -0.6693  1.4026  2.3796
 9796TIP3    H253584   5.254   5.895  11.405 -0.9548  1.2011 -0.2776
 9797TIP3   OH253585   1.194   3.071   9.426 -0.0991 -0.0601 -0.1644
 9797TIP3    H153586   1.181   3.158   9.388 -0.7134  0.0839  0.3542
 9797TIP3    H253587   1.288   3.063   9.436  0.0055  0.3031 -0.7693
 9798TIP3   OH253588   0.195   2.947  11.143 -0.2386 -0.2787  0.3198
 9798TIP3    H153589   0.214   2.870  11.089  0.2127 -0.0731  0.1801
 9798TIP3    H253590   0.277   2.965  11.190 -0.6690 -0.5500  1.2025
 9799TIP3   OH253591   4.095   4.689  10.329  0.3790 -0.7613 -0.6007
 9799TIP3    H153592   4.168   4.690  10.392 -0.8935  1.2820  0.9699
 9799TIP3    H253593   4.131   4.730  10.251  0.7170  1.1180  0.4813
 9800TIP3   OH253594   2.910   6.382   9.734 -0.2726 -0.9480  0.0452
 9800TIP3    H153595   2.890   6.302   9.782 -0.7703 -0.9272 -0.1216
 9800TIP3    H253596   2.874   6.366   9.646 -0.9385 -0.3001  0.1898
 9801TIP3   OH253597   0.105   5.153   8.602  0.0440  0.2403  0.1050
 9801TIP3    H153598   0.088   5.062   8.579  0.4736  0.1041  0.3270
 9801TIP3    H253599   0.123   5.152   8.696  0.3311  0.5107  0.0566
 9802TIP3   OH253600   1.910   2.224  10.800 -0.1629  0.1218  0.1791
 9802TIP3    H153601   1.887   2.314  10.778 -0.1032  0.0272 -0.2909
 9802TIP3    H253602   1.828   2.176  10.794 -0.0429 -0.0194 -0.4668
 9803TIP3   OH253603   3.495   1.184  10.331  0.3369 -0.1075  0.0598
 9803TIP3    H153604   3.419   1.197  10.274 -0.2379 -2.2966  0.2373
 9803TIP3    H253605   3.476   1.103  10.378  1.3206  1.0008  2.5515
 9804TIP3   OH253606   3.008   3.098   9.490 -0.4628  0.3709 -0.2852
 9804TIP3    H153607   3.011   3.190   9.515 -1.9133  0.3464  0.0544
 9804TIP3    H253608   2.991   3.051   9.572 -1.5150 -0.0303 -0.7101
 9805TIP3   OH253609   1.979   3.143  11.417 -0.1869 -0.0973  0.4971
 9805TIP3    H153610   2.054   3.085  11.431  0.0147  0.1713  0.5475
 9805TIP3    H253611   1.903   3.085  11.416  0.0182 -0.3662  0.4968
 9806TIP3   OH253612   2.405   3.569   9.625  0.2153  0.2294 -0.2612
 9806TIP3    H153613   2.392   3.643   9.566  0.2630 -0.0098 -0.5723
 9806TIP3    H253614   2.370   3.494   9.578 -1.6349  0.3389  0.8141
 9807TIP3   OH253615   6.477   1.501   9.520 -0.3122  0.3624 -0.5360
 9807TIP3    H153616   6.495   1.589   9.552  0.8233 -0.6291  1.8096
 9807TIP3    H253617   6.432   1.514   9.437 -0.0119  3.1294 -0.3490
 9808TIP3   OH253618   3.612   4.261   8.779  0.4644  0.2556 -0.0952
 9808TIP3    H153619   3.686   4.276   8.838  1.2371  0.6409 -1.1379
 9808TIP3    H253620   3.625   4.322   8.707  0.3097 -1.1547 -1.3697
 9809TIP3   OH253621   2.822   0.286   9.734 -0.0321  0.2919  0.7902
 9809TIP3    H153622   2.762   0.219   9.766  0.7120  0.3838  2.4528
 9809TIP3    H253623   2.766   0.350   9.692 -0.7675 -1.3109 -0.8117
 9810TIP3   OH253624   4.082   5.421  11.017  0.1093 -0.4669  0.3596
 9810TIP3    H153625   4.082   5.326  11.007  1.6127 -0.4070 -0.5792
 9810TIP3    H253626   4.038   5.454  10.939  1.2259 -0.3478 -0.2298
 9811TIP3   OH253627   1.759   4.898  11.922 -0.1777 -0.1334 -0.0693
 9811TIP3    H153628   1.670   4.911  11.955 -0.6366  0.9756 -1.6099
 9811TIP3    H253629   1.760   4.944  11.838  2.2207  0.9561  0.4663
 9812TIP3   OH253630   4.485   0.239   9.364 -0.0257  0.5395 -0.4880
 9812TIP3    H153631   4.443   0.281   9.440 -0.4286  0.4816 -0.6718
 9812TIP3    H253632   4.561   0.194   9.400 -1.0268 -0.7261  0.1333
 9813TIP3   OH253633   3.496   1.141   9.038 -0.2976  0.1316  0.0164
 9813TIP3    H153634   3.495   1.052   9.002 -0.2992  0.5961 -1.1606
 9813TIP3    H253635   3.577   1.179   9.004 -1.2675  1.2285 -1.1382
 9814TIP3   OH253636   2.143   5.066   9.408  0.1158  0.3709  0.5517
 9814TIP3    H153637   2.188   5.125   9.347 -1.3041  1.2959  0.3759
 9814TIP3    H253638   2.112   4.994   9.353 -0.8247  1.0106  0.2275
 9815TIP3   OH253639   4.188   4.610   8.831 -0.0549 -0.6321  0.0082
 9815TIP3    H153640   4.247   4.540   8.859  0.2467 -0.4691 -0.2157
 9815TIP3    H253641   4.182   4.669   8.906 -0.9324 -1.2967  0.4876
 9816TIP3   OH253642   6.495   2.562   8.413  0.4170 -0.0754 -0.1762
 9816TIP3    H153643   6.506   2.470   8.437  0.7137 -0.2424 -0.8990
 9816TIP3    H253644   6.516   2.611   8.492  0.7654 -0.6126  0.0664
 9817TIP3   OH253645   0.091   6.178  12.132  0.3155  0.3654  0.1208
 9817TIP3    H153646   0.024   6.160  12.198  2.5936 -1.3395  2.1886
 9817TIP3    H253647   0.164   6.214  12.183  1.9043 -0.2971 -1.6166
 9818TIP3   OH253648   1.455   6.696  11.694 -0.1061 -0.1157  0.0294
 9818TIP3    H153649   1.488   6.747  11.767  3.1620 -2.3172  0.3347
 9818TIP3    H253650   1.405   6.625  11.735 -1.1526  0.4857 -0.1555
 9819TIP3   OH253651   5.948   4.337   8.994 -0.2474  0.2963  0.1113
 9819TIP3    H153652   5.869   4.343   9.047 -0.4321  0.1462 -0.1463
 9819TIP3    H253653   5.962   4.426   8.961 -0.0090  0.4392  0.5831
 9820TIP3   OH253654   3.716   1.504  10.007  0.4035  0.4626  0.3551
 9820TIP3    H153655   3.726   1.466  10.094 -0.9900  1.6201  1.0617
 9820TIP3    H253656   3.656   1.445   9.961  2.8042 -1.3589 -0.6568
 9821TIP3   OH253657   6.043   2.446  10.636  0.0325 -0.1474  0.2082
 9821TIP3    H153658   6.048   2.464  10.730 -1.0299  0.1464  0.2172
 9821TIP3    H253659   6.102   2.510  10.597 -1.0547  1.0962  0.5288
 9822TIP3   OH253660   6.494   4.591  11.264  0.2409  0.2057  0.3187
 9822TIP3    H153661   6.454   4.512  11.301  0.9957 -0.4036 -0.1361
 9822TIP3    H253662   6.439   4.662  11.295  0.8040 -0.2630  2.6102
 9823TIP3   OH253663   4.917   1.936   8.858 -0.1747  0.1947 -0.1439
 9823TIP3    H153664   4.829   1.974   8.860  0.7698  2.7349 -1.7281
 9823TIP3    H253665   4.943   1.940   8.766  2.1826  1.0476  0.4830
 9824TIP3   OH253666   2.231   3.694   8.854  0.6595  0.0146 -0.4124
 9824TIP3    H153667   2.266   3.648   8.777  0.0660 -1.0768 -0.0507
 9824TIP3    H253668   2.137   3.679   8.849  0.6792 -0.6571  0.8987
 9825TIP3   OH253669   5.974   5.697   9.090 -0.0807 -0.2201 -0.0189
 9825TIP3    H153670   6.040   5.629   9.103  1.5148  0.7849 -2.1829
 9825TIP3    H253671   6.010   5.774   9.134 -0.3774  0.0496 -0.2477
 9826TIP3   OH253672   2.193   3.909  11.760  0.5350  0.4394  0.4831
 9826TIP3    H153673   2.216   3.881  11.849 -0.7428 -0.5690  0.5254
 9826TIP3    H253674   2.113   3.960  11.772  0.4197  0.3906 -0.0737
 9827TIP3   OH253675   0.082   4.751   9.672  0.2509  0.2147  0.0909
 9827TIP3    H153676   0.013   4.685   9.684 -0.2686  0.4097 -1.5439
 9827TIP3    H253677   0.139   4.740   9.747 -1.2923 -0.3019  1.2399
 9828TIP3   OH253678   6.752   4.278   8.792  0.1926  0.7033 -0.1674
 9828TIP3    H153679   6.707   4.203   8.754 -0.7755  0.5694  1.1606
 9828TIP3    H253680   6.845   4.260   8.777 -0.0813 -0.1414 -0.9595
 9829TIP3   OH253681   3.315   1.251  10.725  0.3392 -0.4316  0.3166
 9829TIP3    H153682   3.292   1.160  10.746  1.0525 -0.5973  0.4151
 9829TIP3    H253683   3.283   1.301  10.800  0.5026 -0.6887  0.5635
 9830TIP3   OH253684   2.768   2.238   9.007 -0.1239  0.2230  0.6833
 9830TIP3    H153685   2.689   2.261   8.957  0.2302  0.2605  0.1229
 9830TIP3    H253686   2.743   2.161   9.058 -1.2537  1.6266  2.3812
 9831TIP3   OH253687   4.318   0.659  10.412  0.8374 -0.1072  0.0042
 9831TIP3    H153688   4.254   0.589  10.424  0.8196 -0.0341  0.3532
 9831TIP3    H253689   4.401   0.622  10.441  0.3033  1.0055  3.4915
 9832TIP3   OH253690   1.820   1.490  10.065  0.7236 -0.6783 -1.0379
 9832TIP3    H153691   1.800   1.500  10.158 -0.6423  0.1113 -1.3723
 9832TIP3    H253692   1.739   1.453  10.028  1.0537 -0.4619 -1.9893
 9833TIP3   OH253693   0.150   4.200  11.460 -0.0359  0.7888  0.5856
 9833TIP3    H153694   0.208   4.200  11.384 -0.6263  0.5496  0.1182
 9833TIP3    H253695   0.069   4.242  11.428 -0.5540  0.0209  0.8592
 9834TIP3   OH253696   3.743   3.572  11.338 -0.2243 -0.4562  0.3308
 9834TIP3    H153697   3.807   3.537  11.400 -0.0084  0.3925  0.6121
 9834TIP3    H253698   3.769   3.664  11.327 -0.3423 -0.5506 -0.9158
 9835TIP3   OH253699   0.442   1.707  10.845  0.1031  0.0542  0.9063
 9835TIP3    H153700   0.474   1.763  10.774  0.4402 -2.6059 -1.2308
 9835TIP3    H253701   0.520   1.662  10.877 -0.2330  0.3442  2.1783
 9836TIP3   OH253702   2.720   5.669  10.422  0.1580  0.0988 -0.4737
 9836TIP3    H153703   2.691   5.729  10.491  2.9190  1.4325 -0.3703
 9836TIP3    H253704   2.690   5.709  10.341  1.1936  1.1851 -0.3397
 9837TIP3   OH253705   4.870   5.144  12.309  0.3050  0.2989 -0.3237
 9837TIP3    H153706   4.903   5.174  12.225 -0.4388 -1.7293 -1.3961
 9837TIP3    H253707   4.804   5.078  12.287  2.4993 -2.8988  1.8194
 9838TIP3   OH253708   3.024   2.323   8.749 -0.1304 -0.7153  0.2365
 9838TIP3    H153709   3.100   2.349   8.698 -1.9829  1.3326 -1.7131
 9838TIP3    H253710   2.991   2.244   8.704 -0.3441 -0.3541 -0.2543
 9839TIP3   OH253711   3.548   1.748  11.300 -0.2293 -0.1582 -0.2492
 9839TIP3    H153712   3.474   1.747  11.239 -0.6492 -1.4466  0.2453
 9839TIP3    H253713   3.625   1.744  11.245 -0.6162 -2.4493 -0.7285
 9840TIP3   OH253714   4.285   4.295  10.796 -0.4335 -0.2193  0.3058
 9840TIP3    H153715   4.359   4.261  10.745  2.2556  2.2587  2.2611
 9840TIP3    H253716   4.265   4.225  10.859  1.5074 -0.2783  0.9143
 9841TIP3   OH253717   2.578   4.953   9.918 -0.1930  0.4542 -0.2568
 9841TIP3    H153718   2.558   4.912  10.002 -1.2294  0.7077 -0.3649
 9841TIP3    H253719   2.673   4.946   9.910 -0.2292 -0.8668  0.2609
 9842TIP3   OH253720   2.460   2.538  11.334 -0.3387  0.2612 -0.3359
 9842TIP3    H153721   2.387   2.489  11.296  0.0715  0.4613 -1.4218
 9842TIP3    H253722   2.421   2.620  11.364 -0.7894 -0.1715  0.2795
 9843TIP3   OH253723   3.931   4.546  11.015 -0.1743 -0.4473 -0.3060
 9843TIP3    H153724   4.008   4.495  11.040  1.5091  0.5052 -3.1067
 9843TIP3    H253725   3.950   4.634  11.049 -1.0566 -0.6420  0.7652
 9844TIP3   OH253726   5.842   1.647  10.292  0.5410 -0.1851 -0.2279
 9844TIP3    H153727   5.780   1.575  10.301  0.5032 -0.3525 -1.5930
 9844TIP3    H253728   5.787   1.724  10.275  0.6410 -0.0710 -0.0342
 9845TIP3   OH253729   5.903   5.750   8.796  0.3488  0.4979  0.0652
 9845TIP3    H153730   5.989   5.714   8.775  0.5429  0.7035  0.5066
 9845TIP3    H253731   5.899   5.749   8.892 -1.6757 -3.1788  0.1413
 9846TIP3   OH253732   5.941   6.457   9.615 -0.8425 -0.2879 -0.6254
 9846TIP3    H153733   5.944   6.550   9.636 -0.2586 -0.5340  0.4946
 9846TIP3    H253734   6.018   6.420   9.659 -0.7090 -1.2033 -1.5828
 9847TIP3   OH253735   4.208   0.870  11.480 -0.4310  0.0828 -0.8619
 9847TIP3    H153736   4.222   0.860  11.385  0.5555  0.5716 -0.7840
 9847TIP3    H253737   4.186   0.782  11.510 -0.5352 -0.1226 -1.5171
 9848TIP3   OH253738   0.773   5.149  11.389 -0.0192 -0.0454  0.1616
 9848TIP3    H153739   0.803   5.132  11.478 -1.0208  0.5507  0.6297
 9848TIP3    H253740   0.707   5.217  11.398 -0.7040 -0.5218 -0.9515
 9849TIP3   OH253741   4.108   6.183  11.406  0.1426  0.0633  0.4836
 9849TIP3    H153742   4.116   6.089  11.392 -1.4203 -0.0132 -0.0657
 9849TIP3    H253743   4.151   6.198  11.490 -0.4594 -1.3060  1.0683
 9850TIP3   OH253744   3.365   6.422  10.785 -0.3935  0.0725 -0.5222
 9850TIP3    H153745   3.384   6.501  10.836 -0.8995 -0.4218  0.4375
 9850TIP3    H253746   3.294   6.379  10.832 -1.5236  0.0682 -2.1325
 9851TIP3   OH253747   6.649   1.874   9.134 -0.0890  0.4640  0.0508
 9851TIP3    H153748   6.691   1.922   9.206 -1.7724  1.4079  0.4558
 9851TIP3    H253749   6.713   1.807   9.110  0.2678 -0.3312  2.8658
 9852TIP3   OH253750   1.692   3.712  11.373 -0.1538  0.1314 -0.0435
 9852TIP3    H153751   1.782   3.734  11.399 -0.0753  0.4440 -0.5600
 9852TIP3    H253752   1.691   3.616  11.369 -0.6151 -0.0286  2.6469
 9853TIP3   OH253753   4.719   2.499   9.931  0.3152 -0.0163  0.5540
 9853TIP3    H153754   4.709   2.539  10.017  2.7846  1.7795  0.1071
 9853TIP3    H253755   4.632   2.464   9.910 -0.8330  1.2337  2.8961
 9854TIP3   OH253756   1.386   2.517  10.956 -0.1053  0.5845  0.2369
 9854TIP3    H153757   1.393   2.576  10.881 -0.0181  1.4287  0.8963
 9854TIP3    H253758   1.303   2.471  10.943  1.6116 -2.2033 -2.4199
 9855TIP3   OH253759   5.339   2.786  10.060 -0.4002  0.2890  0.1360
 9855TIP3    H153760   5.294   2.708  10.031 -1.2339  0.4821  0.8520
 9855TIP3    H253761   5.282   2.858  10.033  1.7800  0.9606 -3.2845
 9856TIP3   OH253762   2.424   5.023  10.771 -0.6028 -0.6734 -0.6673
 9856TIP3    H153763   2.519   5.037  10.775 -0.6204  0.5805 -2.8770
 9856TIP3    H253764   2.414   4.936  10.734 -0.3158 -0.7061 -0.6708
 9857TIP3   OH253765   3.640   2.420  10.191  0.3720  0.1417 -0.4040
 9857TIP3    H153766   3.571   2.480  10.163 -0.8564 -0.4827  1.1181
 9857TIP3    H253767   3.597   2.335  10.195  0.3444  0.1635  3.3091
 9858TIP3   OH253768   5.117   3.383  10.689  0.2359  0.8984 -0.4726
 9858TIP3    H153769   5.069   3.318  10.741  1.0084  1.4310  0.9662
 9858TIP3    H253770   5.048   3.439  10.653 -0.3951 -0.2273 -1.1020
 9859TIP3   OH253771   4.959   6.494  11.611  0.3788 -0.1641  0.0837
 9859TIP3    H153772   4.976   6.560  11.678  0.3912 -0.7134  0.6385
 9859TIP3    H253773   5.013   6.419  11.637 -0.8981 -1.0023  0.4199
 9860TIP3   OH253774   2.497   6.625   9.476  0.4678  0.6104 -0.0181
 9860TIP3    H153775   2.586   6.659   9.466  1.4716 -1.4117  1.4583
 9860TIP3    H253776   2.443   6.703   9.491  1.9338  1.8794 -1.0858
 9861TIP3   OH253777   2.398   2.125  10.478  0.7048  0.0768  0.7507
 9861TIP3    H153778   2.379   2.086  10.393 -0.2192  0.5281  0.7343
 9861TIP3    H253779   2.325   2.098  10.533  1.3173 -0.2465  1.4260
 9862TIP3   OH253780   3.838   4.690   9.985  0.5713  0.0002  0.2721
 9862TIP3    H153781   3.821   4.601  10.016  1.0551  0.3388  1.5717
 9862TIP3    H253782   3.927   4.708  10.013  0.3867  0.9951  0.2364
 9863TIP3   OH253783   5.238   1.269   9.057  0.1541 -0.1873  0.3814
 9863TIP3    H153784   5.246   1.346   9.001 -0.4595 -0.5891 -0.2785
 9863TIP3    H253785   5.323   1.261   9.099  1.5180 -1.2252 -2.2986
 9864TIP3   OH253786   6.051   0.197   9.280  0.0407 -0.1470 -0.6754
 9864TIP3    H153787   6.082   0.207   9.190  1.5670 -0.1307 -0.1742
 9864TIP3    H253788   6.103   0.260   9.331 -0.7358 -0.2146  0.2337
 9865TIP3   OH253789   6.775   3.147   8.860 -0.6264  0.2099  0.2080
 9865TIP3    H153790   6.783   3.193   8.777 -1.3359  1.2156  0.6844
 9865TIP3    H253791   6.803   3.210   8.926 -0.5245 -0.4167  0.7727
 9866TIP3   OH253792   3.569   2.683  11.175 -0.0455 -0.3565 -0.0454
 9866TIP3    H153793   3.475   2.686  11.158 -0.1422  1.3314  0.5906
 9866TIP3    H253794   3.578   2.718  11.264  1.2110 -0.1932 -0.2187
 9867TIP3   OH253795   2.411   0.790  10.811  0.7542 -0.1164  0.2929
 9867TIP3    H153796   2.328   0.799  10.764  0.2156  0.7834  1.3743
 9867TIP3    H253797   2.471   0.850  10.766  0.4732  0.1467  0.2711
 9868TIP3   OH253798   3.445   5.035   9.711  0.3096  0.1617 -0.1058
 9868TIP3    H153799   3.535   5.064   9.729  0.3012  0.3110 -0.3072
 9868TIP3    H253800   3.393   5.073   9.781  0.3843  0.1820 -0.0617
 9869TIP3   OH253801   4.783   1.646   9.127 -0.1549  0.0019  0.3295
 9869TIP3    H153802   4.771   1.595   9.047 -0.0045  0.5418 -0.0398
 9869TIP3    H253803   4.745   1.591   9.196  0.2645 -0.7400 -0.0129
 9870TIP3   OH253804   2.378   1.895   9.849  0.2691  0.4861 -0.0315
 9870TIP3    H153805   2.453   1.895   9.790  2.0578  0.1205  2.0978
 9870TIP3    H253806   2.331   1.814   9.829  0.1656  0.9085 -1.6595
 9871TIP3   OH253807   6.294   4.531   8.993  0.4294 -0.0708  0.0324
 9871TIP3    H153808   6.321   4.456   8.940 -1.7162 -0.6578 -0.3372
 9871TIP3    H253809   6.248   4.589   8.932  0.5111  0.6812  0.6645
 9872TIP3   OH253810   3.401   1.225  11.354 -0.2555  1.0239  0.3631
 9872TIP3    H153811   3.361   1.156  11.407  1.7772 -1.3433 -0.9658
 9872TIP3    H253812   3.341   1.235  11.280  0.2088 -0.5780 -0.2747
 9873TIP3   OH253813   2.126   6.324  10.460 -0.1797 -0.1541  0.3896
 9873TIP3    H153814   2.162   6.324  10.372  0.1671 -0.5034  0.5297
 9873TIP3    H253815   2.199   6.348  10.517 -0.1926 -0.7452  0.6619
 9874TIP3   OH253816   1.469   5.106   8.741 -0.5955  0.7786  0.2915
 9874TIP3    H153817   1.432   5.131   8.826 -1.2912  0.7029  0.0226
 9874TIP3    H253818   1.563   5.116   8.752 -0.4453 -1.5900  1.8616
 9875TIP3   OH253819   2.752   6.785   9.487  0.4638 -0.3439  0.0497
 9875TIP3    H153820   2.830   6.790   9.541  0.2619 -2.2567  0.6032
 9875TIP3    H253821   2.785   6.778   9.397  0.9198 -0.7581  0.2502
 9876TIP3   OH253822   0.887   0.398  10.545 -0.5169 -0.4995  0.0399
 9876TIP3    H153823   0.920   0.480  10.583 -0.3647 -0.4046 -0.2923
 9876TIP3    H253824   0.797   0.391  10.578 -0.8016  0.2089 -0.5461
 9877TIP3   OH253825   1.384   3.987  12.248  0.0120  0.1462  0.0605
 9877TIP3    H153826   1.381   3.927  12.322 -2.8251  0.8694  0.6621
 9877TIP3    H253827   1.326   3.947  12.183 -0.2569  1.1759 -0.3550
 9878TIP3   OH253828   4.870   1.048  10.534  0.0421  0.6330  0.3260
 9878TIP3    H153829   4.787   1.086  10.564  0.1874  0.1902  1.3330
 9878TIP3    H253830   4.847   0.997  10.457 -0.3219  1.9492 -0.4748
 9879TIP3   OH253831   0.731   5.647  11.212  0.5229 -0.0918 -0.0234
 9879TIP3    H153832   0.809   5.688  11.175 -0.4500  2.0122  0.1310
 9879TIP3    H253833   0.658   5.685  11.163 -0.5230 -0.6851  1.0127
 9880TIP3   OH253834   3.881   1.189  11.012  0.3625 -0.1517 -0.1630
 9880TIP3    H153835   3.844   1.206  11.098  0.7140 -0.9025  0.1372
 9880TIP3    H253836   3.914   1.274  10.983  0.2401  0.1016  0.4338
 9881TIP3   OH253837   0.596   3.978  11.208  0.1614  0.6118 -0.0113
 9881TIP3    H153838   0.641   4.058  11.235  0.2216  0.3413  0.7114
 9881TIP3    H253839   0.665   3.922  11.172  0.4714  0.1213  1.2713
 9882TIP3   OH253840   1.952   1.059   9.802  0.1177 -0.2543  0.2207
 9882TIP3    H153841   1.982   1.041   9.891 -0.4359 -0.4373  0.3766
 9882TIP3    H253842   1.995   0.994   9.748  0.7647  0.1065  0.2954
 9883TIP3   OH253843   3.905   2.172   9.787  0.1077 -0.0443  0.9198
 9883TIP3    H153844   3.965   2.208   9.722  0.3289 -0.4169  0.9125
 9883TIP3    H253845   3.842   2.242   9.803 -0.4927 -0.2565 -0.3804
 9884TIP3   OH253846   4.888   1.390  10.362 -0.3849  0.0674  1.2391
 9884TIP3    H153847   4.969   1.417  10.319 -0.6768  1.3335  1.4475
 9884TIP3    H253848   4.894   1.427  10.450 -0.6517 -0.8874  1.6811
 9885TIP3   OH253849   1.443   3.186   9.378 -0.4057  0.5179  0.4744
 9885TIP3    H153850   1.425   3.237   9.457  0.0849  0.2969  0.7340
 9885TIP3    H253851   1.510   3.238   9.332  0.0334  0.1534  0.6975
 9886TIP3   OH253852   4.615   3.530  11.932  0.1625  0.9847  0.1213
 9886TIP3    H153853   4.689   3.557  11.878 -0.3808  1.6620 -0.3146
 9886TIP3    H253854   4.640   3.446  11.969  1.1560  1.2223  0.0055
 9887TIP3   OH253855   0.859   6.730  11.402 -0.7172  0.3070  0.1066
 9887TIP3    H153856   0.902   6.672  11.464 -0.2892 -1.5121 -1.7893
 9887TIP3    H253857   0.910   6.811  11.407  1.5866 -1.0070 -0.3985
 9888TIP3   OH253858   5.000   5.605  10.391 -0.3538  0.9827  0.7256
 9888TIP3    H153859   5.057   5.601  10.314 -0.5495  0.7167  0.5955
 9888TIP3    H253860   4.913   5.622  10.356 -0.4541  0.7986  0.8843
 9889TIP3   OH253861   1.943   2.866  11.609  0.1528  0.3367 -0.2636
 9889TIP3    H153862   2.025   2.892  11.566  0.4520 -0.4571 -0.1683
 9889TIP3    H253863   1.956   2.776  11.635 -0.8611  0.1032 -0.5071
 9890TIP3   OH253864   4.674   5.963  10.388 -0.3598  0.1053  0.0392
 9890TIP3    H153865   4.623   5.998  10.461 -0.0946 -1.2957  0.9266
 9890TIP3    H253866   4.765   5.974  10.416 -0.2103  0.9157 -0.7385
 9891TIP3   OH253867   0.685   5.019   8.668  0.2670 -0.0523 -0.1569
 9891TIP3    H153868   0.615   5.035   8.731  1.0731  2.7173  0.1854
 9891TIP3    H253869   0.671   4.929   8.638 -2.4580 -0.1189  1.0438
 9892TIP3   OH253870   3.236   6.467   9.220  0.6271 -0.0850 -0.1537
 9892TIP3    H153871   3.296   6.540   9.237  1.1453 -0.6947  0.7534
 9892TIP3    H253872   3.288   6.403   9.173  0.5241 -0.3635  0.1038
 9893TIP3   OH253873   6.247   2.995  10.827 -0.3456 -0.0262 -0.3135
 9893TIP3    H153874   6.339   2.988  10.801 -0.0902  0.0533  0.5418
 9893TIP3    H253875   6.224   2.906  10.854 -0.4417  0.0105 -0.2760
 9894TIP3   OH253876   5.671   2.839   8.935 -0.0930 -0.0721 -0.1152
 9894TIP3    H153877   5.759   2.854   8.902  0.2588  0.9627  1.1935
 9894TIP3    H253878   5.615   2.838   8.857  0.7488  1.7422 -0.7861
 9895TIP3   OH253879   2.163   2.540  11.346 -0.2597 -0.5262  0.2024
 9895TIP3    H153880   2.199   2.458  11.312 -0.7279 -0.3639 -0.7080
 9895TIP3    H253881   2.078   2.516  11.382  0.2010 -0.6834  1.2465
 9896TIP3   OH253882   0.696   0.704   8.604 -0.4812 -1.1098 -0.0871
 9896TIP3    H153883   0.640   0.627   8.620 -2.5673 -0.6745 -4.0699
 9896TIP3    H253884   0.785   0.669   8.601 -0.9197 -2.6115  2.0014
 9897TIP3   OH253885   4.730   4.929   8.837  0.4802 -0.1755  0.0969
 9897TIP3    H153886   4.809   4.885   8.804  0.6193  0.5951 -0.6348
 9897TIP3    H253887   4.708   4.993   8.769 -0.3491  0.1307  0.6382
 9898TIP3   OH253888   3.785   6.707   9.587  0.6229  0.6463  0.1351
 9898TIP3    H153889   3.748   6.623   9.612 -1.0137  0.8457 -1.3732
 9898TIP3    H253890   3.766   6.765   9.661 -2.2405  0.7287 -0.5537
 9899TIP3   OH253891   1.615   3.611  10.466  0.5980 -0.3459 -1.0111
 9899TIP3    H153892   1.591   3.703  10.468  2.6985  0.2410 -0.2866
 9899TIP3    H253893   1.699   3.607  10.512  1.0911 -2.4464 -1.9667
 9900TIP3   OH253894   3.004   4.150   9.507 -0.2712 -0.1415 -0.0231
 9900TIP3    H153895   3.038   4.234   9.536 -0.3090  0.0217 -0.4490
 9900TIP3    H253896   2.949   4.120   9.580  0.3946 -0.1877  0.4693
 9901TIP3   OH253897   0.580   5.772   8.775 -0.6175 -0.0971 -0.5798
 9901TIP3    H153898   0.648   5.806   8.717 -1.2409  1.0129 -0.6864
 9901TIP3    H253899   0.498   5.796   8.732 -1.0947  0.5466  0.6311
 9902TIP3   OH253900   1.800   5.827   8.532  0.5502 -0.3058 -0.2172
 9902TIP3    H153901   1.745   5.749   8.522  0.3427 -0.0165 -1.5168
 9902TIP3    H253902   1.759   5.878   8.602 -1.1559  0.1607 -1.5052
 9903TIP3   OH253903   2.513   4.098  10.795 -0.1620  0.5465  0.4845
 9903TIP3    H153904   2.457   4.104  10.872 -1.1099 -2.9341  0.2306
 9903TIP3    H253905   2.599   4.073  10.829 -0.1250  0.6901  0.4999
 9904TIP3   OH253906   3.454   3.967  12.972  0.1154 -0.2798  0.3584
 9904TIP3    H153907   3.402   3.923  13.039 -0.6350  1.1666  0.7846
 9904TIP3    H253908   3.545   3.953  12.999 -0.1228 -1.1031  0.7620
 9905TIP3   OH253909   1.968   0.026   9.074  0.3051 -0.2660  0.2876
 9905TIP3    H153910   1.948   0.017   9.167  0.9680 -3.8778  0.2386
 9905TIP3    H253911   2.060  -0.000   9.068 -0.0620 -1.2787 -1.4911
 9906TIP3   OH253912   4.126   6.042   9.543 -0.3078  0.0949 -0.8520
 9906TIP3    H153913   4.157   6.130   9.518  1.4654 -0.7243 -1.6959
 9906TIP3    H253914   4.177   6.020   9.621 -1.0622 -0.0425 -0.3805
 9907TIP3   OH253915   2.670   1.262  11.234 -0.3828 -0.0377  0.3547
 9907TIP3    H153916   2.634   1.238  11.148 -1.0221 -1.1063  0.8975
 9907TIP3    H253917   2.625   1.343  11.257 -0.3082  0.1841 -0.2664
 9908TIP3   OH253918   1.613   0.327  10.190 -0.1345  0.0213 -0.4743
 9908TIP3    H153919   1.598   0.414  10.229  0.2498  1.0710 -2.5569
 9908TIP3    H253920   1.698   0.300  10.224 -0.5833  0.0920  0.7747
 9909TIP3   OH253921   3.270   4.536   9.899  0.3396 -0.1428 -0.4471
 9909TIP3    H153922   3.306   4.624   9.884  2.9450 -1.0857 -0.2616
 9909TIP3    H253923   3.253   4.533   9.993 -2.6757  1.0824 -0.8295
 9910TIP3   OH253924   2.734   3.911  12.352  0.0102  0.1594  0.4443
 9910TIP3    H153925   2.736   3.935  12.445  0.7634  1.1831  0.1828
 9910TIP3    H253926   2.813   3.952  12.316  1.0435 -2.2230 -0.1798
 9911TIP3   OH253927   5.638   6.588   9.990  0.2372 -0.1026 -0.6490
 9911TIP3    H153928   5.578   6.527  10.033 -0.1175  1.6136  1.4667
 9911TIP3    H253929   5.711   6.534   9.960 -1.9724 -2.1902 -2.7534
 9912TIP3   OH253930   5.100   4.133   8.897  0.4271  0.6429 -0.0858
 9912TIP3    H153931   5.009   4.105   8.908  0.4481  0.5121 -0.2447
 9912TIP3    H253932   5.105   4.215   8.946 -0.2473  1.6163 -1.5770
 9913TIP3   OH253933   4.100   2.070   8.454 -0.2541 -0.0440 -0.1813
 9913TIP3    H153934   4.071   2.161   8.462  0.2982  0.0136  2.0595
 9913TIP3    H253935   4.195   2.076   8.447 -0.1165 -0.4518  1.1059
 9914TIP3   OH253936   0.674   5.546   8.888  0.1294 -0.2147  0.4091
 9914TIP3    H153937   0.635   5.625   8.851 -1.0593 -0.3104  1.3776
 9914TIP3    H253938   0.618   5.475   8.856  0.4736 -0.5372  0.5209
 9915TIP3   OH253939   3.352   4.277   8.904  0.0066  0.1117  0.3258
 9915TIP3    H153940   3.427   4.253   8.849 -0.6350  0.3093 -0.6424
 9915TIP3    H253941   3.275   4.251   8.854 -0.5951  0.2227  1.1668
 9916TIP3   OH253942   6.069   0.980   8.870  0.1633  0.0243 -0.4237
 9916TIP3    H153943   5.983   0.940   8.876  0.1525 -0.0278 -0.9479
 9916TIP3    H253944   6.052   1.071   8.848  0.2198  0.1614  0.0756
 9917TIP3   OH253945   1.128   3.149   9.020 -0.2897 -0.4947 -0.1836
 9917TIP3    H153946   1.044   3.160   8.976  0.4891 -1.4477 -2.0334
 9917TIP3    H253947   1.110   3.167   9.112 -2.3811 -0.1383 -0.6160
 9918TIP3   OH253948   1.682   6.277  10.122 -0.3342 -0.1160  0.0061
 9918TIP3    H153949   1.732   6.218  10.178 -0.1415 -1.1110 -1.1853
 9918TIP3    H253950   1.607   6.224  10.093 -1.2516  0.8593  0.5071
 9919TIP3   OH253951   0.900   0.458  10.279 -0.3301  0.2695  0.1051
 9919TIP3    H153952   0.879   0.383  10.224 -0.4103  0.8038 -0.6044
 9919TIP3    H253953   0.879   0.429  10.368  1.7978 -1.3794  0.1565
 9920TIP3   OH253954   4.277   6.501  12.101 -0.1448 -0.7814  0.5200
 9920TIP3    H153955   4.244   6.428  12.047 -1.2824 -0.0060  0.1317
 9920TIP3    H253956   4.278   6.466  12.190  0.0029 -1.4992  0.2470
 9921TIP3   OH253957   4.208   0.476  10.876  0.1148  0.3455  0.2749
 9921TIP3    H153958   4.201   0.414  10.949  1.1823 -0.5248 -0.3271
 9921TIP3    H253959   4.258   0.429  10.809  1.2991  1.9793 -0.0629
 9922TIP3   OH253960   5.973   1.042  10.137 -0.1130  0.0231  0.0726
 9922TIP3    H153961   6.049   0.993  10.169 -1.4905 -2.2307  0.0914
 9922TIP3    H253962   5.953   1.104  10.207  1.1313  0.0219  0.4562
 9923TIP3   OH253963   1.761   6.487  12.494  0.0144 -0.6866  0.2984
 9923TIP3    H153964   1.854   6.483  12.471  0.0679  0.8647  0.0849
 9923TIP3    H253965   1.717   6.508  12.411 -0.4038 -0.4550  0.5753
 9924TIP3   OH253966   1.241   5.864  10.655 -0.1454  0.0630  0.7695
 9924TIP3    H153967   1.175   5.879  10.723  1.3206  2.7148  1.7424
 9924TIP3    H253968   1.245   5.769  10.646 -1.5995 -0.3021  3.1737
 9925TIP3   OH253969   4.235   2.342   9.699  0.3530 -0.3228 -0.0041
 9925TIP3    H153970   4.187   2.263   9.675 -1.1648  0.9353 -1.3585
 9925TIP3    H253971   4.269   2.375   9.615  0.3868  0.8054  0.4416
 9926TIP3   OH253972   3.255   3.592   9.501 -0.0763  0.5663 -0.5424
 9926TIP3    H153973   3.207   3.571   9.581  3.0206 -0.5736  1.1644
 9926TIP3    H253974   3.194   3.647   9.451 -2.2896  1.0352  2.3838
 9927TIP3   OH253975   1.384   3.544   9.872  0.1311  0.3901 -0.0689
 9927TIP3    H153976   1.331   3.472   9.907 -0.0225  0.2058 -0.6758
 9927TIP3    H253977   1.472   3.527   9.905  0.0837 -0.0415 -0.1583
 9928TIP3   OH253978   1.809   6.234   8.868 -0.0902 -0.0067  0.4143
 9928TIP3    H153979   1.736   6.254   8.810 -0.6095  0.0261  1.0606
 9928TIP3    H253980   1.885   6.232   8.811 -0.5258  0.4355 -0.1986
 9929TIP3   OH253981   5.531   5.146   8.492  0.2507 -0.3796 -0.0271
 9929TIP3    H153982   5.535   5.053   8.471  0.6678 -0.3911  0.0994
 9929TIP3    H253983   5.441   5.171   8.472  0.4959 -0.4982 -1.3601
 9930TIP3   OH253984   0.938   5.554   8.557 -0.9104  0.2899 -0.0960
 9930TIP3    H153985   0.938   5.479   8.615 -0.3661  0.8762  0.6868
 9930TIP3    H253986   1.030   5.583   8.555 -0.5047 -0.8459 -2.7746
 9931TIP3   OH253987   6.222   2.175   8.813  0.2136 -0.5442 -0.4479
 9931TIP3    H153988   6.314   2.182   8.835  0.0819 -1.3121  0.4326
 9931TIP3    H253989   6.176   2.215   8.886 -0.1541  0.1222 -1.0286
 9932TIP3   OH253990   0.148   6.041  10.583 -0.1655 -0.1262  0.3488
 9932TIP3    H153991   0.219   6.031  10.646 -0.1451  1.0941  0.5336
 9932TIP3    H253992   0.163   5.970  10.520  1.6728  0.5261 -0.0381
 9933TIP3   OH253993   4.721   4.664  11.921  0.2047 -0.0682 -0.0398
 9933TIP3    H153994   4.751   4.743  11.967  2.0728 -0.3061 -0.7632
 9933TIP3    H253995   4.730   4.594  11.985 -0.3723  0.1276  0.2559
 9934TIP3   OH253996   1.104   0.134   8.776  0.2337 -0.2887  0.3879
 9934TIP3    H153997   1.080   0.102   8.689  2.1766 -0.9922  0.0480
 9934TIP3    H253998   1.105   0.229   8.767 -0.7425 -0.3091 -0.0075
 9935TIP3   OH253999   0.427   5.320   8.415 -0.0452  0.0499  0.4949
 9935TIP3    H154000   0.470   5.393   8.370 -0.4586 -0.4518 -0.7389
 9935TIP3    H254001   0.497   5.256   8.427  0.4636  0.8536  2.1171
 9936TIP3   OH254002   3.776   1.961   9.929  0.3446  0.5588 -0.2122
 9936TIP3    H154003   3.843   2.026   9.908  1.2750 -0.6947 -1.2647
 9936TIP3    H254004   3.779   1.955  10.025  0.5008  1.7693 -0.1206
 9937TIP3   OH254005   5.176   3.109  11.779 -0.1998 -0.7060  0.1572
 9937TIP3    H154006   5.267   3.133  11.761 -1.0092  1.3123 -1.6079
 9937TIP3    H254007   5.150   3.055  11.704 -0.7690 -0.4005  0.1307
 9938TIP3   OH254008   1.929   4.907   9.944 -0.0167 -0.1451 -0.0822
 9938TIP3    H154009   1.862   4.972   9.967 -1.0624 -0.9166 -0.8715
 9938TIP3    H254010   2.007   4.959   9.924 -1.0098  0.9184 -1.3170
 9939TIP3   OH254011   0.643   5.124   9.730  0.4558  0.0664 -0.2507
 9939TIP3    H154012   0.688   5.141   9.813 -0.9096  0.7635  0.3709
 9939TIP3    H254013   0.610   5.035   9.739 -1.8522  0.9624  1.0541
 9940TIP3   OH254014   0.706   3.339   9.563 -0.1349 -0.0830  0.1388
 9940TIP3    H154015   0.634   3.283   9.594 -2.4657  2.4617 -0.3207
 9940TIP3    H254016   0.735   3.297   9.482  0.3619 -2.2692  1.3656
 9941TIP3   OH254017   4.337   2.464  11.570 -0.3990 -0.3177 -0.4505
 9941TIP3    H154018   4.268   2.401  11.591  0.3662 -1.2667 -0.7331
 9941TIP3    H254019   4.289   2.542  11.541 -1.3801 -0.4013  0.8199
 9942TIP3   OH254020   4.588   3.679  10.453  0.3307  0.2710  0.8506
 9942TIP3    H154021   4.586   3.695  10.358 -2.0924  1.1944  1.0078
 9942TIP3    H254022   4.612   3.586  10.460  1.1796  0.3313 -0.6081
 9943TIP3   OH254023   4.701   1.392  10.737 -0.0080 -0.3711  0.1804
 9943TIP3    H154024   4.605   1.396  10.732 -0.1984 -0.2119  2.6720
 9943TIP3    H254025   4.729   1.483  10.734 -0.0630 -0.3269  0.8155
 9944TIP3   OH254026   1.678   4.453   8.854 -0.1250 -0.0436 -0.0263
 9944TIP3    H154027   1.617   4.523   8.874  1.5744  0.7914  2.9656
 9944TIP3    H254028   1.757   4.498   8.824 -0.7753 -1.0951 -3.8351
 9945TIP3   OH254029   1.844   3.654   9.432 -0.2156  0.3377  0.3874
 9945TIP3    H154030   1.929   3.609   9.433  0.7470  2.0444  0.1742
 9945TIP3    H254031   1.780   3.585   9.450  1.2982 -0.8202  1.6275
 9946TIP3   OH254032   4.991   2.783  11.371 -0.3566  0.1294  0.2715
 9946TIP3    H154033   5.015   2.711  11.313 -3.8537 -1.1381  0.1666
 9946TIP3    H254034   4.947   2.846  11.315 -1.0848  0.3200  1.0270
 9947TIP3   OH254035   5.963   1.384  11.344  0.1079 -0.2973  0.2293
 9947TIP3    H154036   5.892   1.425  11.296 -0.2984 -1.2046  0.0269
 9947TIP3    H254037   5.935   1.293  11.355  0.5769 -0.3180  1.4407
 9948TIP3   OH254038   6.256   0.417   8.850 -0.2660  0.0201  0.0302
 9948TIP3    H154039   6.333   0.384   8.805 -0.2274 -0.7454  0.6445
 9948TIP3    H254040   6.268   0.512   8.851 -0.0228  0.0121 -1.1008
 9949TIP3   OH254041   5.110   4.866   9.618 -0.0012 -0.3587 -0.1067
 9949TIP3    H154042   5.034   4.860   9.675 -0.7468  0.4862 -0.9751
 9949TIP3    H254043   5.151   4.949   9.640  0.1704 -0.4095 -0.2314
 9950TIP3   OH254044   1.675   2.661  10.429  0.3853 -0.0354 -0.2902
 9950TIP3    H154045   1.760   2.648  10.387  0.3515  0.9069 -0.6816
 9950TIP3    H254046   1.631   2.725  10.373 -0.5398 -0.4306 -0.0260
 9951TIP3   OH254047   4.428   3.721  10.988 -0.5532  0.9959  0.1262
 9951TIP3    H154048   4.496   3.764  11.039  0.8426 -0.8779 -0.0405
 9951TIP3    H254049   4.462   3.720  10.899 -0.2243 -0.9480  0.2276
 9952TIP3   OH254050   0.308   4.212  11.235  0.5875  0.0543 -0.1784
 9952TIP3    H154051   0.379   4.246  11.182  0.4536  1.8821  0.7220
 9952TIP3    H254052   0.228   4.247  11.195  0.2474 -1.0473 -0.5149
 9953TIP3   OH254053   0.121   2.634   8.613 -0.3559  0.1496  0.1027
 9953TIP3    H154054   0.041   2.681   8.589  0.4745  1.3010 -0.5193
 9953TIP3    H254055   0.185   2.703   8.627  0.4347 -0.7439  0.9993
 9954TIP3   OH254056   6.189   2.402   8.979 -0.1833 -0.5067  0.0189
 9954TIP3    H154057   6.260   2.466   8.971  0.1465 -1.0846 -2.5307
 9954TIP3    H254058   6.109   2.455   8.980  0.1900  0.0541  0.4696
 9955TIP3   OH254059   5.568   4.157  10.591  0.2011 -0.1648 -0.2035
 9955TIP3    H154060   5.549   4.086  10.530 -0.4685 -0.8065  0.7242
 9955TIP3    H254061   5.658   4.141  10.619  0.0810 -0.6038 -0.0598
 9956TIP3   OH254062   1.894   6.710  11.151  0.2485  0.1922 -0.4892
 9956TIP3    H154063   1.834   6.660  11.095 -0.8093 -0.0073  0.7622
 9956TIP3    H254064   1.863   6.800  11.144 -1.0547 -0.0799  1.1170
 9957TIP3   OH254065   4.761   1.267   9.154 -0.4299 -0.0306 -0.9631
 9957TIP3    H154066   4.845   1.287   9.194 -0.9043 -0.4275  0.2623
 9957TIP3    H254067   4.757   1.171   9.152 -1.7846 -0.0864  1.1182
 9958TIP3   OH254068   3.711   5.052   9.502  0.8353  0.1019  0.0612
 9958TIP3    H154069   3.711   5.098   9.586 -0.0983 -2.7794  1.7800
 9958TIP3    H254070   3.629   5.081   9.460  1.2966  1.5521  0.0894
 9959TIP3   OH254071   4.254   2.061  10.570 -0.2348 -0.1671  0.5319
 9959TIP3    H154072   4.188   2.114  10.615 -0.4224 -0.3293  0.4497
 9959TIP3    H254073   4.233   1.971  10.594  0.6591 -0.1514  1.4380
 9960TIP3   OH254074   2.271   6.633  10.471  0.0724 -0.0166 -0.2479
 9960TIP3    H154075   2.342   6.692  10.495 -0.6395  0.1308  1.5769
 9960TIP3    H254076   2.278   6.560  10.532 -1.6647  0.2624  0.3507
 9961TIP3   OH254077   5.876   2.111  10.087  0.1098 -0.1067 -0.7806
 9961TIP3    H154078   5.914   2.137  10.003  0.9717 -1.1802 -0.7467
 9961TIP3    H254079   5.951   2.103  10.145 -0.4800  0.5767  0.1006
 9962TIP3   OH254080   1.998   6.194   8.667 -0.0985  0.6865  0.0799
 9962TIP3    H154081   2.092   6.182   8.682 -0.4969 -1.2420  1.4391
 9962TIP3    H254082   1.984   6.165   8.577  0.1413 -2.6193  0.9827
 9963TIP3   OH254083   5.094   0.475  11.197 -0.1003 -0.1918  0.7113
 9963TIP3    H154084   5.167   0.459  11.137 -1.2956  0.8368 -1.1191
 9963TIP3    H254085   5.133   0.469  11.284  2.0018 -0.3963 -0.1759
 9964TIP3   OH254086   4.473   3.322  10.191 -0.3834  0.5637 -0.2882
 9964TIP3    H154087   4.537   3.382  10.154  0.9523 -0.7056 -0.1090
 9964TIP3    H254088   4.525   3.251  10.229 -1.8828 -1.4088 -1.6675
 9965TIP3   OH254089   5.397   0.024  11.537 -0.5173  0.2320 -0.2044
 9965TIP3    H154090   5.381   0.112  11.504 -0.3575  0.5333  0.4982
 9965TIP3    H254091   5.310  -0.008  11.562 -0.3612  0.9816  1.4393
 9966TIP3   OH254092   0.501   2.166  10.228 -0.5233 -0.1459  0.7240
 9966TIP3    H154093   0.474   2.122  10.309 -2.9988 -0.5579 -0.2404
 9966TIP3    H254094   0.453   2.249  10.230 -1.6304 -0.7094 -0.8893
 9967TIP3   OH254095   1.721   4.682   8.638 -0.1196 -0.3947  0.2841
 9967TIP3    H154096   1.631   4.650   8.644 -0.8562  1.0597 -1.6626
 9967TIP3    H254097   1.728   4.747   8.708 -0.7645 -0.1643  0.1461
 9968TIP3   OH254098   3.531   1.900  10.096 -0.8370  0.1905  0.5030
 9968TIP3    H154099   3.521   1.812  10.058  2.9164 -0.2571  0.1860
 9968TIP3    H254100   3.595   1.888  10.166 -0.4587  2.6474  0.6528
 9969TIP3   OH254101   5.868   0.505  10.615  0.5348  0.2433 -0.1622
 9969TIP3    H154102   5.940   0.498  10.552  0.0346 -0.4666 -0.6783
 9969TIP3    H254103   5.903   0.559  10.685  1.8207 -0.6672 -0.0607
 9970TIP3   OH254104   0.148   6.739  10.899 -0.2223  0.0553  0.1039
 9970TIP3    H154105   0.146   6.822  10.946  0.0926 -0.0719  0.3541
 9970TIP3    H254106   0.067   6.695  10.923 -0.9727  0.8050 -1.0042
 9971TIP3   OH254107   3.918   2.411  11.014 -0.4893 -0.3349  0.0819
 9971TIP3    H154108   3.895   2.474  11.083 -0.7706 -0.5842  0.2190
 9971TIP3    H254109   4.008   2.384  11.035 -1.1774 -1.7591  1.4060
 9972TIP3   OH254110   1.402   1.586  10.290  0.2478 -0.6971  0.4260
 9972TIP3    H154111   1.410   1.496  10.257  0.2647 -0.6004  0.1605
 9972TIP3    H254112   1.317   1.588  10.333 -0.0806 -0.6391 -0.2188
 9973TIP3   OH254113   0.510   4.459   9.113  0.1761  0.6452 -0.0413
 9973TIP3    H154114   0.426   4.501   9.096 -0.0307  0.3060  0.1421
 9973TIP3    H254115   0.516   4.389   9.049  0.7814  1.3086 -0.7264
 9974TIP3   OH254116   4.503   4.543  10.515  0.0873  0.4323 -0.2918
 9974TIP3    H154117   4.460   4.462  10.488  0.2324  0.5937 -1.0342
 9974TIP3    H254118   4.594   4.532  10.487  0.5241  0.1399  1.1633
 9975TIP3   OH254119   1.134   6.420   9.759  0.2913 -0.2169  0.0917
 9975TIP3    H154120   1.140   6.457   9.670  0.6039  0.4263  0.3700
 9975TIP3    H254121   1.204   6.355   9.762  0.0559 -0.4895 -0.2448
 9976TIP3   OH254122   0.459   3.916   9.981  0.0788  0.3502  0.1547
 9976TIP3    H154123   0.364   3.919   9.967  0.0996  3.1377  0.0514
 9976TIP3    H254124   0.470   3.948  10.071  0.9540  0.3477  0.0529
 9977TIP3   OH254125   0.316   6.332  11.363 -0.4337 -0.7292  0.2240
 9977TIP3    H154126   0.341   6.376  11.444  1.6162 -1.1869 -0.0927
 9977TIP3    H254127   0.275   6.250  11.392 -1.4519 -0.0535  0.7766
 9978TIP3   OH254128   5.588   2.805  10.950 -0.1697 -0.4086  0.0643
 9978TIP3    H154129   5.666   2.757  10.976  0.1050 -1.5361 -2.5135
 9978TIP3    H254130   5.620   2.892  10.927 -0.0512 -0.1676  1.1052
 9979TIP3   OH254131   2.275   4.770  11.337  0.1109  0.3989 -0.5491
 9979TIP3    H154132   2.337   4.697  11.346 -0.8361 -0.2573  1.0265
 9979TIP3    H254133   2.315   4.841  11.387 -0.7083 -0.2769  1.1661
 9980TIP3   OH254134   6.155   3.443   8.450 -0.0813 -0.0684 -0.8000
 9980TIP3    H154135   6.246   3.469   8.467 -0.1157 -1.3999  2.0365
 9980TIP3    H254136   6.154   3.348   8.463 -1.9978  0.0116 -0.0755
 9981TIP3   OH254137   0.864   3.190   8.742  0.3980  0.8526  0.2748
 9981TIP3    H154138   0.856   3.220   8.833  0.4032  0.2417  0.4754
 9981TIP3    H254139   0.954   3.211   8.718  1.7022 -2.4825  1.6956
 9982TIP3   OH254140   1.942   5.792   9.361 -0.0252  0.0345  0.2830
 9982TIP3    H154141   1.945   5.739   9.441 -1.8911 -0.5913 -0.0134
 9982TIP3    H254142   2.020   5.765   9.312  1.2515  0.5538  1.9222
 9983TIP3   OH254143   3.833   5.550  11.584  0.2858 -0.5720 -0.0220
 9983TIP3    H154144   3.907   5.496  11.557  0.7702 -0.5974  1.3392
 9983TIP3    H254145   3.765   5.486  11.608  0.7246 -0.5861  1.2143
 9984TIP3   OH254146   4.272   0.992   9.145 -0.5004 -0.3938  0.5073
 9984TIP3    H154147   4.258   0.971   9.053  1.3752  0.3100  0.0191
 9984TIP3    H254148   4.313   1.079   9.145  1.4455 -1.2210  1.8353
 9985TIP3   OH254149   4.187   1.056   9.996 -0.0950  0.3132 -0.0604
 9985TIP3    H154150   4.220   1.009   9.920  0.8665  3.0942 -1.5135
 9985TIP3    H254151   4.095   1.030  10.003 -0.4764  0.6510 -2.7819
 9986TIP3   OH254152   6.237   1.342   9.322  0.5125  0.4054 -0.0668
 9986TIP3    H154153   6.319   1.361   9.276  1.1181 -0.5435  0.5676
 9986TIP3    H254154   6.204   1.427   9.350 -0.0003  1.0334 -2.4197
 9987TIP3   OH254155   4.052   5.563   9.619  0.4387  0.0166 -0.0604
 9987TIP3    H154156   4.081   5.557   9.710  0.8424 -0.7630 -0.2233
 9987TIP3    H254157   4.109   5.628   9.579 -0.7358  1.4926  0.5956
 9988TIP3   OH254158   4.662   1.758  10.069 -0.0625 -0.5218 -0.3908
 9988TIP3    H154159   4.642   1.772  10.162  3.5202  1.1309  0.2937
 9988TIP3    H254160   4.587   1.796  10.023 -0.9145  0.6419  1.7941
 9989TIP3   OH254161   5.792   4.146  10.409  0.6708 -0.0463  0.7170
 9989TIP3    H154162   5.838   4.081  10.355  0.4899 -0.7114  1.3539
 9989TIP3    H254163   5.704   4.149  10.372  0.5098 -0.5948  1.0483
 9990TIP3   OH254164   0.340   4.524  10.405 -0.2702  0.3895  0.2247
 9990TIP3    H154165   0.258   4.477  10.386  0.0610 -0.1111 -0.0056
 9990TIP3    H254166   0.408   4.465  10.374  0.2518  0.0836  1.8714
 9991TIP3   OH254167   2.690   2.101  10.140  0.2542 -0.1795 -0.0398
 9991TIP3    H154168   2.612   2.056  10.108  0.0884  0.0073  0.0989
 9991TIP3    H254169   2.750   2.101  10.065  0.6264 -1.4548  0.2445
 9992TIP3   OH254170   2.979   3.622  10.143  0.3199  0.3749  0.0875
 9992TIP3    H154171   2.894   3.602  10.182  0.4720 -1.1048 -0.2725
 9992TIP3    H254172   3.027   3.668  10.212  0.0111 -0.7656  1.1046
 9993TIP3   OH254173   1.616   3.769   9.694  0.3412 -0.2690 -0.2093
 9993TIP3    H154174   1.670   3.704   9.738  1.8935  0.2647 -1.2356
 9993TIP3    H254175   1.674   3.844   9.683 -0.3430  0.0465 -2.0212
 9994TIP3   OH254176   3.847   4.289   8.488 -0.1398 -0.5963  0.3054
 9994TIP3    H154177   3.924   4.340   8.464 -1.3600  1.0597 -0.2629
 9994TIP3    H254178   3.882   4.214   8.536  1.7740  0.4197  0.5933
 9995TIP3   OH254179   1.027   0.706   8.835  0.0956 -0.0229 -0.5311
 9995TIP3    H154180   1.100   0.767   8.845 -0.2575  0.3163  0.0612
 9995TIP3    H254181   0.962   0.735   8.900  0.0623 -1.2332  0.0072
 9996TIP3   OH254182   5.551   5.077  10.348 -0.0699  0.1500  0.1453
 9996TIP3    H154183   5.613   5.065  10.277  0.2327 -0.1963  0.4650
 9996TIP3    H254184   5.480   5.129  10.310 -0.9395 -1.7576 -1.0163
 9997TIP3   OH254185   3.989   5.448   9.389 -0.1786  0.3248  0.1188
 9997TIP3    H154186   3.994   5.475   9.481 -0.4690  1.4839 -0.1882
 9997TIP3    H254187   4.013   5.355   9.390  0.1932  0.4135  1.3134
 9998TIP3   OH254188   2.926   3.252  12.694  0.0499 -0.1614 -0.3550
 9998TIP3    H154189   2.831   3.251  12.704  0.1602 -0.8667  0.7317
 9998TIP3    H254190   2.952   3.337  12.729 -0.0820 -0.4371  0.4300
 9999TIP3   OH254191   2.032   3.365   9.131  0.0480  0.2945 -0.8699
 9999TIP3    H154192   2.109   3.385   9.078 -0.2255  1.8009 -0.7384
 9999TIP3    H254193   1.981   3.304   9.078 -0.0707  1.5221 -2.2361
10000TIP3   OH254194   3.419   4.219  12.163 -0.2773 -0.5374  0.2129
10000TIP3    H154195   3.359   4.236  12.235  3.0892  0.1863  3.1269
10000TIP3    H254196   3.414   4.297  12.108 -2.0309 -0.5798  0.2559
10001TIP3   OH254197   5.476   2.328   8.586  0.4405 -0.3383 -0.3389
10001TIP3    H154198   5.441   2.276   8.513  0.6129  1.5448 -1.8644
10001TIP3    H254199   5.516   2.404   8.543 -0.9170  1.7140  1.7997
10002TIP3   OH254200   2.457   5.855   9.798 -0.4175  0.4366 -0.6476
10002TIP3    H154201   2.371   5.813   9.803 -0.3979  0.2964 -1.3737
10002TIP3    H254202   2.476   5.859   9.704  0.4582  0.2789 -0.4856
10003TIP3   OH254203   0.193   2.350  11.081  0.5881 -0.1477  0.4909
10003TIP3    H154204   0.121   2.290  11.100  0.3733 -0.6196 -1.6270
10003TIP3    H254205   0.151   2.430  11.050  0.9326  0.5905  1.8219
10004TIP3   OH254206   2.758   3.756  11.437  0.3263 -0.0779  0.3087
10004TIP3    H154207   2.814   3.719  11.368  0.8055 -0.7280  1.0337
10004TIP3    H254208   2.698   3.813  11.390 -0.2388 -1.5399 -0.8316
10005TIP3   OH254209   3.440   5.305   8.969  0.3446  1.0049 -0.7493
10005TIP3    H154210   3.412   5.220   9.003 -0.6579  0.9162 -1.7211
10005TIP3    H254211   3.532   5.292   8.945  0.7135  0.7341  0.7584
10006TIP3   OH254212   5.533   1.086   9.967  0.4484 -0.1256 -0.1298
10006TIP3    H154213   5.591   1.135  10.025 -0.9284 -0.3915  1.5147
10006TIP3    H254214   5.589   1.016   9.932  1.0148 -0.6983  1.8342
10007TIP3   OH254215   3.006   1.264   9.108 -0.5361 -0.8072 -0.2016
10007TIP3    H154216   3.082   1.322   9.110 -2.0762  1.3503 -0.9300
10007TIP3    H254217   3.044   1.176   9.102  1.9299  0.2419 -1.9809
10008TIP3   OH254218   5.031   4.511   9.688 -0.0490  0.4276 -0.2057
10008TIP3    H154219   5.101   4.451   9.663  1.4811  1.8640  0.3620
10008TIP3    H254220   4.995   4.475   9.769 -0.2555 -0.5393 -0.7169
10009TIP3   OH254221   5.167   2.578  10.814 -0.5731  0.0768  0.1398
10009TIP3    H154222   5.247   2.596  10.864  0.0845 -0.9375 -0.4877
10009TIP3    H254223   5.196   2.578  10.723 -1.4666  0.5060 -0.1553
10010TIP3   OH254224   2.503   4.962   9.198 -0.1823  0.5900 -0.1711
10010TIP3    H154225   2.450   5.034   9.234 -2.2408 -1.6732  1.7105
10010TIP3    H254226   2.578   4.955   9.257 -1.1828 -0.1806  1.0801
10011TIP3   OH254227   3.741   3.518  11.061 -0.4079  0.4245 -0.0084
10011TIP3    H154228   3.734   3.543  11.153 -0.8973 -0.9904  0.3659
10011TIP3    H254229   3.676   3.449  11.050 -0.4820  0.6962 -1.4738
10012TIP3   OH254230   5.123   4.636   8.463 -0.0891  0.2930  0.0129
10012TIP3    H154231   5.189   4.703   8.446 -1.0645  0.8839 -1.5606
10012TIP3    H254232   5.040   4.676   8.439 -0.7019 -1.4987 -1.0422
10013TIP3   OH254233   3.816   3.741   9.903  0.4359  0.3126 -0.7148
10013TIP3    H154234   3.825   3.832   9.874 -0.2622  1.5591  2.5817
10013TIP3    H254235   3.737   3.709   9.860 -1.3619  2.5160  0.7671
10014TIP3   OH254236   1.435   5.455  11.632  0.3084  0.3018 -0.1570
10014TIP3    H154237   1.409   5.439  11.723  1.1409  0.2568  0.0730
10014TIP3    H254238   1.457   5.548  11.630  0.9832  0.1481 -0.1349
10015TIP3   OH254239   0.739   3.665  11.272  0.7711  0.0493 -0.2146
10015TIP3    H154240   0.764   3.614  11.349 -0.3061 -2.3257 -1.3417
10015TIP3    H254241   0.643   3.657  11.268  0.9176 -1.2857 -2.6566
10016TIP3   OH254242   6.711   3.002  11.029 -0.0963  0.1995  0.7837
10016TIP3    H154243   6.792   2.997  11.079  0.2996 -1.0485  0.0635
10016TIP3    H254244   6.643   2.971  11.089 -0.0788  1.3711  1.4295
10017TIP3   OH254245   4.500   3.178   9.704  0.3227  0.3735 -0.7332
10017TIP3    H154246   4.484   3.118   9.776  3.1666 -0.1624 -0.4309
10017TIP3    H254247   4.424   3.167   9.646 -0.6442 -1.2688  0.7617
10018TIP3   OH254248   3.499   0.333  11.164 -0.3755 -0.2371 -0.3997
10018TIP3    H154249   3.474   0.425  11.150 -0.9986 -0.4026 -0.3917
10018TIP3    H254250   3.453   0.285  11.095 -2.3089 -0.8909  1.2485
10019TIP3   OH254251   5.369   1.529  10.716  0.5116  0.4673 -0.2127
10019TIP3    H154252   5.276   1.546  10.729  0.3544  0.0463 -0.7357
10019TIP3    H254253   5.384   1.544  10.622  1.3913  2.4564  0.2068
10020TIP3   OH254254   3.493   4.279  11.103  0.1671  0.0101  0.1364
10020TIP3    H154255   3.455   4.252  11.019  1.1119 -0.1998 -0.2353
10020TIP3    H254256   3.588   4.281  11.087  0.2339  3.6039  0.0914
10021TIP3   OH254257   5.263   5.063   9.752 -0.3133  0.2632 -0.8581
10021TIP3    H154258   5.234   5.036   9.840  1.1028 -2.3958 -1.1017
10021TIP3    H254259   5.251   5.158   9.751 -4.3688 -0.0228  0.6736
10022TIP3   OH254260   3.606   6.309  10.966 -0.4919 -0.0503 -0.0837
10022TIP3    H154261   3.626   6.271  10.881 -1.3764 -0.2527 -0.2173
10022TIP3    H254262   3.543   6.378  10.947 -0.2166  0.3227  0.3433
10023TIP3   OH254263   4.216   3.715  11.311  0.3710 -0.1434  0.1919
10023TIP3    H154264   4.175   3.661  11.244  0.3190 -0.2611  0.3170
10023TIP3    H254265   4.224   3.657  11.387 -2.0881  0.7291  1.2168
10024TIP3   OH254266   1.761   6.437  10.948  0.1642  0.5835 -0.8196
10024TIP3    H154267   1.792   6.380  10.878  0.8174 -0.2375  0.1080
10024TIP3    H254268   1.675   6.402  10.970  0.6625 -0.2393 -0.0884
10025TIP3   OH254269   2.518   2.271   8.883  0.5668 -0.4031  0.4860
10025TIP3    H154270   2.521   2.361   8.916  0.0181  0.9326 -2.7158
10025TIP3    H254271   2.428   2.243   8.899 -0.2003  0.8734 -1.2737
10026TIP3   OH254272   3.621   5.241  11.420  0.1049 -0.6041  0.0572
10026TIP3    H154273   3.667   5.253  11.336 -0.2507  0.7836  0.0401
10026TIP3    H254274   3.550   5.180  11.399  0.1050 -0.3843 -0.6200
10027TIP3   OH254275   1.303   0.164   9.252  0.0787  0.1605  0.2813
10027TIP3    H154276   1.287   0.177   9.158  0.3415  1.3231  0.3850
10027TIP3    H254277   1.260   0.239   9.294 -0.4842 -0.6193  1.1422
10028TIP3   OH254278   3.310   5.993  11.502 -0.0741  0.7217  0.1515
10028TIP3    H154279   3.248   6.028  11.438 -0.9974 -0.9010  0.1276
10028TIP3    H254280   3.318   5.901  11.480  0.1925  0.3003  1.8949
10029TIP3   OH254281   4.639   5.246  12.512  0.0830  0.1457  0.2753
10029TIP3    H154282   4.689   5.188  12.454  0.6145  0.4371  0.4440
10029TIP3    H254283   4.688   5.328  12.512  1.0610 -0.3740  2.4822
10030TIP3   OH254284   2.065   4.071  11.402 -0.1599 -0.1921  0.2722
10030TIP3    H154285   2.055   4.079  11.307 -4.0938 -0.0102  0.5233
10030TIP3    H254286   2.122   4.144  11.427  1.5942 -0.6861 -1.9388
10031TIP3   OH254287   6.153   6.540  11.584 -0.1491 -0.5540  0.1206
10031TIP3    H154288   6.244   6.531  11.554 -1.0074  1.2876 -3.7424
10031TIP3    H254289   6.157   6.607  11.652  1.4220 -0.6955  0.2145
10032TIP3   OH254290   0.082   3.922   9.742  0.2521  0.0692 -0.1513
10032TIP3    H154291   0.110   3.961   9.660 -1.0917  0.6334 -0.3747
10032TIP3    H254292   0.084   3.827   9.726  2.2781  0.0643 -0.0291
10033TIP3   OH254293   2.745   3.599  10.316 -0.0373 -0.2541 -0.1409
10033TIP3    H154294   2.703   3.514  10.327  1.9842 -1.1049  1.8090
10033TIP3    H254295   2.733   3.643  10.400 -1.1933  1.5300 -1.1703
10034TIP3   OH254296   1.517   4.454  11.931  0.0509 -0.0879 -0.0595
10034TIP3    H154297   1.596   4.463  11.984  0.6643  1.7118 -1.1715
10034TIP3    H254298   1.544   4.405  11.854  0.2121  0.8134 -0.5988
10035TIP3   OH254299   0.672   1.643   9.524  0.5333 -0.9280 -0.5281
10035TIP3    H154300   0.696   1.610   9.611 -1.0661  0.1873  0.3986
10035TIP3    H254301   0.596   1.589   9.499 -0.7545  0.5476  0.0479
10036TIP3   OH254302   1.043   1.678   8.546 -1.0470  0.0998 -0.0389
10036TIP3    H154303   1.029   1.585   8.562  0.4783 -0.3048 -0.7962
10036TIP3    H254304   1.102   1.706   8.616  2.1703 -0.6651 -2.1835
10037TIP3   OH254305   1.898   1.189  11.831 -0.2104  0.3364  0.4645
10037TIP3    H154306   1.877   1.102  11.797  0.6436 -0.2734  1.4408
10037TIP3    H254307   1.813   1.225  11.859 -0.7996  0.4767 -1.3558
10038TIP3   OH254308   4.122   0.437   9.049 -0.3791 -0.0458 -0.9362
10038TIP3    H154309   4.145   0.353   9.087  1.1410  0.6216 -0.2608
10038TIP3    H254310   4.207   0.478   9.030 -1.0518  1.8955  0.0394
10039TIP3   OH254311   4.084   2.716  10.140  0.3900  0.5198 -0.0207
10039TIP3    H154312   4.014   2.657  10.114  0.5842 -0.4509  1.4986
10039TIP3    H254313   4.052   2.758  10.220  1.4565  0.1568  0.6320
10040TIP3   OH254314   0.463   2.828   8.686  0.5754  0.6327 -0.0030
10040TIP3    H154315   0.523   2.754   8.674  0.4825  0.3510  1.1636
10040TIP3    H254316   0.521   2.904   8.686  0.8067  0.4607  0.0177
10041TIP3   OH254317   1.970   5.191   8.958 -0.3088 -0.1373 -0.4927
10041TIP3    H154318   2.036   5.124   8.938 -0.1462  0.1948 -1.1258
10041TIP3    H254319   2.007   5.272   8.920 -0.1548  0.4705  0.8878
10042TIP3   OH254320   0.715   4.007   9.412 -0.0755 -0.5053  0.1988
10042TIP3    H154321   0.728   4.047   9.326  0.4652 -1.1716 -0.0467
10042TIP3    H254322   0.804   3.994   9.445 -0.2610 -0.8488  0.5690
10043TIP3   OH254323   5.338   6.270  11.949  0.5458 -1.1325  0.2160
10043TIP3    H154324   5.420   6.260  11.998  1.1347 -0.2703 -0.5716
10043TIP3    H254325   5.314   6.362  11.960 -1.5679 -1.8220  2.3156
10044TIP3   OH254326   2.468   2.414   9.564  0.3603  0.2043  0.1941
10044TIP3    H154327   2.456   2.355   9.638  0.8423  0.7213  0.6993
10044TIP3    H254328   2.498   2.358   9.492  0.8484 -0.1622  0.6769
10045TIP3   OH254329   1.383   2.384   8.584  0.3388  0.3122 -0.1679
10045TIP3    H154330   1.410   2.295   8.608 -0.8263 -0.5539 -1.8277
10045TIP3    H254331   1.348   2.375   8.496 -2.9331  1.7600  0.8124
10046TIP3   OH254332   4.394   5.168   9.933  0.5595 -0.1925  0.3909
10046TIP3    H154333   4.389   5.152   9.839  0.9995  0.0845  0.3166
10046TIP3    H254334   4.356   5.090   9.973 -1.8132  0.6375 -0.0506
10047TIP3   OH254335   2.178   1.591  10.816  0.1347  0.0720  0.2466
10047TIP3    H154336   2.230   1.542  10.753 -1.8818 -0.6679 -0.9671
10047TIP3    H254337   2.184   1.682  10.787  1.3960  0.1337  0.6450
10048TIP3   OH254338   3.458   4.814  11.410 -0.8610  0.0485  0.6920
10048TIP3    H154339   3.386   4.767  11.367 -0.4668 -1.0537  1.2065
10048TIP3    H254340   3.493   4.751  11.473  0.6625  0.5036  0.3386
10049TIP3   OH254341   3.915   2.226   8.751 -0.0314  0.0012  0.4038
10049TIP3    H154342   3.856   2.273   8.810 -0.9069 -0.6524  0.0672
10049TIP3    H254343   3.872   2.143   8.734  0.7507 -0.2867 -0.2572
10050TIP3   OH254344   6.702   4.017   9.448 -0.3379  0.5330 -0.1882
10050TIP3    H154345   6.797   4.028   9.457 -0.0267 -0.7072 -1.6362
10050TIP3    H254346   6.668   4.033   9.537  1.0869  1.9963  0.1521
10051TIP3   OH254347   3.298   1.521   9.337 -0.1766 -0.2444  0.3182
10051TIP3    H154348   3.276   1.515   9.244 -0.6837 -0.2861  0.4357
10051TIP3    H254349   3.294   1.614   9.358  1.7758 -0.0253 -0.1245
10052TIP3   OH254350   2.544   2.968   9.879 -0.3960  0.0359  0.0701
10052TIP3    H154351   2.527   3.009   9.794 -1.3790  0.9976  0.7156
10052TIP3    H254352   2.492   2.887   9.877 -1.7784  0.8812  0.3813
10053TIP3   OH254353   0.959   6.128  11.297  0.1832 -0.4692  0.2000
10053TIP3    H154354   0.885   6.161  11.245  0.3145  1.0421  0.8991
10053TIP3    H254355   1.033   6.182  11.269  0.7694 -1.1984  0.3263
10054TIP3   OH254356   6.443   1.978   8.835 -0.7919 -0.0160 -0.4188
10054TIP3    H154357   6.537   1.968   8.848 -0.4595  0.6283 -2.0930
10054TIP3    H254358   6.406   1.969   8.923  1.0424  2.2870  0.7174
10055TIP3   OH254359   0.106   2.330  11.667 -0.4138  0.1217  0.8075
10055TIP3    H154360   0.185   2.305  11.619  0.2451 -0.9613  2.3616
10055TIP3    H254361   0.136   2.395  11.730 -1.2853  1.5896 -0.2158
10056TIP3   OH254362   1.918   3.847  12.016  0.5249  0.1374 -0.2026
10056TIP3    H154363   1.879   3.813  12.096 -1.7578  1.5960 -0.5704
10056TIP3    H254364   1.998   3.891  12.044  0.4574 -0.5128  1.0704
10057TIP3   OH254365   2.854   2.537   8.808  0.2676  0.1341 -0.4690
10057TIP3    H154366   2.893   2.452   8.786  2.5904  1.6670 -2.8174
10057TIP3    H254367   2.891   2.598   8.744 -1.2425  2.9790  1.1717
10058TIP3   OH254368   2.540   1.409  11.853  0.4424  0.0697  0.0669
10058TIP3    H154369   2.515   1.380  11.941 -2.0738  1.2137 -0.1905
10058TIP3    H254370   2.475   1.369  11.795  2.5816 -1.4194 -1.4764
10059TIP3   OH254371   1.689   2.972  11.722  0.2132  0.1114 -0.5072
10059TIP3    H154372   1.776   2.937  11.742 -0.3533 -0.4652  1.0818
10059TIP3    H254373   1.647   2.981  11.807  0.0549  4.0881 -0.8493
10060TIP3   OH254374   2.743   1.794  11.659  0.1725 -0.2211  0.2464
10060TIP3    H154375   2.757   1.867  11.719 -0.9363 -0.3809  0.7262
10060TIP3    H254376   2.760   1.716  11.712 -0.6202 -0.3575  0.3054
10061TIP3   OH254377   6.727   4.047  11.285 -0.3989  0.0411 -0.9893
10061TIP3    H154378   6.774   4.110  11.230  1.9878  0.5541  1.4381
10061TIP3    H254379   6.647   4.093  11.310  0.1146  1.1440 -1.2777
10062TIP3   OH254380   3.123   1.724  11.154  0.0220  0.2419 -0.3560
10062TIP3    H154381   3.201   1.780  11.159  0.8380 -0.9525  1.2701
10062TIP3    H254382   3.158   1.635  11.155 -1.3684 -0.3207  0.6550
10063TIP3   OH254383   0.721   1.079  10.378 -0.5249 -0.2195 -0.6818
10063TIP3    H154384   0.695   0.989  10.401  0.1684 -0.9598 -2.6474
10063TIP3    H254385   0.660   1.105  10.310  0.0565  0.3379 -0.9986
10064TIP3   OH254386   2.552   1.564  10.468  0.1387  0.4411  0.4704
10064TIP3    H154387   2.625   1.515  10.430 -0.2168 -0.5487  1.0272
10064TIP3    H254388   2.588   1.599  10.550  0.1935  0.5503  0.4003
10065TIP3   OH254389   5.402   2.035  11.001  0.4925 -0.0190 -0.1856
10065TIP3    H154390   5.405   2.010  11.093  0.2953  0.6505  0.0115
10065TIP3    H254391   5.436   2.125  11.000  0.0631  0.1434 -0.6962
10066TIP3   OH254392   0.325   5.987  11.463  0.3122  0.2159 -0.1224
10066TIP3    H154393   0.298   5.947  11.380  0.0231  1.7172 -0.7828
10066TIP3    H254394   0.286   5.931  11.530 -1.1512  0.1183 -1.0153
10067TIP3   OH254395   1.808   1.991  10.564 -0.2583 -0.6290 -0.3739
10067TIP3    H154396   1.732   2.009  10.620 -0.0045  3.0977 -0.9364
10067TIP3    H254397   1.770   1.979  10.476 -0.3170  0.5139 -0.5271
10068TIP3   OH254398   0.450   3.390   8.995 -0.2305  0.1349 -0.0576
10068TIP3    H154399   0.451   3.337   9.074  0.2704  1.3086  0.7465
10068TIP3    H254400   0.491   3.335   8.928 -0.1360 -0.6559  0.6423
10069TIP3   OH254401   0.546   3.223  10.869  0.1306 -0.5507 -0.2056
10069TIP3    H154402   0.575   3.301  10.917 -0.0320 -1.3099  1.2065
10069TIP3    H254403   0.540   3.251  10.778 -0.7152  1.3155  0.3700
10070TIP3   OH254404   2.941   2.449   9.709 -0.3742  0.0520  0.5560
10070TIP3    H154405   3.003   2.462   9.637 -0.0602 -0.0868  0.7991
10070TIP3    H254406   2.994   2.456   9.788 -0.2701 -2.0851  0.7371
10071TIP3   OH254407   2.414   3.022  11.359  0.4512 -0.2334 -0.2780
10071TIP3    H154408   2.383   3.104  11.319  0.2612 -0.1671  0.0052
10071TIP3    H254409   2.471   2.984  11.292  0.1043 -0.1437 -0.6322
10072TIP3   OH254410   2.923   3.868  11.628  0.6524 -0.3010  0.5362
10072TIP3    H154411   2.893   3.818  11.552  0.9575 -0.8583  0.7735
10072TIP3    H254412   2.915   3.806  11.701  0.2583  0.2645  0.9797
10073TIP3   OH254413   0.937   2.444   9.889 -0.2000  0.2766  0.2565
10073TIP3    H154414   0.899   2.427   9.803 -0.9472  0.2153  0.5920
10073TIP3    H254415   0.909   2.370   9.943 -1.4725  1.3155  1.0955
10074TIP3   OH254416   5.211   2.499   9.355  0.1441  0.0713  0.0450
10074TIP3    H154417   5.249   2.583   9.329  0.6082  0.3155  1.4471
10074TIP3    H254418   5.258   2.434   9.303  1.5613  0.4812  0.7628
10075TIP3   OH254419   3.534   3.588   9.396 -0.0385 -0.3921  0.2311
10075TIP3    H154420   3.518   3.682   9.401  0.6758 -0.3134  1.4833
10075TIP3    H254421   3.449   3.550   9.374 -0.0193  0.6407 -1.9338
10076TIP3   OH254422   4.220   4.030   8.952  0.5226 -0.0661  0.1959
10076TIP3    H154423   4.157   4.009   9.020  0.9225 -0.8357  0.3450
10076TIP3    H254424   4.209   4.123   8.936 -0.7098 -0.2052  0.1517
10077TIP3   OH254425   4.977   5.354  12.444 -0.4408  0.0603  0.2501
10077TIP3    H154426   4.957   5.264  12.419  0.1752 -0.0988  0.3225
10077TIP3    H254427   5.020   5.392  12.367 -1.8005  0.6796 -0.2414
10078TIP3   OH254428   2.961   0.553  10.933  0.1009 -1.1389  0.0135
10078TIP3    H154429   3.004   0.503  11.003  0.7623 -1.6941 -0.7780
10078TIP3    H254430   2.989   0.510  10.852 -1.3218 -1.0180 -0.5686
10079TIP3   OH254431   3.939   5.328  11.449  0.2898 -0.3673 -0.3163
10079TIP3    H154432   4.021   5.337  11.400  1.1731  0.3634  1.2320
10079TIP3    H254433   3.966   5.298  11.536 -0.9115  1.2688  0.6778
10080TIP3   OH254434   4.891   0.309   9.357 -0.2759 -0.1393  0.6959
10080TIP3    H154435   4.923   0.323   9.446  0.8126 -0.7929  0.4211
10080TIP3    H254436   4.948   0.241   9.321 -0.5938  0.2330 -0.5653
10081TIP3   OH254437   3.859   6.038   9.523  0.4704  0.3889 -0.1000
10081TIP3    H154438   3.835   6.123   9.486  1.9087  0.6437 -0.5067
10081TIP3    H254439   3.949   6.050   9.555  1.1424 -1.2892 -1.2350
10082TIP3   OH254440   1.512   3.852  10.514  0.3092  0.6081 -0.0993
10082TIP3    H154441   1.433   3.868  10.463  2.3220  2.0117 -3.0226
10082TIP3    H254442   1.483   3.855  10.605 -2.9992  0.8312 -1.0465
10083TIP3   OH254443   5.237   2.301   9.557 -0.3458 -0.3241 -0.0626
10083TIP3    H154444   5.237   2.379   9.501 -1.0006  0.1886  0.6304
10083TIP3    H254445   5.147   2.294   9.588 -0.0776 -0.8079  0.6360
10084TIP3   OH254446   0.126   3.232   8.633  0.5197 -0.2326 -0.2583
10084TIP3    H154447   0.220   3.223   8.647  0.2631  0.3665  2.2611
10084TIP3    H254448   0.100   3.307   8.686 -1.4897 -0.8073 -0.3108
10085TIP3   OH254449   4.995   6.028   9.348  0.1658 -0.1924 -0.0267
10085TIP3    H154450   4.933   5.981   9.292 -1.4646  3.1814 -1.3272
10085TIP3    H254451   4.939   6.082   9.404  1.9357  0.6806  0.9475
10086TIP3   OH254452   3.517   6.737  10.452 -0.5482 -0.4738 -0.5513
10086TIP3    H154453   3.442   6.743  10.511 -0.6585 -1.4779 -0.5669
10086TIP3    H254454   3.491   6.786  10.374 -0.6014  0.4254  0.0204
10087TIP3   OH254455   5.134   3.754   9.644  0.4468  0.1465 -0.1832
10087TIP3    H154456   5.181   3.706   9.713  1.5127  1.1533 -0.1809
10087TIP3    H254457   5.101   3.685   9.586  2.8115 -0.6114 -0.7382
10088TIP3   OH254458   2.763   6.374  10.399  0.0138  0.3425  0.6701
10088TIP3    H154459   2.841   6.423  10.375 -0.3698  0.0534 -1.3435
10088TIP3    H254460   2.697   6.400  10.335 -0.2185 -2.6964 -0.5098
10089TIP3   OH254461   4.423   1.713   9.429 -0.4409 -0.0164 -0.4768
10089TIP3    H154462   4.451   1.629   9.393 -0.0399 -0.0592 -0.0817
10089TIP3    H254463   4.328   1.711   9.424 -0.4943 -0.9761  0.5783
10090TIP3   OH254464   5.410   1.559  10.432 -0.6229  0.1659 -0.0963
10090TIP3    H154465   5.501   1.530  10.430 -1.4747 -2.7647 -0.2313
10090TIP3    H254466   5.392   1.584  10.341 -0.1168  0.2698 -0.1752
10091TIP3   OH254467   6.231   1.825  10.708  0.2608 -0.6041 -0.3266
10091TIP3    H154468   6.239   1.862  10.621 -0.7910 -2.8881 -1.4822
10091TIP3    H254469   6.321   1.823  10.742  0.7071  0.1415 -1.4273
10092TIP3   OH254470   1.852   1.818  10.248  0.3354 -0.2982 -0.2747
10092TIP3    H154471   1.859   1.812  10.152  2.5029  1.9256 -0.3425
10092TIP3    H254472   1.763   1.851  10.263  0.4065  0.6133 -1.6409
10093TIP3   OH254473   3.124   1.447  11.990 -0.4848 -0.1708  0.3050
10093TIP3    H154474   3.178   1.433  12.068  0.5991 -0.1704 -0.4130
10093TIP3    H254475   3.181   1.420  11.918 -1.0619  0.9045 -0.5673
10094TIP3   OH254476   0.729   2.473  10.307  0.3250  0.4136  0.0921
10094TIP3    H154477   0.754   2.524  10.230 -0.4432  0.9107  0.1549
10094TIP3    H254478   0.635   2.459  10.297 -0.0301  1.5112  1.5085
10095TIP3   OH254479   5.868   4.005  10.647  0.4252 -0.5283 -0.7387
10095TIP3    H154480   5.883   3.918  10.611  0.8295 -0.9914  0.4941
10095TIP3    H254481   5.849   4.060  10.571 -1.5873 -2.0315 -1.4127
10096TIP3   OH254482   3.684   2.939  11.099 -0.5029  0.2900  0.9358
10096TIP3    H154483   3.747   2.899  11.159 -1.9517 -0.9337  1.7296
10096TIP3    H254484   3.598   2.915  11.135 -1.4259  0.7462 -0.8312
10097TIP3   OH254485   6.173   4.233   8.732 -0.2278  0.0985 -0.0263
10097TIP3    H154486   6.252   4.284   8.750  0.0170 -0.1102 -0.5022
10097TIP3    H254487   6.201   4.164   8.673 -0.6576 -0.3070  0.2302
10098TIP3   OH254488   5.986   3.177  11.693  0.1950  0.3615  0.2595
10098TIP3    H154489   6.067   3.127  11.707  0.8576  0.4481 -2.6772
10098TIP3    H254490   6.016   3.261  11.657 -1.1764  0.8955  0.3156
10099TIP3   OH254491   3.120   6.056  11.228 -0.8064  0.4937 -0.1662
10099TIP3    H154492   3.048   6.017  11.276  1.0888 -0.9039  1.7398
10099TIP3    H254493   3.128   6.145  11.263 -0.9448  0.2921  0.3805
10100TIP3   OH254494   5.846   4.922   9.889  0.4486 -0.1442  0.2619
10100TIP3    H154495   5.826   4.860   9.819  2.3740 -1.2979  0.6534
10100TIP3    H254496   5.761   4.958   9.915 -0.3916 -0.2975 -2.0773
10101TIP3   OH254497   0.490   0.310   9.909  0.4047 -0.1954 -0.0923
10101TIP3    H154498   0.468   0.273   9.825  0.0271 -0.4121  0.1027
10101TIP3    H254499   0.498   0.235   9.968 -1.5580  0.0662  0.5899
10102TIP3   OH254500   2.934   3.683  10.544 -0.2810 -0.5027 -0.3887
10102TIP3    H154501   3.006   3.637  10.587 -1.0461 -0.2714  1.2054
10102TIP3    H254502   2.861   3.621  10.548  0.0247 -1.1421 -2.8972
10103TIP3   OH254503   4.108   4.986   9.720 -0.0266  1.1465 -0.3019
10103TIP3    H154504   4.109   4.898   9.680  0.7583 -0.0045  2.0701
10103TIP3    H254505   4.040   4.980   9.787  1.6698  1.5142  1.5250
10104TIP3   OH254506   4.457   3.849   9.081 -0.1962  0.2713 -0.1584
10104TIP3    H154507   4.395   3.776   9.080 -0.4284  0.4557  0.3623
10104TIP3    H254508   4.412   3.919   9.128  0.5982  0.2292  0.6958
10105TIP3   OH254509   0.988   1.671   9.700 -0.5971 -0.3146 -0.4271
10105TIP3    H154510   0.941   1.754   9.702 -1.0828 -0.5637 -1.3134
10105TIP3    H254511   0.968   1.633   9.615  1.2666 -0.3965 -0.8763
10106TIP3   OH254512   3.142   3.388   9.005 -0.0081  0.0366 -0.2888
10106TIP3    H154513   3.125   3.295   8.997 -1.5095  0.4391 -2.6890
10106TIP3    H254514   3.201   3.409   8.933 -0.2367  1.0738 -0.1973
10107TIP3   OH254515   6.470   0.907   9.842  0.0690  0.3172 -0.5322
10107TIP3    H154516   6.381   0.897   9.874  0.5503 -1.1534  0.5004
10107TIP3    H254517   6.512   0.823   9.863  1.9928  1.3626 -0.0041
10108TIP3   OH254518   3.317   0.591  10.152  0.4296 -0.3047 -0.3662
10108TIP3    H154519   3.339   0.541  10.074  3.5281 -0.6072  0.5605
10108TIP3    H254520   3.332   0.683  10.127  0.2140 -0.2974 -0.4702
10109TIP3   OH254521   0.122   4.303  10.862  0.3178  0.0387 -0.4283
10109TIP3    H154522   0.212   4.289  10.833  0.9152  0.2434  1.2198
10109TIP3    H254523   0.087   4.369  10.801  1.8480  1.2218 -0.0949
10110TIP3   OH254524   6.227   3.307  11.265 -0.5618  0.8409 -0.3442
10110TIP3    H154525   6.162   3.371  11.237 -0.0076  2.1754  1.2340
10110TIP3    H254526   6.263   3.344  11.346  0.0124 -1.3264  0.4586
10111TIP3   OH254527   5.657   6.001  10.701  0.2241 -0.1587 -0.5088
10111TIP3    H154528   5.654   5.944  10.778 -1.7438  0.6564  0.0961
10111TIP3    H254529   5.578   6.055  10.709  0.9320  1.1933 -2.1625
10112TIP3   OH254530   4.704   5.057   9.595 -0.3549  0.6398  0.0203
10112TIP3    H154531   4.669   5.008   9.670  0.0928  1.3612  0.7075
10112TIP3    H254532   4.767   4.997   9.555 -1.3025 -0.1190 -0.3721
10113TIP3   OH254533   5.597   6.604   9.343  0.0259 -0.2134 -0.7677
10113TIP3    H154534   5.661   6.672   9.364 -0.5435 -0.5344  2.3729
10113TIP3    H254535   5.647   6.540   9.290  2.0531  0.0192  0.7372
10114TIP3   OH254536   3.375   4.206  10.874  0.6584  0.5018 -0.2287
10114TIP3    H154537   3.279   4.199  10.869  0.6143 -0.1601  1.2026
10114TIP3    H254538   3.403   4.210  10.783 -0.6502 -0.5367 -0.7120
10115TIP3   OH254539   4.780   5.257   9.297  0.2107 -0.4666  0.2103
10115TIP3    H154540   4.830   5.186   9.337  0.2294 -0.4297  0.2533
10115TIP3    H254541   4.696   5.255   9.342  0.6351  0.3126  1.0772
10116TIP3   OH254542   6.555   1.736  10.361  0.3038  0.4572 -0.0759
10116TIP3    H154543   6.564   1.830  10.376  3.5250  0.2094  0.3168
10116TIP3    H254544   6.563   1.726  10.266  0.3258  0.5730 -0.0860
10117TIP3   OH254545   2.916   0.406  10.440  0.2981  0.1852 -0.0931
10117TIP3    H154546   2.993   0.462  10.435  0.1559  0.2990 -1.7676
10117TIP3    H254547   2.923   0.349  10.363  0.8278 -2.6659  1.9274
10118TIP3   OH254548   6.411   6.735  11.544  0.4540 -0.8316 -0.1137
10118TIP3    H154549   6.422   6.650  11.501  2.1305 -0.4463 -0.5177
10118TIP3    H254550   6.479   6.790  11.506 -0.0970  0.4687  0.7270
10119TIP3   OH254551   1.202   5.442  11.276 -0.0368  0.0176  0.0383
10119TIP3    H154552   1.170   5.451  11.186 -0.6015 -2.5126 -0.0873
10119TIP3    H254553   1.264   5.370  11.272 -1.7370 -1.7044  2.0064
10120TIP3   OH254554   4.382   0.300   9.648  0.0931 -1.0931  0.0040
10120TIP3    H154555   4.326   0.234   9.690  1.0580 -0.6347  2.1323
10120TIP3    H254556   4.455   0.312   9.708  0.1706  1.6287 -0.4967
10121TIP3   OH254557   5.055   3.595  10.452  0.0072 -0.0249 -0.0827
10121TIP3    H154558   5.072   3.533  10.381  0.6106  0.8877 -0.7574
10121TIP3    H254559   5.127   3.658  10.447  0.3200 -0.1947  1.6444
10122TIP3   OH254560   0.272   6.293   8.968  0.2418 -0.0099  0.3798
10122TIP3    H154561   0.287   6.222   8.907  0.5253  0.1119  0.3073
10122TIP3    H254562   0.251   6.369   8.913 -0.8988 -0.2296  0.4813
10123TIP3   OH254563   1.185   5.727   8.934  0.1968  0.0373 -0.0379
10123TIP3    H154564   1.191   5.682   9.018  0.9837 -0.6024 -0.4191
10123TIP3    H254565   1.216   5.662   8.870 -0.2715  0.5492 -0.8079
10124TIP3   OH254566   3.511   5.900  10.731  0.4232 -0.6884  0.2489
10124TIP3    H154567   3.509   5.938  10.819 -0.2494  0.8847 -0.4050
10124TIP3    H254568   3.604   5.890  10.711  0.5865 -0.8565  1.0508
10125TIP3   OH254569   5.236   2.154  10.267 -0.0547  0.0068 -0.0302
10125TIP3    H154570   5.270   2.218  10.204  3.5438 -2.4751 -0.9375
10125TIP3    H254571   5.159   2.116  10.224  1.1599 -0.2311 -2.1360
10126TIP3   OH254572   5.251   1.403   9.481  0.5972  0.4864  0.1999
10126TIP3    H154573   5.276   1.314   9.456  1.0568  0.2905  1.3056
10126TIP3    H254574   5.275   1.456   9.405  1.2350 -0.1917 -0.0921
10127TIP3   OH254575   3.171   0.307   9.039 -0.3993  0.4971  0.1266
10127TIP3    H154576   3.240   0.242   9.048 -1.1287 -0.4382 -0.8573
10127TIP3    H254577   3.206   0.385   9.083  2.5240  1.0425 -2.8287
10128TIP3   OH254578   4.036   1.654   9.210 -0.0262 -0.5420 -0.5398
10128TIP3    H154579   4.108   1.715   9.227  0.3286 -0.9047 -0.7218
10128TIP3    H254580   3.983   1.656   9.290 -0.5778  0.7458 -0.9064
10129TIP3   OH254581   6.756   4.288   9.925  0.1548  0.2246  0.0483
10129TIP3    H154582   6.760   4.206   9.975  1.3809 -0.1586 -0.6511
10129TIP3    H254583   6.682   4.336   9.964 -0.4180 -1.0883  0.6342
10130TIP3   OH254584   0.872   1.075  10.646  0.3492  0.3628  0.0506
10130TIP3    H154585   0.799   1.119  10.601 -0.5436  0.2647  1.3299
10130TIP3    H254586   0.929   1.045  10.576 -1.7037 -1.0717 -1.1309
10131TIP3   OH254587   0.709   2.650   9.537  0.3591 -0.0815  0.1144
10131TIP3    H154588   0.681   2.708   9.466  0.2718 -1.0550 -0.6841
10131TIP3    H254589   0.681   2.694   9.617 -1.8984 -0.1581 -0.5618
10132TIP3   OH254590   5.483   3.918   9.390  0.4649  0.0246 -0.5871
10132TIP3    H154591   5.561   3.974   9.393 -0.1516  1.3200 -4.0476
10132TIP3    H254592   5.420   3.960   9.448  0.6943  1.8713 -1.6218
10133TIP3   OH254593   1.726   1.868   9.490 -0.4073  0.1591 -0.4521
10133TIP3    H154594   1.648   1.890   9.541 -0.0864 -0.8618  0.5038
10133TIP3    H254595   1.708   1.782   9.454  0.5157 -0.3725  0.3060
10134TIP3   OH254596   5.145   3.024  12.049 -0.2706 -0.4636 -0.6829
10134TIP3    H154597   5.137   2.931  12.029 -0.6806 -0.3002 -1.3017
10134TIP3    H254598   5.139   3.068  11.964 -1.4790  0.2074 -0.2822
10135TIP3   OH254599   1.310   1.857   9.617  0.5060 -0.2377 -0.1487
10135TIP3    H154600   1.346   1.930   9.567  0.9212  0.8722  1.7098
10135TIP3    H254601   1.293   1.790   9.551  0.0532  1.5231 -1.9402
10136TIP3   OH254602   1.085   4.510  10.808 -0.1398 -0.4571 -0.6584
10136TIP3    H154603   0.995   4.495  10.836  0.3050 -0.7378  0.6827
10136TIP3    H254604   1.114   4.585  10.859  0.5278 -0.6380 -0.7594
10137TIP3   OH254605   4.685   6.187  11.469 -0.0033  0.3844 -0.3068
10137TIP3    H154606   4.674   6.203  11.563 -1.9216 -2.5639  0.0867
10137TIP3    H254607   4.766   6.136  11.464 -0.0614  0.2825 -0.2187
10138TIP3   OH254608   3.135   2.098  10.373  0.3018  0.1600  0.1674
10138TIP3    H154609   3.156   2.119  10.464  1.6239 -1.4632  0.2702
10138TIP3    H254610   3.046   2.131  10.362  0.6712  1.8159  1.5540
10139TIP3   OH254611   2.616   2.749   9.117 -0.1294 -0.2099  0.5380
10139TIP3    H154612   2.710   2.746   9.098 -0.0698  0.5271  0.6673
10139TIP3    H254613   2.610   2.799   9.199 -0.4367 -2.6987  2.1556
10140TIP3   OH254614   4.291   5.991   9.763  0.8131  0.5824  0.6527
10140TIP3    H154615   4.379   5.961   9.738  0.4405 -2.1031  2.2431
10140TIP3    H254616   4.304   6.032   9.849  0.4892 -0.1904  1.0809
10141TIP3   OH254617   4.590   5.433  11.691 -0.5097 -0.5149  0.0894
10141TIP3    H154618   4.665   5.401  11.642 -0.3714 -0.6576  0.3958
10141TIP3    H254619   4.593   5.387  11.775 -2.7457 -2.9668 -1.0370
10142TIP3   OH254620   5.938   4.042   9.092 -0.6573  0.3261 -0.0115
10142TIP3    H154621   5.949   4.034   9.187 -0.9135  1.5260  0.1497
10142TIP3    H254622   5.871   3.977   9.070  1.2010 -1.7338  0.1923
10143TIP3   OH254623   2.078   4.035  12.489 -0.2098 -0.2598  0.2006
10143TIP3    H154624   1.993   4.064  12.522 -1.5875 -2.9115 -0.6962
10143TIP3    H254625   2.118   3.988  12.562 -0.4875 -0.8459 -0.0214
10144TIP3   OH254626   6.553   6.460  10.023  0.1949  0.0511  0.0738
10144TIP3    H154627   6.521   6.449  10.112 -1.3011  1.2819 -0.2656
10144TIP3    H254628   6.495   6.405   9.969 -2.9119  3.7155 -0.7796
10145TIP3   OH254629   1.269   0.002  10.761  0.1178 -0.0682  0.1659
10145TIP3    H154630   1.313   0.031  10.681  1.2239 -3.1579 -0.4894
10145TIP3    H254631   1.176   0.015  10.744  0.3820 -0.0154 -1.3538
10146TIP3   OH254632   1.926   5.815   9.997 -0.0158 -0.0569  0.1066
10146TIP3    H154633   1.950   5.735  10.045 -0.2987  0.6545  1.4873
10146TIP3    H254634   1.834   5.801   9.973 -0.8002  0.7320  2.3515
10147TIP3   OH254635   2.511   3.022   9.608  0.3937 -0.2930  0.4753
10147TIP3    H154636   2.422   3.015   9.572  0.0373 -2.1053  1.5294
10147TIP3    H254637   2.566   2.975   9.546  0.4146 -0.1518  0.3885
10148TIP3   OH254638   6.658   4.460  10.133 -0.3792  0.0321  0.0164
10148TIP3    H154639   6.734   4.510  10.163 -0.0111  0.7518 -1.9979
10148TIP3    H254640   6.652   4.386  10.194 -0.0998  1.7465  2.2252
10149TIP3   OH254641   3.123   5.174   9.602 -0.4221 -0.3452 -0.5259
10149TIP3    H154642   3.178   5.218   9.667 -1.1153 -1.6798  1.0245
10149TIP3    H254643   3.033   5.197   9.627 -0.6982 -0.8754 -1.0000
10150TIP3   OH254644   0.963   0.455   8.427  0.5664 -0.1659 -0.0461
10150TIP3    H154645   0.938   0.363   8.434 -0.2307  0.0073 -0.4588
10150TIP3    H254646   1.008   0.474   8.509  0.3603 -0.8087  0.2243
10151TIP3   OH254647   1.778   0.368  11.608 -0.1302 -0.1033  0.3403
10151TIP3    H154648   1.726   0.442  11.639 -0.9104  0.4005 -1.9537
10151TIP3    H254649   1.810   0.395  11.522  0.4579 -2.0026 -0.0958
10152TIP3   OH254650   6.684   3.120   9.900  0.0652 -0.2218 -0.1876
10152TIP3    H154651   6.671   3.213   9.918 -0.0812 -0.1959 -0.4281
10152TIP3    H254652   6.707   3.083   9.985  0.4887  0.0967 -0.1576
10153TIP3   OH254653   1.802   0.643   9.956  0.0284  0.4644  0.8592
10153TIP3    H154654   1.782   0.555   9.923 -0.2937  0.5613  0.7878
10153TIP3    H254655   1.802   0.699   9.879 -2.5480  1.0171  1.1708
10154TIP3   OH254656   0.878   0.533   9.847 -0.1807 -0.5037 -0.5964
10154TIP3    H154657   0.822   0.514   9.771 -1.3458 -3.5080  0.8671
10154TIP3    H254658   0.932   0.454   9.857  0.5021  0.1487  1.2416
10155TIP3   OH254659   5.077   3.884   9.320 -0.2760 -0.3271  0.2578
10155TIP3    H154660   5.077   3.810   9.381  0.9909 -1.3437 -0.9056
10155TIP3    H254661   5.134   3.949   9.362  1.7520 -1.5776 -0.4075
10156TIP3   OH254662   6.733   3.872   8.705 -0.0108  0.0518 -0.6677
10156TIP3    H154663   6.703   3.874   8.796  0.5673  0.5122 -0.4763
10156TIP3    H254664   6.683   3.941   8.662 -1.6131 -1.3610 -1.1496
10157TIP3   OH254665   5.347   4.395  10.749 -0.5662 -0.4684  0.5344
10157TIP3    H154666   5.401   4.359  10.678  0.0508 -0.0754  0.7912
10157TIP3    H254667   5.307   4.318  10.789 -0.9926 -0.6868 -0.2917
10158TIP3   OH254668   3.730   4.168  12.216 -0.9087  0.1102  0.3978
10158TIP3    H154669   3.638   4.194  12.209 -1.0640 -0.4839  0.1720
10158TIP3    H254670   3.743   4.150  12.309 -0.6281  1.5835  0.6643
10159TIP3   OH254671   5.341   0.432  11.023  0.0773 -0.3749 -0.5704
10159TIP3    H154672   5.385   0.440  10.939  0.0790  2.2353 -0.4204
10159TIP3    H254673   5.412   0.427  11.087  0.2123  1.4795 -0.5062
10160TIP3   OH254674   6.557   2.291  11.361 -0.0261  0.2098 -0.0445
10160TIP3    H154675   6.525   2.244  11.438 -0.1807  0.3642 -0.0139
10160TIP3    H254676   6.477   2.316  11.314  0.0242  1.1069  0.3367
10161TIP3   OH254677   4.092   5.672   9.274  0.3755 -0.0454 -0.3120
10161TIP3    H154678   4.062   5.600   9.330  0.2384  0.4337  0.2382
10161TIP3    H254679   4.027   5.677   9.204 -0.5554  0.6524  0.5915
10162TIP3   OH254680   1.232   6.637  10.082 -0.2660 -0.0615  0.9004
10162TIP3    H154681   1.195   6.706  10.138 -2.0682  0.8393 -1.2860
10162TIP3    H254682   1.306   6.679  10.039 -2.3454  1.1815 -1.6934
10163TIP3   OH254683   2.605   1.442   8.668 -0.2203 -0.0572  0.2666
10163TIP3    H154684   2.604   1.537   8.661 -0.3198  0.3286  3.8547
10163TIP3    H254685   2.698   1.418   8.662 -0.2099  0.2064 -0.8243
10164TIP3   OH254686   2.604   2.498  12.007  0.1671 -0.2977 -0.0280
10164TIP3    H154687   2.662   2.441  11.958 -0.9785 -0.6384 -1.0404
10164TIP3    H254688   2.556   2.439  12.065 -1.3146 -0.4830 -1.3702
10165TIP3   OH254689   1.633   2.435   9.036  0.7836  0.2061 -0.0702
10165TIP3    H154690   1.688   2.357   9.041 -0.2727 -0.5682 -0.2204
10165TIP3    H254691   1.695   2.506   9.018  1.5007 -0.9893 -2.8453
10166TIP3   OH254692   4.436   6.503  10.950  0.0713  0.2158  0.0344
10166TIP3    H154693   4.353   6.543  10.924 -0.1787 -0.3495 -0.0360
10166TIP3    H254694   4.419   6.468  11.037 -0.4675 -1.9293 -0.8890
10167TIP3   OH254695   6.237   1.991  10.104 -0.0103 -0.2579 -0.8748
10167TIP3    H154696   6.200   2.079  10.100 -2.6776 -1.1884  0.5278
10167TIP3    H254697   6.328   2.004  10.131 -0.8893  2.0014  1.3993
10168TIP3   OH254698   2.290   3.531   8.647 -0.1202 -0.4654 -0.4171
10168TIP3    H154699   2.289   3.564   8.557 -0.7497  0.1976 -0.1795
10168TIP3    H254700   2.340   3.449   8.642 -0.7958 -0.8342 -1.4979
10169TIP3   OH254701   1.592   6.789   8.217  0.1609 -0.0406  0.4029
10169TIP3    H154702   1.677   6.817   8.250 -0.9567  0.7126  2.9081
10169TIP3    H254703   1.585   6.697   8.244 -0.0852  0.1076  0.8658
10170TIP3   OH254704   4.785   4.470  10.560 -0.5360 -0.1209  0.2499
10170TIP3    H154705   4.850   4.503  10.498 -1.7592 -0.8332 -1.5103
10170TIP3    H254706   4.798   4.375  10.559 -1.3532 -0.2337  0.1551
10171TIP3   OH254707   0.223   4.482   9.326 -0.0373  0.5451  0.3524
10171TIP3    H154708   0.251   4.569   9.355 -0.4587  1.0502 -0.7194
10171TIP3    H254709   0.224   4.486   9.231 -1.3368 -0.1968  0.2762
10172TIP3   OH254710   3.679   6.237   9.895  0.5458  0.0758  0.3349
10172TIP3    H154711   3.604   6.182   9.874 -1.0791  2.5743 -0.9130
10172TIP3    H254712   3.658   6.275   9.981  0.6014  0.4077  0.2051
10173TIP3   OH254713   5.402   6.469   9.493  0.0817 -0.3255 -0.4061
10173TIP3    H154714   5.452   6.391   9.519  1.2979  0.0366 -1.5347
10173TIP3    H254715   5.462   6.518   9.437 -0.2812  1.9539  1.0742
10174TIP3   OH254716   3.232   5.061  11.677  0.3823 -0.0264 -0.0474
10174TIP3    H154717   3.231   5.057  11.773 -1.5715 -0.2021 -0.0498
10174TIP3    H254718   3.277   4.981  11.650  1.2742  0.1996  0.7126
10175TIP3   OH254719   6.248   1.993  10.483 -0.0287 -0.0564 -0.4529
10175TIP3    H154720   6.185   1.940  10.434 -1.3298 -1.6122  2.6099
10175TIP3    H254721   6.195   2.041  10.546  1.7259 -0.3195  1.3028
10176TIP3   OH254722   6.482   4.905  10.576  0.1429  0.4746  0.1501
10176TIP3    H154723   6.484   4.825  10.628 -1.3057  0.0171 -0.4422
10176TIP3    H254724   6.488   4.876  10.485  1.8699  1.2156 -0.0103
10177TIP3   OH254725   6.733   2.089   8.903  0.0082  0.4209  0.4577
10177TIP3    H154726   6.811   2.119   8.857 -0.3118  1.6660  0.6969
10177TIP3    H254727   6.760   2.006   8.944  0.2512 -0.8497 -2.0761
10178TIP3   OH254728   4.342   4.268   9.205 -0.1329  0.1595  0.4353
10178TIP3    H154729   4.356   4.173   9.205 -2.4414 -0.2521  1.0169
10178TIP3    H254730   4.398   4.301   9.275  1.2068 -0.6588 -0.2171
10179TIP3   OH254731   2.095   1.318  10.417 -0.1676  0.2405 -0.1648
10179TIP3    H154732   2.077   1.246  10.356 -1.5441 -0.9577  1.5756
10179TIP3    H254733   2.054   1.394  10.377 -0.3958 -0.3544 -1.0925
10180TIP3   OH254734   3.790   2.915   8.626  0.2199 -0.3818  0.3021
10180TIP3    H154735   3.875   2.960   8.627  0.0221  0.0693 -0.9806
10180TIP3    H254736   3.808   2.829   8.588  0.0526 -0.1179 -0.4056
10181TIP3   OH254737   6.211   0.115  11.657  0.1677 -0.0946 -0.4193
10181TIP3    H154738   6.204   0.046  11.723  0.6742  0.5785  0.3571
10181TIP3    H254739   6.296   0.101  11.616  1.3027  1.3428  1.2687
10182TIP3   OH254740   3.088   1.370   9.956  0.0733 -0.0524 -0.4612
10182TIP3    H154741   3.045   1.312   9.894  1.2897 -0.5988 -0.8220
10182TIP3    H254742   3.152   1.315  10.000  0.4854  0.7593 -0.0196
10183TIP3   OH254743   6.300   0.022   9.780  0.1920  0.5172 -0.2223
10183TIP3    H154744   6.372  -0.035   9.808 -1.0225 -0.7062  0.5433
10183TIP3    H254745   6.252   0.041   9.860 -1.0920  0.2339 -0.9053
10184TIP3   OH254746   5.354   3.896  10.889  0.3850  0.1187 -0.1986
10184TIP3    H154747   5.339   3.923  10.979 -0.8725  0.0902 -0.3733
10184TIP3    H254748   5.439   3.854  10.889  0.9672  1.2432  0.7207
10185TIP3   OH254749   2.274   0.246  10.346 -0.5961 -0.4221 -0.0213
10185TIP3    H154750   2.332   0.318  10.371  0.2323 -0.9292 -0.4235
10185TIP3    H254751   2.252   0.263  10.255  0.4238 -1.1950 -0.4296
10186TIP3   OH254752   2.255   6.047   8.658 -1.0325  0.3432 -0.7562
10186TIP3    H154753   2.317   6.117   8.681 -1.3730  0.8198 -1.2451
10186TIP3    H254754   2.253   5.991   8.735  0.1828  0.1868 -0.8150
10187TIP3   OH254755   0.118   4.987  10.563  0.2447  0.0053  0.0010
10187TIP3    H154756   0.055   5.001  10.492 -0.7644 -1.1544  0.6317
10187TIP3    H254757   0.119   4.892  10.575  1.8257  0.0441  0.2824
10188TIP3   OH254758   3.213   1.619   9.805 -0.2369  0.0152  0.3046
10188TIP3    H154759   3.306   1.606   9.825 -0.4798 -1.4850  0.6028
10188TIP3    H254760   3.171   1.539   9.835 -1.3492 -0.1640 -1.5727
10189TIP3   OH254761   2.394   6.056   8.977 -0.7763  0.1098 -0.2799
10189TIP3    H154762   2.364   6.045   9.067  1.8502 -1.0124  0.5876
10189TIP3    H254763   2.467   6.118   8.983  0.0995 -0.7429 -1.4381
10190TIP3   OH254764   3.377   2.709  11.963  0.2042  0.4423  0.0897
10190TIP3    H154765   3.442   2.705  11.894  3.3377  3.1508  2.5605
10190TIP3    H254766   3.386   2.627  12.010  0.6002  0.0785 -0.6108
10191TIP3   OH254767   0.611   4.863  10.555  0.3278 -0.0919 -0.5400
10191TIP3    H154768   0.664   4.943  10.564 -0.7070  0.5756 -0.1820
10191TIP3    H254769   0.669   4.801  10.512  1.2644  0.7568 -0.5506
10192TIP3   OH254770   2.138   6.568  11.110 -0.3071 -0.2532  0.1024
10192TIP3    H154771   2.097   6.487  11.078  0.3789 -0.6241  0.1343
10192TIP3    H254772   2.067   6.632  11.111 -0.7470 -0.7165 -0.4229
10193TIP3   OH254773   3.108   2.612  10.665 -0.1937 -0.5300  0.9474
10193TIP3    H154774   3.125   2.541  10.604 -1.6430 -0.3088  0.2180
10193TIP3    H254775   3.033   2.582  10.717  0.5452 -0.4029  2.1166
10194TIP3   OH254776   6.057   2.488   9.652  0.0774  0.1521  0.3510
10194TIP3    H154777   6.152   2.491   9.665  0.0713 -0.6576  0.6554
10194TIP3    H254778   6.027   2.578   9.666  1.2496  1.3219 -3.4104
10195TIP3   OH254779   0.006   4.549  10.755 -0.1821  0.4403 -0.5431
10195TIP3    H154780  -0.074   4.540  10.704 -0.0701 -1.6508 -0.4610
10195TIP3    H254781  -0.021   4.595  10.834 -1.2902 -0.1019 -0.5828
10196TIP3   OH254782   6.200   0.683   8.923  0.6636 -0.1199 -0.3338
10196TIP3    H154783   6.130   0.664   8.986 -0.1165 -0.0520 -1.1542
10196TIP3    H254784   6.176   0.768   8.886  1.7207  0.3754  0.0669
10197TIP3   OH254785   4.502   5.606   8.765 -0.2443  0.0062  0.7093
10197TIP3    H154786   4.465   5.694   8.752 -1.7887 -0.6255  0.5866
10197TIP3    H254787   4.440   5.562   8.823 -0.2481 -1.4422 -0.3348
10198TIP3   OH254788   1.452   4.889  11.506 -0.4799  0.4477 -0.2511
10198TIP3    H154789   1.399   4.904  11.584  0.3102  1.5161  0.1014
10198TIP3    H254790   1.424   4.958  11.445 -0.7727 -0.1044 -0.7554
10199TIP3   OH254791   2.437   3.965   8.561  0.0359 -0.0698 -0.9676
10199TIP3    H154792   2.352   3.977   8.604 -0.0022 -1.0401 -0.7488
10199TIP3    H254793   2.415   3.932   8.474  0.1730 -4.2644  0.3583
10200TIP3   OH254794   2.244   2.848  12.745 -0.0585 -0.2966  0.1060
10200TIP3    H154795   2.244   2.915  12.813  1.0203 -1.2842  1.1178
10200TIP3    H254796   2.156   2.851  12.708 -0.7791  0.0208  1.7760
10201TIP3   OH254797   4.657   3.990  10.858  0.1675 -0.0365 -0.2464
10201TIP3    H154798   4.657   3.915  10.799 -1.2934 -0.5691  0.4067
10201TIP3    H254799   4.634   3.954  10.944  2.8395  0.6154  0.8508
10202TIP3   OH254800   3.297   3.443  10.407 -0.2715  0.0405  0.1671
10202TIP3    H154801   3.270   3.396  10.328  0.0001 -1.1015  0.7359
10202TIP3    H254802   3.301   3.534  10.380 -0.5275 -0.2887 -1.0480
10203TIP3   OH254803   5.533   2.295   9.520  0.5236  0.1646 -0.3560
10203TIP3    H154804   5.555   2.378   9.563 -0.7114  0.0628  0.5304
10203TIP3    H254805   5.438   2.298   9.508  0.7215 -0.2478 -2.2239
10204TIP3   OH254806   1.410   1.385   9.913 -0.5652  0.1510  0.4683
10204TIP3    H154807   1.367   1.432   9.985 -1.4246 -0.8629  0.6490
10204TIP3    H254808   1.347   1.389   9.841 -1.0102 -1.3671  0.7377
10205TIP3   OH254809   0.198   3.509   9.055 -0.6026  0.6313  0.2203
10205TIP3    H154810   0.292   3.490   9.048 -0.3934  1.0833  1.4961
10205TIP3    H254811   0.194   3.593   9.101 -1.6431 -0.8467  3.0890
10206TIP3   OH254812   0.001   2.043  10.408  0.0942  0.0901 -0.0489
10206TIP3    H154813  -0.093   2.061  10.414  0.3489  0.9399  1.9593
10206TIP3    H254814   0.015   1.970  10.468  0.6353 -0.4141 -0.7830
10207TIP3   OH254815   6.623   3.263  10.928 -0.3237 -0.5494  0.0961
10207TIP3    H154816   6.578   3.277  11.011  1.1354  2.7507  0.4940
10207TIP3    H254817   6.682   3.189  10.944 -0.8201 -0.6317  1.6662
10208TIP3   OH254818   4.327   2.217   8.835  0.3455  0.6082 -0.0436
10208TIP3    H154819   4.266   2.278   8.876 -1.2171  0.3303 -1.8499
10208TIP3    H254820   4.371   2.269   8.768 -0.6325 -0.0738 -1.2520
10209TIP3   OH254821   0.910   3.186  11.294 -0.2451 -0.3117  0.2580
10209TIP3    H154822   0.832   3.216  11.340 -0.3127  0.2496 -0.2115
10209TIP3    H254823   0.914   3.239  11.215  0.0565 -1.0373 -0.2279
10210TIP3   OH254824   3.830   3.263  10.232  0.1902 -0.1251  0.0664
10210TIP3    H154825   3.808   3.288  10.322  0.5228 -1.6173  0.5901
10210TIP3    H254826   3.756   3.294  10.180 -0.3219  0.1695  0.9471
10211TIP3   OH254827   1.441   2.131  10.504  0.1698 -0.3167  0.1764
10211TIP3    H154828   1.409   2.221  10.496 -1.4181 -0.7508  1.1301
10211TIP3    H254829   1.375   2.078  10.459 -0.5150 -1.2494  2.1679
10212TIP3   OH254830   4.659   0.573  10.963 -0.1575 -0.0838  0.3703
10212TIP3    H154831   4.601   0.497  10.954 -0.2231 -0.2070  1.6903
10212TIP3    H254832   4.725   0.560  10.896 -0.0821 -1.4003  0.6763
10213TIP3   OH254833   4.293   3.996   9.236 -0.0477 -0.1780 -0.7979
10213TIP3    H154834   4.284   4.033   9.324 -0.3213  0.5635 -1.1254
10213TIP3    H254835   4.205   3.967   9.213 -0.1617  0.4319 -1.1612
10214TIP3   OH254836   1.289   6.324   8.382 -0.3767 -0.2997 -0.7238
10214TIP3    H154837   1.209   6.331   8.328 -1.1422  2.0699  0.5738
10214TIP3    H254838   1.261   6.348   8.470  1.5587 -0.6641  0.0448
10215TIP3   OH254839   1.164   3.993   9.240 -0.5492  0.3266 -0.3165
10215TIP3    H154840   1.128   4.000   9.151  0.3100 -1.0329 -0.7993
10215TIP3    H254841   1.259   3.992   9.227 -0.3078  2.4731  0.8327
10216TIP3   OH254842   2.541   6.463  10.236 -0.2290 -0.4397 -0.0033
10216TIP3    H154843   2.447   6.467  10.222 -0.2852 -3.3227 -1.2207
10216TIP3    H254844   2.578   6.460  10.147  0.8948 -0.5295  0.4463
10217TIP3   OH254845   3.457   3.720  10.966 -0.3165 -0.0876 -0.5557
10217TIP3    H154846   3.400   3.764  11.029  0.5844 -0.3058  0.4480
10217TIP3    H254847   3.416   3.737  10.881 -1.2650  0.6837  0.0258
10218TIP3   OH254848   1.283   2.316   9.989  0.3179  0.4793 -0.3491
10218TIP3    H154849   1.243   2.259   9.923 -0.7008 -1.6622  1.9620
10218TIP3    H254850   1.355   2.263  10.025  0.8784  1.6128  0.2455
10219TIP3   OH254851   0.194   5.828  10.378 -0.1250 -0.1870 -0.4015
10219TIP3    H154852   0.134   5.754  10.372  0.6704 -0.9632  0.7270
10219TIP3    H254853   0.281   5.787  10.383  0.2111  0.6866  2.2088
10220TIP3   OH254854   1.084   1.396   8.598 -0.0100  0.1057 -0.2552
10220TIP3    H154855   1.147   1.350   8.655 -0.6923  0.8445  1.1433
10220TIP3    H254856   1.085   1.345   8.517  0.5278 -1.3726  0.6205
10221TIP3   OH254857   1.575   0.568  10.626  0.2291  0.1867  0.2372
10221TIP3    H154858   1.562   0.513  10.549  1.0464 -0.4891  0.5674
10221TIP3    H254859   1.486   0.586  10.658 -0.0548 -1.4195  0.4317
10222TIP3   OH254860   6.104   0.815  10.259  0.1962  0.4373  0.2408
10222TIP3    H154861   6.074   0.738  10.212 -2.1787  0.3294  1.7539
10222TIP3    H254862   6.200   0.811  10.254  0.0861 -1.2365 -1.7842
10223TIP3   OH254863   2.813   0.231  11.827 -0.3279  0.3772 -0.4484
10223TIP3    H154864   2.891   0.247  11.879 -0.7577  1.1295 -0.0131
10223TIP3    H254865   2.750   0.194  11.888 -0.4160  0.0618 -0.7271
10224TIP3   OH254866   2.803   3.426  10.672  0.1589 -0.1283 -0.3198
10224TIP3    H154867   2.799   3.334  10.649 -3.3853 -0.0478 -0.6190
10224TIP3    H254868   2.846   3.429  10.757  2.4062 -1.7329 -1.3156
10225TIP3   OH254869   2.493   3.991  12.078 -0.4625 -0.0337  0.0142
10225TIP3    H154870   2.535   3.906  12.071 -1.8199 -0.7463  0.1553
10225TIP3    H254871   2.446   3.988  12.162 -2.6235 -0.1587 -1.1448
10226TIP3   OH254872   2.059   3.411  11.448  0.3709  0.4630  0.8267
10226TIP3    H154873   1.979   3.438  11.494  0.1032 -0.4656  0.9338
10226TIP3    H254874   2.042   3.320  11.424  1.0736  0.5128  0.1173
10227TIP3   OH254875   6.202   6.683  11.813  0.4262 -0.1658  0.3401
10227TIP3    H154876   6.261   6.608  11.808 -3.0953 -3.3059  1.5602
10227TIP3    H254877   6.147   6.666  11.889 -1.8732  2.6654 -0.4886
10228TIP3   OH254878   2.165   0.955  11.129 -0.2915  0.3592  0.3124
10228TIP3    H154879   2.087   0.995  11.091  0.1542  0.6985 -0.2823
10228TIP3    H254880   2.136   0.918  11.212 -0.8807  1.2608  0.5151
10229TIP3   OH254881   5.490   4.547  11.028 -0.1828 -0.3576  0.4616
10229TIP3    H154882   5.472   4.485  10.958 -1.3773 -0.5551  0.9126
10229TIP3    H254883   5.492   4.632  10.985 -0.7970 -0.4899  0.1623
10230TIP3   OH254884   1.755   2.982   8.367 -0.0320 -0.5455 -0.5322
10230TIP3    H154885   1.695   2.952   8.435  0.3097 -1.1257 -0.4772
10230TIP3    H254886   1.702   3.040   8.312 -0.6779 -1.1217 -0.5392
10231TIP3   OH254887   1.700   3.459   9.538 -0.0748  0.3761 -0.1043
10231TIP3    H154888   1.720   3.371   9.504  0.5435  0.1365  0.8382
10231TIP3    H254889   1.624   3.445   9.595  0.2568  0.3891  0.3393
10232TIP3   OH254890   1.904   4.168   9.111 -0.6344 -0.0599  0.5668
10232TIP3    H154891   1.887   4.198   9.022 -1.2491 -0.2753  0.6002
10232TIP3    H254892   1.843   4.219   9.165 -1.4233 -1.0528  0.6683
10233TIP3   OH254893   6.630   5.240   9.356  0.0819  0.0474  0.7206
10233TIP3    H154894   6.561   5.291   9.397  0.6463  0.7083  0.8615
10233TIP3    H254895   6.627   5.155   9.401 -0.8101 -0.0322  0.5316
10234TIP3   OH254896   6.571   4.466   9.494  0.5863 -0.0773 -0.0218
10234TIP3    H154897   6.618   4.512   9.564 -1.8991  0.0233  1.7451
10234TIP3    H254898   6.501   4.419   9.540 -1.5531  0.4823 -2.4745
10235TIP3   OH254899   0.515   4.526  10.918 -0.0608 -0.1186  0.6109
10235TIP3    H154900   0.483   4.549  10.831 -0.2861 -0.9363  0.4642
10235TIP3    H254901   0.461   4.576  10.978 -0.3386 -0.0398  0.2957
10236TIP3   OH254902   0.672   2.977  10.758  0.2033 -0.1751 -0.0092
10236TIP3    H154903   0.634   3.058  10.793  1.8463  0.1910  1.0383
10236TIP3    H254904   0.596   2.921  10.740 -0.8582  0.2504  2.6329
10237TIP3   OH254905   3.821   5.367  10.380  0.4504  0.0974  0.3753
10237TIP3    H154906   3.792   5.276  10.380  0.6766  0.0193 -0.4860
10237TIP3    H254907   3.751   5.415  10.424  0.2371 -0.4601  0.6479
10238TIP3   OH254908   3.267   1.037   9.540  0.4853  0.2387 -0.3433
10238TIP3    H154909   3.239   1.107   9.481  0.7507  0.8506  0.2467
10238TIP3    H254910   3.259   1.074   9.628 -0.0799 -0.7191  0.0339
10239TIP3   OH254911   0.199   4.352   9.751 -0.4575  0.1362 -0.1848
10239TIP3    H154912   0.141   4.313   9.816 -0.1323  1.6429  1.0833
10239TIP3    H254913   0.144   4.364   9.674 -1.0428 -1.0471  0.0166
10240TIP3   OH254914   0.820   3.031  10.482 -0.1473  0.2999 -0.1685
10240TIP3    H154915   0.841   3.077  10.400 -0.6005 -0.3924 -0.6882
10240TIP3    H254916   0.820   2.938  10.458  0.1503  0.0618  0.7235
10241TIP3   OH254917   2.910   2.883  10.501 -0.1457 -0.2360 -0.4256
10241TIP3    H154918   2.936   2.800  10.542 -1.1876 -1.1007 -1.4264
10241TIP3    H254919   2.987   2.910  10.451  0.0978 -0.7895 -0.3623
10242TIP3   OH254920   3.969   2.247   9.290 -0.2483 -0.8176 -0.0935
10242TIP3    H154921   4.044   2.190   9.307 -0.3475 -0.7891  0.4485
10242TIP3    H254922   3.948   2.232   9.198  0.8694 -0.3026 -0.4600
10243TIP3   OH254923   4.930   2.303   9.602 -0.2979  0.2248  0.1958
10243TIP3    H154924   4.943   2.214   9.569 -2.2303 -0.1759  0.4073
10243TIP3    H254925   4.868   2.294   9.674 -3.0186  1.9935 -1.6961
10244TIP3   OH254926   1.179   0.423   9.015 -0.3914 -0.1308  0.7702
10244TIP3    H154927   1.148   0.437   9.105 -0.7938  2.4821  0.2768
10244TIP3    H254928   1.274   0.434   9.021 -0.5459  1.4604  0.6824
10245TIP3   OH254929   0.869   4.695   8.886 -0.0779 -0.0708 -0.4402
10245TIP3    H154930   0.862   4.660   8.975  0.5581  1.0636  0.0821
10245TIP3    H254931   0.963   4.692   8.867 -0.1608  0.1383 -0.8876
10246TIP3   OH254932   2.977   3.671  10.988  0.1865  0.1268  0.5425
10246TIP3    H154933   2.978   3.666  11.084  0.0598 -0.6980  0.4996
10246TIP3    H254934   3.053   3.621  10.960  1.1959  1.7330  0.2529
10247TIP3   OH254935   0.042   5.610  10.681 -0.2621 -0.2341  0.4973
10247TIP3    H154936   0.044   5.633  10.588 -1.4980  0.3360  0.5870
10247TIP3    H254937  -0.044   5.640  10.711  0.0199 -0.6361  1.7705
10248TIP3   OH254938   6.753   2.098  10.045  0.2930 -0.1949  0.3930
10248TIP3    H154939   6.791   2.185  10.039  2.4805 -1.1349 -0.9685
10248TIP3    H254940   6.818   2.041  10.003 -2.2466 -2.1189 -1.2556
10249TIP3   OH254941   2.989   5.077  12.008  0.5090  0.6059  0.3922
10249TIP3    H154942   2.911   5.120  11.974  0.1395  0.3327  0.8908
10249TIP3    H254943   3.036   5.146  12.054  1.0330  0.9898 -0.6815
10250TIP3   OH254944   4.689   2.475   8.803  0.2574 -0.8217 -0.7184
10250TIP3    H154945   4.751   2.448   8.871  0.2135  0.8550  0.0343
10250TIP3    H254946   4.743   2.523   8.739 -0.3014  1.5268  0.4376
10251TIP3   OH254947   3.467   2.002   9.589  0.2523  0.2082  0.3121
10251TIP3    H154948   3.468   2.085   9.638  0.4679 -0.2738  1.1352
10251TIP3    H254949   3.556   1.991   9.558  0.1390  0.4628 -0.1120
10252TIP3   OH254950   2.326   3.733   9.416 -0.2061  0.0494 -0.1825
10252TIP3    H154951   2.322   3.677   9.339  0.3143 -0.4862  0.1678
10252TIP3    H254952   2.358   3.817   9.384  1.2305 -0.5436 -0.3584
10253TIP3   OH254953   2.011   3.812  11.380  0.7060 -0.0357  0.2259
10253TIP3    H154954   2.027   3.905  11.401 -0.5200  0.4292 -0.7754
10253TIP3    H254955   2.035   3.765  11.460  3.9468  0.8295 -0.0744
10254TIP3   OH254956   2.274   6.793   9.808  1.1018 -0.2915 -0.3207
10254TIP3    H154957   2.259   6.870   9.753 -0.0472 -0.7936 -0.7454
10254TIP3    H254958   2.351   6.752   9.771  1.0866  0.0688 -0.7638
10255TIP3   OH254959   2.918   5.348  10.946  0.1591 -0.3163  0.1742
10255TIP3    H154960   2.829   5.352  10.982  0.8675 -0.2477  1.9937
10255TIP3    H254961   2.935   5.254  10.937 -0.5927 -0.3423 -1.6177
10256TIP3   OH254962   1.488   5.406   8.408  0.1541  0.4028  0.1297
10256TIP3    H154963   1.531   5.352   8.474 -0.9588  0.0263  0.5593
10256TIP3    H254964   1.471   5.346   8.335 -0.4554  0.3327  0.3270
10257TIP3   OH254965   1.089   5.631  10.534 -0.2488 -0.2492 -0.2315
10257TIP3    H154966   1.104   5.549  10.580  1.7928  0.0595 -0.2685
10257TIP3    H254967   1.130   5.619  10.449 -0.7999  0.4681 -0.6104
10258TIP3   OH254968   6.161   2.701  10.881 -0.1804 -0.2954 -0.5391
10258TIP3    H154969   6.136   2.719  10.971 -0.6302 -0.7686 -0.5674
10258TIP3    H254970   6.163   2.605  10.874  1.0561 -0.2825 -0.7038
10259TIP3   OH254971   6.004   0.276   8.933  0.0165 -0.1425  0.2227
10259TIP3    H154972   6.062   0.345   8.902  1.6044 -1.1166  0.9097
10259TIP3    H254973   6.047   0.194   8.908 -1.1889 -0.9033  0.5274
10260TIP3   OH254974   0.119   5.883   9.584  0.4803 -0.3515  0.3089
10260TIP3    H154975   0.036   5.872   9.538 -1.0202  2.1240  2.1610
10260TIP3    H254976   0.095   5.891   9.676  2.8226  0.0700  0.9497
10261TIP3   OH254977   6.378   6.428   8.917  0.4122  0.2717  0.2539
10261TIP3    H154978   6.400   6.335   8.916  0.0114  0.0599  3.0627
10261TIP3    H254979   6.284   6.431   8.900  0.1351 -0.0120  1.6203
10262TIP3   OH254980   0.509   1.945   9.875  0.3842 -0.0645  0.0921
10262TIP3    H154981   0.483   2.006   9.944 -1.1960  0.1929 -0.6700
10262TIP3    H254982   0.465   1.979   9.796  1.6515 -0.6900 -0.9137
10263TIP3   OH254983   1.578   1.886   9.725 -0.2471  0.0742 -0.0477
10263TIP3    H154984   1.501   1.835   9.701  0.1703  0.5946 -2.8174
10263TIP3    H254985   1.604   1.851   9.811 -1.9157 -2.0012 -0.3047
10264TIP3   OH254986   4.107   4.494  10.732 -0.0857 -0.5212 -0.2082
10264TIP3    H154987   4.170   4.559  10.763 -2.3621  2.1342 -0.7978
10264TIP3    H254988   4.154   4.411  10.738  2.1596  0.7548  3.0261
10265TIP3   OH254989   2.934   6.519  10.678  0.3327 -0.3528 -0.6020
10265TIP3    H154990   2.938   6.437  10.726  0.5717 -0.6455 -1.1137
10265TIP3    H254991   2.985   6.581  10.730  0.4682 -0.6288 -0.4101
10266TIP3   OH254992   1.926   1.542   9.561 -0.1666  0.1363 -0.3217
10266TIP3    H154993   2.010   1.569   9.525 -0.3530 -0.4941 -1.2615
10266TIP3    H254994   1.863   1.559   9.491 -0.6561 -0.4344 -0.0299
10267TIP3   OH254995   4.970   6.106  11.400  0.1683 -0.0222  0.1563
10267TIP3    H154996   5.008   6.110  11.488  0.6000 -2.3912  0.1334
10267TIP3    H254997   4.995   6.189  11.360  2.1571  0.0704  1.4179
10268TIP3   OH254998   5.573   0.109  10.559  0.0179 -0.2370  0.0797
10268TIP3    H154999   5.489   0.083  10.597  0.6307 -0.5983  1.2473
10268TIP3    H255000   5.621   0.149  10.632  1.0920 -0.6015 -0.4068
10269TIP3   OH255001   2.576   5.690  10.189  0.2787  0.0202  0.2138
10269TIP3    H155002   2.604   5.752  10.122  0.8114  0.1781  0.5791
10269TIP3    H255003   2.595   5.604  10.152 -0.5956  0.0559 -0.3540
10270TIP3   OH255004   5.616   5.367  10.693 -0.4712  0.1442  0.4570
10270TIP3    H155005   5.521   5.375  10.684 -0.2295  4.3230 -0.2218
10270TIP3    H255006   5.639   5.427  10.763  1.8161  0.5744 -0.5805
10271TIP3   OH255007   1.303   6.422  10.235  0.2150  0.1453  0.4323
10271TIP3    H155008   1.270   6.341  10.195  0.4819  0.3692 -0.2642
10271TIP3    H255009   1.284   6.490  10.170  0.5402  0.5450  0.7495
10272TIP3   OH255010   4.439   1.423   9.670  0.0105  0.4496  0.1568
10272TIP3    H155011   4.372   1.472   9.717 -0.2433  0.5740 -0.3244
10272TIP3    H255012   4.391   1.376   9.601  0.4060  0.4797 -0.1473
10273TIP3   OH255013   4.480   0.863   9.288 -0.0268 -0.3207 -0.1207
10273TIP3    H155014   4.473   0.767   9.295 -1.0441 -0.1870  1.1005
10273TIP3    H255015   4.426   0.885   9.213  0.5456 -0.7322 -0.6665
10274TIP3   OH255016   6.204   4.171  11.177 -0.6452  0.6121  0.1955
10274TIP3    H155017   6.271   4.192  11.241 -0.0495  0.9687 -0.5284
10274TIP3    H255018   6.202   4.246  11.118 -1.0367  0.2102 -0.3174
10275TIP3   OH255019   0.583   3.675  10.022 -0.0962  0.1918 -0.2218
10275TIP3    H155020   0.521   3.748  10.015 -2.8801 -1.7577  1.5216
10275TIP3    H255021   0.627   3.689  10.106  0.3218  0.5202 -0.4945
10276TIP3   OH255022   2.728   3.172   9.808 -0.2241  0.0423 -0.3920
10276TIP3    H155023   2.695   3.225   9.736 -1.1392 -1.6702 -1.3030
10276TIP3    H255024   2.670   3.192   9.881  1.9850  3.4124  0.6637
10277TIP3   OH255025   2.177   2.481   8.779  0.2689 -0.7023  0.2499
10277TIP3    H155026   2.132   2.465   8.863 -2.4590 -0.5600 -1.0732
10277TIP3    H255027   2.243   2.547   8.800 -1.6715  0.8395  1.9542
10278TIP3   OH255028   6.350   1.607   9.879  0.8046 -0.2171 -0.1376
10278TIP3    H155029   6.320   1.529   9.832  0.7760  0.9278 -2.1074
10278TIP3    H255030   6.284   1.673   9.860  1.2492  0.5247  0.8323
10279TIP3   OH255031   3.943   0.724  11.250  1.0837  0.2073 -0.5523
10279TIP3    H155032   3.896   0.641  11.263  0.6768  0.5553  0.2677
10279TIP3    H255033   4.029   0.708  11.288  1.6709 -0.4312 -2.0568
10280TIP3   OH255034   2.920   1.152   9.827 -0.1049 -0.4564  0.5248
10280TIP3    H155035   2.917   1.071   9.775  0.4146  0.4067 -0.9151
10280TIP3    H255036   2.829   1.168   9.852 -0.3280 -1.0316  0.1078
10281TIP3   OH255037   4.931   2.829   9.731  0.7587  0.4141 -0.5617
10281TIP3    H155038   4.964   2.751   9.687  0.4196 -0.1706  0.1880
10281TIP3    H255039   4.862   2.863   9.673  1.0669  0.2892 -0.9993
10282TIP3   OH255040   5.405   5.035  11.586  0.7269 -0.2045 -0.0489
10282TIP3    H155041   5.430   5.064  11.674 -0.6948 -0.6738  0.5300
10282TIP3    H255042   5.387   5.116  11.538 -0.5511  0.0065  0.7383
10283TIP3   OH255043   6.511   2.891   9.850 -0.0548 -0.1655 -0.2747
10283TIP3    H155044   6.574   2.958   9.825  0.7255 -0.9543 -0.4474
10283TIP3    H255045   6.457   2.933   9.917  0.9089  0.3844  0.1769
10284TIP3   OH255046   2.984   5.649  12.006 -0.5527 -0.2867  0.2885
10284TIP3    H155047   2.890   5.631  12.018 -0.3948 -1.4649 -0.1016
10284TIP3    H255048   2.989   5.744  11.996 -1.8047 -0.2696 -0.4546
10285TIP3   OH255049   5.017   6.600  12.128 -0.4591 -0.1477 -0.0032
10285TIP3    H155050   5.090   6.652  12.161 -0.0825 -0.8162  0.2435
10285TIP3    H255051   4.970   6.573  12.207 -0.3522 -0.6048 -0.0933
10286TIP3   OH255052   4.983   0.018  10.742  0.2266  0.1466  0.2414
10286TIP3    H155053   4.909   0.079  10.741  0.4375  0.3990 -0.3513
10286TIP3    H255054   5.032   0.042  10.821 -0.5077 -0.2517  0.8226
10287TIP3   OH255055   5.900   4.620   8.684 -0.1808 -0.9719  0.5600
10287TIP3    H155056   5.824   4.644   8.632  2.0386 -0.0878 -2.6221
10287TIP3    H255057   5.937   4.544   8.639  1.7944 -0.2305  0.8129
10288TIP3   OH255058   5.389   0.123  10.866 -0.2498 -0.5180 -0.2208
10288TIP3    H155059   5.328   0.060  10.906 -0.6897 -0.4722 -0.8168
10288TIP3    H255060   5.361   0.130  10.775  1.3793 -1.4141 -0.8358
10289TIP3   OH255061   4.592   2.627  11.886 -0.1245  0.6088 -0.4534
10289TIP3    H155062   4.642   2.654  11.963 -2.9958  2.0764  1.0377
10289TIP3    H255063   4.524   2.694  11.876 -3.0824 -2.2340 -1.1101
10290TIP3   OH255064   3.828   2.476   9.255 -0.4032 -0.0669 -0.5435
10290TIP3    H155065   3.847   2.478   9.161  1.2784  0.1919 -0.2385
10290TIP3    H255066   3.881   2.403   9.288  1.8153  1.9611  0.6833
10291TIP3   OH255067   1.827   1.577  10.622 -0.0031 -0.1033 -0.5116
10291TIP3    H155068   1.903   1.589  10.564  2.9855 -0.8616  2.8942
10291TIP3    H255069   1.839   1.489  10.658 -2.6417 -0.2866  0.0798
10292TIP3   OH255070   2.595   2.528   8.956 -0.0981  0.0305  0.1223
10292TIP3    H155071   2.680   2.541   8.913 -0.2992  1.1730  0.0531
10292TIP3    H255072   2.587   2.602   9.016 -0.9908 -0.1481  0.2293
10293TIP3   OH255073   5.172   2.995   8.668  0.1881  0.3194 -0.5497
10293TIP3    H155074   5.112   2.935   8.713  0.1071 -0.2879 -1.4496
10293TIP3    H255075   5.123   3.077   8.660 -0.1427  0.1372 -0.3798
10294TIP3   OH255076   5.737   6.053  11.205  0.3374 -0.4170 -0.3767
10294TIP3    H155077   5.782   6.104  11.139 -1.0652  1.3533 -0.0313
10294TIP3    H255078   5.646   6.080  11.200 -0.2965 -2.1607  0.5323
10295TIP3   OH255079   0.882   1.934  10.648  0.1284 -0.1567 -0.3260
10295TIP3    H155080   0.900   1.851  10.692 -0.3014  0.3983  0.9285
10295TIP3    H255081   0.916   2.001  10.707 -2.2117  0.7051  0.1236
10296TIP3   OH255082   3.643   3.904  11.202 -0.2905  0.0534  0.1104
10296TIP3    H155083   3.710   3.897  11.271 -0.2793  2.0771  0.3447
10296TIP3    H255084   3.683   3.861  11.126 -0.2405 -2.0791  1.2496
10297TIP3   OH255085   1.502   6.490   8.327  0.1750  0.5994 -0.5609
10297TIP3    H155086   1.591   6.468   8.354  0.4118  0.9790 -1.0302
10297TIP3    H255087   1.455   6.406   8.330  1.0963 -0.0342 -2.4432
10298TIP3   OH255088   4.381   4.292  10.454 -0.1201  0.0961  0.0346
10298TIP3    H155089   4.422   4.215  10.416 -2.6653 -1.2606 -0.1984
10298TIP3    H255090   4.311   4.315  10.393  1.2069  3.3431 -0.4704
10299TIP3   OH255091   4.832   6.541  11.387 -0.3568 -0.0625 -1.0164
10299TIP3    H155092   4.881   6.526  11.468 -0.1473  0.2419 -1.0850
10299TIP3    H255093   4.859   6.628  11.358 -3.6085  1.7555  0.8642
10300TIP3   OH255094   4.890   3.566   9.778 -0.0286 -0.4906 -0.2266
10300TIP3    H155095   4.820   3.630   9.764 -0.1463 -0.1573  1.7312
10300TIP3    H255096   4.845   3.487   9.808  0.4644  0.1077  2.2706
10301TIP3   OH255097   5.145   5.207  10.980 -0.1359 -0.0443 -0.1792
10301TIP3    H155098   5.238   5.200  11.000 -0.2596  0.6459  0.6830
10301TIP3    H255099   5.106   5.127  11.015  0.1444 -0.3852 -0.6413
10302TIP3   OH255100   1.311   4.572  12.088  0.6460 -0.5666 -0.1799
10302TIP3    H155101   1.384   4.529  12.043  0.3255 -0.8427 -0.4482
10302TIP3    H255102   1.236   4.558  12.029  0.1869 -1.0687  0.5125
10303TIP3   OH255103   0.083   5.546   9.207  0.3362 -0.0862  0.0549
10303TIP3    H155104   0.037   5.627   9.183  0.8077  0.0945 -0.2504
10303TIP3    H255105   0.027   5.476   9.172  0.1948  0.1250 -0.1459
10304TIP3   OH255106   3.889   6.059  10.124  0.3391  0.4087  0.2324
10304TIP3    H155107   3.820   6.080  10.061  1.4353  0.3238 -1.0320
10304TIP3    H255108   3.928   5.978  10.091  2.3256  1.4779 -0.1800
10305TIP3   OH255109   0.571   6.596  10.493 -0.2383  0.0689  0.0831
10305TIP3    H155110   0.565   6.519  10.549 -1.2439 -0.4702 -0.7123
10305TIP3    H255111   0.647   6.579  10.437  0.7154  0.5722  1.2048
10306TIP3   OH255112   5.122   1.174  10.592  0.3324  0.3605 -0.1989
10306TIP3    H155113   5.050   1.115  10.572  0.2516  0.4877 -0.2817
10306TIP3    H255114   5.174   1.178  10.512  1.1302 -0.7104  0.2456
10307TIP3   OH255115   4.734   3.932  10.444  0.0784  0.6875  0.0156
10307TIP3    H155116   4.701   3.846  10.471  1.4358  0.9568  2.8863
10307TIP3    H255117   4.712   3.938  10.351 -1.3310 -2.1403  0.0628
10308TIP3   OH255118   3.183   0.124  10.062 -0.8508 -0.2929 -0.2950
10308TIP3    H155119   3.206   0.216  10.057  0.6137 -0.6290 -0.1452
10308TIP3    H255120   3.248   0.079  10.008 -1.5105 -1.2544 -0.3315
10309TIP3   OH255121   4.541   4.187  10.699 -0.0329  0.2898 -0.0077
10309TIP3    H155122   4.602   4.197  10.625  0.3453  1.9069  0.4833
10309TIP3    H255123   4.587   4.132  10.761 -0.5102 -1.4309 -1.1032
10310TIP3   OH255124   3.898   3.344   9.865 -0.1292  0.4425  0.2808
10310TIP3    H155125   3.930   3.255   9.877 -0.7423  0.0733 -0.7324
10310TIP3    H255126   3.926   3.390   9.944 -1.2256 -1.0475  1.6039
10311TIP3   OH255127   2.769   6.142   8.986 -0.0907 -0.7051 -0.3119
10311TIP3    H155128   2.821   6.210   9.028 -0.7072 -0.4411  0.0184
10311TIP3    H255129   2.688   6.185   8.961 -0.1881 -1.1405 -0.7553
10312TIP3   OH255130   2.134   4.417   9.440  0.6509 -0.3769  0.2159
10312TIP3    H155131   2.154   4.483   9.507  0.3602  0.7073 -0.7232
10312TIP3    H255132   2.219   4.386   9.410  0.8704  0.9279 -0.5992
10313TIP3   OH255133   2.563   1.792  12.102  0.3808 -0.3863  0.0518
10313TIP3    H155134   2.653   1.824  12.100 -0.6570  2.8610 -2.1370
10313TIP3    H255135   2.526   1.832  12.181  0.4571 -0.5749  0.1856
10314TIP3   OH255136   0.728   5.977   9.437  0.0861 -0.0990 -1.4763
10314TIP3    H155137   0.769   5.964   9.351  0.3918 -2.6542 -1.0217
10314TIP3    H255138   0.783   5.927   9.497 -0.9450  0.4564 -0.0211
10315TIP3   OH255139   4.962   3.191   9.146 -0.0832 -0.3175 -0.3451
10315TIP3    H155140   5.033   3.254   9.150  0.9942 -1.4358 -1.1424
10315TIP3    H255141   4.970   3.140   9.227 -1.3806  0.9417  0.6394
10316TIP3   OH255142   0.036   6.678   9.412 -0.5411 -0.4054  0.0799
10316TIP3    H155143   0.096   6.694   9.485 -0.5723 -1.4780  0.3514
10316TIP3    H255144  -0.045   6.649   9.453  0.0219 -2.8536 -0.4057
10317TIP3   OH255145   2.073   0.711   9.928  0.4065 -0.1823  0.1973
10317TIP3    H155146   2.152   0.701   9.981  1.0345  0.2795 -0.6259
10317TIP3    H255147   2.010   0.754   9.987  1.0652  0.2549  0.5974
10318TIP3   OH255148   6.658   3.608   9.093  0.5608 -0.2786  0.1773
10318TIP3    H155149   6.624   3.519   9.083  1.5099 -0.6554  0.1973
10318TIP3    H255150   6.717   3.603   9.168  0.5271  0.3965  0.2537
10319TIP3   OH255151   4.041   6.216  11.124 -0.0361 -0.5572 -0.2018
10319TIP3    H155152   4.105   6.163  11.076 -0.3738 -1.4778  0.3404
10319TIP3    H255153   4.074   6.219  11.214 -0.4766 -0.6004 -0.0340
10320TIP3   OH255154   4.492   3.281   9.287  0.1813  0.6288 -0.0149
10320TIP3    H155155   4.557   3.242   9.228  0.1505 -1.1309  1.0467
10320TIP3    H255156   4.427   3.211   9.300 -1.4888  2.0438 -0.3448
10321TIP3   OH255157   3.983   5.460   8.626  0.0797  0.3702  0.0026
10321TIP3    H155158   4.029   5.460   8.710  1.0986  1.4358 -0.5198
10321TIP3    H255159   3.916   5.529   8.636 -0.6804 -0.4022  0.3715
10322TIP3   OH255160   0.125   4.710   8.795  0.5420 -0.3098 -0.0241
10322TIP3    H155161   0.118   4.799   8.761  0.8655 -1.5761 -3.8955
10322TIP3    H255162   0.216   4.700   8.821  0.8265  0.1086 -0.8515
10323TIP3   OH255163   0.700   4.657   9.171  0.3413  0.6351 -0.2290
10323TIP3    H155164   0.741   4.585   9.219  0.6137 -0.9108 -2.5876
10323TIP3    H255165   0.623   4.617   9.131 -0.2506  2.0243 -0.5157
10324TIP3   OH255166   6.383   2.593   8.977 -0.1793  0.3893 -0.4632
10324TIP3    H155167   6.463   2.548   9.005 -0.5365  0.0313  0.0021
10324TIP3    H255168   6.410   2.683   8.963  0.3324  0.2479 -0.4132
10325TIP3   OH255169   3.941   0.672   9.055  0.4899 -0.4248  0.2175
10325TIP3    H155170   3.993   0.750   9.077 -1.3599  0.5621  1.3660
10325TIP3    H255171   3.992   0.599   9.090  2.2931  0.2287 -0.9262
10326TIP3   OH255172   5.911   2.012   8.838 -0.0378  0.3249  0.1074
10326TIP3    H155173   5.968   1.941   8.869  1.3699  0.1479 -2.5676
10326TIP3    H255174   5.968   2.088   8.836 -0.1137  0.3732 -1.6785
10327TIP3   OH255175   1.075   0.735   9.767 -0.7984 -0.0965 -0.1926
10327TIP3    H155176   1.065   0.796   9.694 -4.6406 -0.3551 -0.0826
10327TIP3    H255177   1.097   0.651   9.726  1.7461  0.6628 -0.5516
10328TIP3   OH255178   3.239   1.232  11.624  0.2865 -0.7036 -0.6245
10328TIP3    H155179   3.321   1.280  11.642  0.3133 -0.4491 -1.3613
10328TIP3    H255180   3.268   1.149  11.587  0.2324 -1.1501  0.3270
10329TIP3   OH255181   2.839   5.202   8.971  0.3209 -0.1751 -0.1374
10329TIP3    H155182   2.838   5.297   8.979  1.0618 -0.2281  0.7620
10329TIP3    H255183   2.901   5.184   8.901 -0.1489  0.0170 -0.6054
10330TIP3   OH255184   4.971   6.457   9.878 -0.4136  0.2562  0.7825
10330TIP3    H155185   4.935   6.494   9.958 -0.7030 -1.0404  1.2856
10330TIP3    H255186   5.055   6.420   9.905  0.8395  2.2859 -0.1440
10331TIP3   OH255187   4.823   0.380   9.676  0.2816  0.2511 -0.2387
10331TIP3    H155188   4.815   0.470   9.645  0.2311  0.0934 -0.6948
10331TIP3    H255189   4.748   0.368   9.735 -0.2296  0.2239 -0.8876
10332TIP3   OH255190   1.290   5.568  10.362  0.0461 -0.0104  0.1284
10332TIP3    H155191   1.355   5.604  10.422  1.6085 -1.4889 -0.5937
10332TIP3    H255192   1.284   5.475  10.385 -0.8122 -0.1844 -0.7215
10333TIP3   OH255193   5.143   2.000  11.036 -0.0867  0.2390 -0.1547
10333TIP3    H155194   5.114   2.024  11.124 -0.0153  0.1463 -0.1051
10333TIP3    H255195   5.222   2.053  11.021 -0.1381  0.3049 -0.1898
10334TIP3   OH255196   3.094   3.962  12.459  0.3365 -0.4793  0.3494
10334TIP3    H155197   3.029   3.999  12.519  0.7452  2.8270 -1.0153
10334TIP3    H255198   3.046   3.946  12.378  0.8127  0.2995 -0.1058
10335TIP3   OH255199   4.354   4.744   9.612  0.0473 -0.4601 -0.0907
10335TIP3    H155200   4.263   4.736   9.583  0.2125 -3.2343 -0.0266
10335TIP3    H255201   4.370   4.839   9.613 -2.3681  0.0446 -1.4973
10336TIP3   OH255202   3.536   4.819  10.100  0.2360  0.3313  0.6676
10336TIP3    H155203   3.472   4.890  10.104 -0.1037  0.1785 -1.2302
10336TIP3    H255204   3.617   4.863  10.072 -0.1362 -0.0800 -1.1593
10337TIP3   OH255205   5.112   4.443  10.629 -0.0590 -0.0020  0.3346
10337TIP3    H155206   5.077   4.419  10.714  1.7975 -0.6127  0.9742
10337TIP3    H255207   5.207   4.432  10.638  0.2882  1.1445 -1.4247
10338TIP3   OH255208   6.440   4.236  10.022  0.0297  0.0538 -0.3015
10338TIP3    H155209   6.397   4.163   9.978 -0.8003  0.6248 -0.4672
10338TIP3    H255210   6.420   4.312   9.967  0.7642  0.4287 -0.0603
10339TIP3   OH255211   0.856   0.177   9.648  0.6637  0.1418  0.5623
10339TIP3    H155212   0.780   0.155   9.594  0.1899 -2.0326  1.9446
10339TIP3    H255213   0.929   0.130   9.607  0.9876  1.0606  0.0564
10340TIP3   OH255214   3.103   0.031  11.576 -0.1662  0.8685  0.1020
10340TIP3    H155215   3.141  -0.042  11.624 -0.7827  1.4873  1.5653
10340TIP3    H255216   3.161   0.105  11.595 -1.4484  1.5595  1.4583
10341TIP3   OH255217   5.400   3.089  10.592 -0.1568 -0.3809 -0.4217
10341TIP3    H155218   5.404   3.007  10.543  0.8943 -0.9343  0.5374
10341TIP3    H255219   5.462   3.146  10.548 -0.2809 -0.3837 -0.5995
10342TIP3   OH255220   0.343   4.538  11.670  0.3486 -0.3106  0.1684
10342TIP3    H155221   0.322   4.470  11.734  1.3290  0.4062  1.3116
10342TIP3    H255222   0.348   4.619  11.722  0.1701  0.4738 -0.9948
10343TIP3   OH255223   1.138   4.782  10.541 -0.3088  0.0048  0.4083
10343TIP3    H155224   1.163   4.814  10.628 -2.1974 -0.9451  1.3687
10343TIP3    H255225   1.102   4.695  10.557 -1.3589  0.0993 -1.2208
10344TIP3   OH255226   0.673   2.742   9.059  0.6513 -0.0494  1.1104
10344TIP3    H155227   0.703   2.652   9.074 -0.4943 -0.6904 -0.1812
10344TIP3    H255228   0.686   2.756   8.965 -1.0311  0.3772  0.8942
10345TIP3   OH255229   2.558   1.969  12.291 -0.2812 -0.0585  0.1748
10345TIP3    H155230   2.478   2.020  12.282 -0.8085 -1.1851 -3.1303
10345TIP3    H255231   2.612   2.018  12.352 -1.7256  3.1312 -0.9120
10346TIP3   OH255232   3.193   3.200  11.333  0.6770  0.2556  0.1855
10346TIP3    H155233   3.135   3.124  11.322  1.1511 -0.0710 -0.0551
10346TIP3    H255234   3.209   3.203  11.427  4.0854 -2.5437 -0.1092
10347TIP3   OH255235   3.811   6.285   9.423 -0.4093  0.1361 -0.7069
10347TIP3    H155236   3.881   6.326   9.373 -1.1571  0.5449 -1.4497
10347TIP3    H255237   3.731   6.328   9.393 -0.7938  1.3835  1.8108
10348TIP3   OH255238   5.249   3.558   9.834  0.5591  0.0877 -0.4337
10348TIP3    H155239   5.342   3.551   9.857  0.0378 -0.0317  1.8778
10348TIP3    H255240   5.203   3.552   9.917 -1.5724 -0.2371 -1.5551
10349TIP3   OH255241   6.162   1.547  10.657  0.3093  0.0401  0.2751
10349TIP3    H155242   6.219   1.512  10.726 -0.1988 -0.4859  0.4385
10349TIP3    H255243   6.154   1.640  10.679  1.8019  0.3225 -0.2556
10350TIP3   OH255244   3.146   6.509  10.132  0.1804  0.0770 -0.4468
10350TIP3    H155245   3.059   6.487  10.165  0.8144 -1.3256  0.3917
10350TIP3    H255246   3.134   6.519  10.037 -0.8713 -0.2256 -0.3568
10351TIP3   OH255247   4.746   0.164  10.397  0.1384  0.1640  0.0738
10351TIP3    H155248   4.791   0.114  10.329  3.0840 -0.7708  2.5067
10351TIP3    H255249   4.658   0.125  10.400  1.7701 -3.9969  0.7534
10352TIP3   OH255250   4.950   5.399   9.146  0.3128 -0.5256  0.6227
10352TIP3    H155251   4.873   5.355   9.181  0.3619  0.7306  2.4536
10352TIP3    H255252   4.917   5.453   9.074 -0.9079  1.3338  2.4662
10353TIP3   OH255253   2.385   6.407   9.614 -0.1685  0.5323 -0.1425
10353TIP3    H155254   2.297   6.445   9.617 -0.8467 -0.8683 -1.0467
10353TIP3    H255255   2.427   6.451   9.540 -0.5071  0.4670 -0.3826
10354TIP3   OH255256   5.936   5.148  10.026  0.4748 -0.2776 -0.1021
10354TIP3    H155257   5.897   5.079   9.972 -3.0928  2.8649 -2.0151
10354TIP3    H255258   5.869   5.171  10.090  2.2534  0.3293  1.6840
10355TIP3   OH255259   4.848   0.664  10.760 -0.2656 -0.2286 -0.2160
10355TIP3    H155260   4.934   0.680  10.721  0.0107  0.7869  0.7511
10355TIP3    H255261   4.794   0.738  10.730 -0.4718 -0.2450  0.1089
10356TIP3   OH255262   3.224   4.867  10.714  0.4441  0.1725  0.4509
10356TIP3    H155263   3.151   4.908  10.668  1.2210  0.6514 -0.3946
10356TIP3    H255264   3.292   4.934  10.716  0.7958 -0.1973  1.3944
10357TIP3   OH255265   3.787   2.507  11.226 -0.1820  0.1214 -0.5125
10357TIP3    H155266   3.763   2.469  11.310  2.1529 -0.8248 -0.1865
10357TIP3    H255267   3.725   2.579  11.213 -3.1872 -2.1589  0.0497
10358TIP3   OH255268   5.324   3.614  11.246 -0.0983  0.1979  0.4514
10358TIP3    H155269   5.232   3.601  11.269  0.1924 -1.2073  0.9031
10358TIP3    H255270   5.372   3.598  11.327  0.6047  0.0112  0.0094
10359TIP3   OH255271   1.534   4.647   9.607  0.4304 -0.2861  0.0822
10359TIP3    H155272   1.583   4.723   9.576  1.8433 -1.9053 -1.9903
10359TIP3    H255273   1.485   4.617   9.530 -0.1615 -1.4253  0.8663
10360TIP3   OH255274   3.374   2.061  11.395  0.4937  0.4092 -0.7162
10360TIP3    H155275   3.365   2.013  11.477 -0.4841  0.1092 -0.9860
10360TIP3    H255276   3.462   2.097  11.397  0.5064  0.3285  0.4295
10361TIP3   OH255277   5.847   3.169  10.141  0.8938 -0.5679 -0.1878
10361TIP3    H155278   5.812   3.258  10.129 -0.1140 -0.6367  1.7796
10361TIP3    H255279   5.935   3.183  10.176  1.3343 -0.3784 -1.3243
10362TIP3   OH255280   4.801   5.521   8.929 -0.6543 -0.3194 -0.5751
10362TIP3    H155281   4.735   5.539   8.997  1.0429  0.4811  0.9282
10362TIP3    H255282   4.759   5.551   8.848 -1.8264  1.0133  0.4506
10363TIP3   OH255283   4.312   5.836   9.060 -0.4409 -0.4117 -0.3253
10363TIP3    H155284   4.252   5.852   9.132 -1.1962 -0.7960 -0.8609
10363TIP3    H255285   4.394   5.808   9.103 -1.5331 -2.8119  0.3439
10364TIP3   OH255286   0.961   6.011  10.030 -0.2906  0.2176  0.6405
10364TIP3    H155287   0.900   6.070  10.074 -1.5960  0.7062 -1.6591
10364TIP3    H255288   0.906   5.952   9.980  1.0934 -0.0931 -0.5849
10365TIP3   OH255289   1.328   2.851  10.544  0.0303 -0.6633 -0.5117
10365TIP3    H155290   1.369   2.931  10.510  0.5457  0.4760  2.4707
10365TIP3    H255291   1.340   2.786  10.474  3.2689  0.7330 -1.4318
10366TIP3   OH255292   2.734   1.058  10.700  0.2454  0.3650 -0.3033
10366TIP3    H155293   2.642   1.047  10.676  0.4943  1.2340 -1.8103
10366TIP3    H255294   2.771   0.970  10.697 -0.3589  0.1157 -0.4504
10367TIP3   OH255295   2.653   0.373  10.030  0.2824 -0.4740 -0.4426
10367TIP3    H155296   2.727   0.313  10.031  0.1694 -0.6126  0.0497
10367TIP3    H255297   2.580   0.321   9.997  0.3374 -0.4198 -0.6498
10368TIP3   OH255298   2.647   0.681   9.136 -0.2037 -0.4124  0.6979
10368TIP3    H155299   2.739   0.689   9.110 -0.6892 -0.2873 -1.1367
10368TIP3    H255300   2.640   0.593   9.174  0.3005 -1.2502 -1.0209
10369TIP3   OH255301   4.036   0.683  10.769  0.4437 -0.0000 -0.2909
10369TIP3    H155302   3.982   0.655  10.842 -1.4951 -0.3093 -1.7752
10369TIP3    H255303   4.106   0.617  10.764 -0.7298 -1.2862 -0.1660
10370TIP3   OH255304   1.165   1.887   9.853  0.3058  0.2865 -0.3094
10370TIP3    H155305   1.232   1.954   9.840  0.4313  0.3891  0.7343
10370TIP3    H255306   1.176   1.827   9.780  1.9047 -0.0014  0.1356
10371TIP3   OH255307   4.239   1.446  10.986  0.2755 -0.5470 -0.3569
10371TIP3    H155308   4.174   1.448  10.916 -0.6670 -0.0332  0.5016
10371TIP3    H255309   4.190   1.471  11.065  1.7179  0.9781  0.1271
10372TIP3   OH255310   0.942   0.343  11.870  0.1100 -0.3789  0.2789
10372TIP3    H155311   1.007   0.310  11.808 -1.3486 -1.6953 -0.6344
10372TIP3    H255312   0.858   0.316  11.833 -0.9789  1.2535  1.4161
10373TIP3   OH255313   4.696   5.301   9.730 -0.1746  0.1080 -0.0974
10373TIP3    H155314   4.721   5.214   9.701 -1.8959 -0.1707 -0.8558
10373TIP3    H255315   4.607   5.313   9.698 -0.8041  1.2795  1.9244
10374TIP3   OH255316   6.278   4.864  11.009 -0.7825  0.2413  0.7954
10374TIP3    H155317   6.326   4.900  10.934 -1.7413  1.3866  0.7127
10374TIP3    H255318   6.218   4.800  10.970 -3.5018  3.0124  0.1040
10375TIP3   OH255319   0.842   2.053  11.765 -0.5772 -0.6559  0.0020
10375TIP3    H155320   0.911   2.061  11.699 -0.0635  2.3005  0.7212
10375TIP3    H255321   0.861   2.124  11.827 -4.1054  0.1411  0.3705
10376TIP3   OH255322   5.966   6.225   9.231  0.4778 -0.0617  0.1346
10376TIP3    H155323   6.004   6.308   9.261 -0.3376  1.1655 -2.0100
10376TIP3    H255324   5.872   6.242   9.228  0.2995 -1.0768 -0.3571
10377TIP3   OH255325   5.519   6.274   9.029 -0.0267 -0.1352  0.1163
10377TIP3    H155326   5.511   6.365   8.999 -1.3071 -0.0134  0.7690
10377TIP3    H255327   5.600   6.243   8.988  0.8006  1.4933  0.4139
10378TIP3   OH255328   3.374   1.080  12.080  0.0823 -0.3419  0.0796
10378TIP3    H155329   3.332   1.018  12.020 -0.1957  1.0845 -1.2531
10378TIP3    H255330   3.467   1.056  12.077  0.2156  0.2532 -1.6484
10379TIP3   OH255331   2.019   1.369   9.750  0.2162 -0.1030  0.0607
10379TIP3    H155332   1.984   1.432   9.687 -0.7311 -0.5590  0.1122
10379TIP3    H255333   1.971   1.288   9.732  0.7700 -0.5604  0.5978
10380TIP3   OH255334   3.210   2.838  12.597  0.0734  0.7898  0.3873
10380TIP3    H155335   3.145   2.782  12.638  3.3865 -1.6892  2.7011
10380TIP3    H255336   3.199   2.923  12.639 -0.7911  0.0511  1.6942
10381TIP3   OH255337   4.821   0.763  11.044 -0.2985  0.1106  0.2323
10381TIP3    H155338   4.736   0.719  11.044  0.2152 -0.9090  0.7428
10381TIP3    H255339   4.866   0.729  10.966 -1.0512  2.1031 -1.1632
10382TIP3   OH255340   1.344   4.293  11.684  0.5060 -0.0422 -0.7358
10382TIP3    H155341   1.414   4.354  11.707  0.9233 -1.3749  1.9464
10382TIP3    H255342   1.285   4.294  11.759 -0.5889 -1.3808 -1.5278
10383TIP3   OH255343   1.457   0.374   9.080  0.4665 -0.0017 -0.5192
10383TIP3    H155344   1.445   0.286   9.045 -1.8394  0.8243 -2.0480
10383TIP3    H255345   1.534   0.408   9.033  0.5656 -0.7478 -0.9099
10384TIP3   OH255346   0.347   6.481   9.699  0.4582  0.4860  0.0850
10384TIP3    H155347   0.437   6.499   9.724  1.2341 -1.9488 -0.6545
10384TIP3    H255348   0.297   6.486   9.780  1.3133  1.5190  0.5610
10385TIP3   OH255349   0.734   4.764  10.263  0.1710  0.0761 -0.4737
10385TIP3    H155350   0.683   4.683  10.256  0.1692 -0.0019  0.2950
10385TIP3    H255351   0.791   4.763  10.187  0.8699 -1.1484  0.0319
10386TIP3   OH255352   0.083   3.444   8.793  0.3926  0.4944 -0.6164
10386TIP3    H155353   0.008   3.503   8.796 -0.8364 -1.0440  0.9201
10386TIP3    H255354   0.133   3.464   8.872 -0.1393 -0.5953  0.0233
10387TIP3   OH255355   4.501   4.954   9.209 -0.0899  0.6036 -0.0329
10387TIP3    H155356   4.459   4.918   9.132  0.4692 -0.4354  0.1214
10387TIP3    H255357   4.594   4.958   9.186  0.1702 -0.3412  0.8048
10388TIP3   OH255358   2.917   2.051   9.969 -0.3227  0.5224 -0.0207
10388TIP3    H155359   2.923   2.031   9.875 -1.2287 -1.0063  0.2090
10388TIP3    H255360   3.003   2.025  10.004 -0.5828 -0.6087 -0.1663
10389TIP3   OH255361   0.810   5.868  11.363  0.0335  0.3174 -0.5478
10389TIP3    H155362   0.775   5.783  11.336 -0.0871  0.7491 -1.8088
10389TIP3    H255363   0.854   5.902  11.285  0.5242  1.1887  0.0918
10390TIP3   OH255364   1.843   6.334   9.361 -0.0756  0.0582 -0.1461
10390TIP3    H155365   1.905   6.264   9.381 -0.6340 -1.0392 -2.0223
10390TIP3    H255366   1.878   6.377   9.283 -0.7002  0.6767 -0.1027
10391TIP3   OH255367   2.375   0.632   8.788  0.0397  0.5451  0.1002
10391TIP3    H155368   2.411   0.717   8.811 -0.0762  0.3102  1.2242
10391TIP3    H255369   2.447   0.571   8.801  0.3734  0.5445 -1.5084
10392TIP3   OH255370   3.288   0.216  11.722  0.1442  0.0571  0.2723
10392TIP3    H155371   3.320   0.163  11.795  1.2897  0.6270  0.2136
10392TIP3    H255372   3.292   0.306  11.755  0.5402  0.3060 -0.4335
10393TIP3   OH255373   2.880   1.117  11.515 -0.0313  0.2163  0.4218
10393TIP3    H155374   2.852   1.096  11.426  1.7675  1.5732 -0.5156
10393TIP3    H255375   2.947   1.051  11.535  1.2177  1.2846 -0.1504
10394TIP3   OH255376   2.900   5.716  10.664  0.3272  0.2546 -0.2532
10394TIP3    H155377   2.982   5.759  10.689  1.4740 -2.2258  0.6242
10394TIP3    H255378   2.928   5.640  10.613 -1.5399  0.1210 -1.1548
10395TIP3   OH255379   3.916   3.311  10.908  0.1517  0.4969  0.5138
10395TIP3    H155380   3.886   3.373  10.842 -0.6495 -0.7387 -0.3245
10395TIP3    H255381   3.843   3.304  10.969 -1.2078 -2.0597 -1.2035
10396TIP3   OH255382   0.809   4.687   9.877 -0.3365  0.7067 -0.0363
10396TIP3    H155383   0.889   4.694   9.825  0.1806  0.1372  0.6681
10396TIP3    H255384   0.823   4.748   9.950 -0.5603  0.6268  0.0728
10397TIP3   OH255385   2.778   6.558  11.476 -0.1740 -0.6215 -0.0916
10397TIP3    H155386   2.812   6.630  11.529  0.8312 -0.4692 -0.9120
10397TIP3    H255387   2.727   6.600  11.408 -1.5624 -0.8231  0.7731
10398TIP3   OH255388   2.959   0.650   9.727 -0.4160  0.8331 -0.5335
10398TIP3    H155389   2.880   0.704   9.732 -0.7145  0.3403  0.1435
10398TIP3    H255390   2.966   0.626   9.635 -1.5248  0.1884 -0.4676
10399TIP3   OH255391   3.707   6.704  11.593  0.2412 -0.2813 -0.1544
10399TIP3    H155392   3.641   6.763  11.557 -0.6965 -1.7047 -0.8946
10399TIP3    H255393   3.678   6.688  11.683  1.5608  1.8201  0.7169
10400TIP3   OH255394   2.568   0.290   9.454 -0.1136 -0.3487 -0.2123
10400TIP3    H155395   2.580   0.336   9.537  1.6019 -0.4018 -0.3825
10400TIP3    H255396   2.604   0.350   9.388 -0.2115 -0.8695 -0.7456
10401TIP3   OH255397   1.531   5.440   9.525  0.2046  0.3880 -0.2026
10401TIP3    H155398   1.573   5.445   9.611  0.5150  0.3958 -0.3519
10401TIP3    H255399   1.604   5.431   9.464 -0.0358  0.0196 -0.4355
10402TIP3   OH255400   2.437   0.476  10.389 -0.0691  0.2582 -0.3328
10402TIP3    H155401   2.473   0.541  10.328  0.3071  0.7341  0.3908
10402TIP3    H255402   2.509   0.456  10.448 -0.5482  0.0769  0.1967
10403TIP3   OH255403   0.463   3.222  10.085 -0.4431 -0.1063 -0.2489
10403TIP3    H155404   0.490   3.298  10.034 -1.7254  1.5207  1.3702
10403TIP3    H255405   0.380   3.194  10.045 -0.0620 -0.5600 -0.7328
10404TIP3   OH255406   0.298   0.927   9.032 -0.2739 -0.0767 -0.0460
10404TIP3    H155407   0.260   0.859   8.976 -0.3164  1.0295 -1.4145
10404TIP3    H255408   0.243   1.004   9.017  1.9216  1.3229 -1.4508
10405TIP3   OH255409   4.975   2.787   8.529 -0.2464  0.3743 -0.0954
10405TIP3    H155410   5.034   2.813   8.459 -0.2569  1.1231  0.1643
10405TIP3    H255411   4.913   2.860   8.537 -1.9845 -0.9083 -1.1851
10406TIP3   OH255412   5.076   5.235  10.698 -0.0230 -0.7872  0.0828
10406TIP3    H155413   5.093   5.257  10.790 -0.6926 -0.9615  0.2519
10406TIP3    H255414   5.111   5.146  10.688  0.4008 -0.6196  0.0657
10407TIP3   OH255415   4.108   4.319  11.128 -0.0825  0.6969  0.2691
10407TIP3    H155416   4.153   4.272  11.057  0.3858  0.3890  0.7659
10407TIP3    H255417   4.079   4.251  11.188 -1.7484  0.8418 -0.3196
10408TIP3   OH255418   4.685   3.470   9.156 -0.5957  0.7464  0.1818
10408TIP3    H155419   4.614   3.434   9.102  0.4774 -2.5235  0.7669
10408TIP3    H255420   4.666   3.440   9.244  1.6084 -0.4301  0.3131
10409TIP3   OH255421   2.103   3.387  10.725  0.2617  0.4612 -0.2386
10409TIP3    H155422   2.083   3.330  10.800  1.3290  1.9710  1.2749
10409TIP3    H255423   2.027   3.444  10.718 -0.5004 -0.6241 -1.3169
10410TIP3   OH255424   3.160   3.088  10.204  0.0089 -0.6472  0.4664
10410TIP3    H155425   3.174   3.027  10.132 -3.0265 -1.0827  0.1225
10410TIP3    H255426   3.210   3.166  10.179 -0.9628 -0.7624 -2.1694
10411TIP3   OH255427   0.068   2.565  10.968  0.3350 -0.3308  0.4240
10411TIP3    H155428   0.052   2.651  10.928  0.1819 -1.1480 -1.3977
10411TIP3    H255429  -0.002   2.510  10.935  1.9002 -1.8023 -0.6529
10412TIP3   OH255430   1.637   5.623   8.513 -0.4053  0.5924 -0.0699
10412TIP3    H155431   1.661   5.544   8.563 -1.1088  0.8907  0.7648
10412TIP3    H255432   1.551   5.603   8.476  0.1311  0.3536 -1.2493
10413TIP3   OH255433   2.260   2.319  11.225  0.1759 -0.3337 -0.0096
10413TIP3    H155434   2.184   2.274  11.188  0.0833 -0.6291  0.5367
10413TIP3    H255435   2.335   2.277  11.184  0.0782 -0.7503  0.2322
10414TIP3   OH255436   3.633   1.443   8.684 -0.1676 -0.2566  0.8017
10414TIP3    H155437   3.543   1.411   8.674  0.0469 -1.3632  2.0164
10414TIP3    H255438   3.687   1.371   8.652  0.2913  0.2265  0.4852
10415TIP3   OH255439   5.088   5.534  11.166  0.3170  0.5097 -0.8177
10415TIP3    H155440   5.106   5.628  11.171  0.7432  0.3777  0.4229
10415TIP3    H255441   5.091   5.515  11.072 -1.5935  2.0505 -1.2621
10416TIP3   OH255442   6.264   5.282   8.607 -0.4906 -0.3344 -0.3649
10416TIP3    H155443   6.170   5.286   8.625 -0.4578 -0.1611 -0.2285
10416TIP3    H255444   6.271   5.282   8.512 -0.5644  1.2280 -0.3882
10417TIP3   OH255445   2.630   3.809  10.106 -0.0731  0.2837 -0.5671
10417TIP3    H155446   2.681   3.749  10.161  0.3213  0.0670 -1.1557
10417TIP3    H255447   2.690   3.879  10.084  0.0279 -0.0444 -1.3825
10418TIP3   OH255448   0.398   2.408  11.261  0.6699  0.2038 -0.1356
10418TIP3    H155449   0.353   2.390  11.179 -0.0691  0.0819  0.2823
10418TIP3    H255450   0.422   2.501  11.255  0.0730  0.3587 -0.2413
10419TIP3   OH255451   6.776   2.396   9.776 -0.0460 -0.1031  0.1129
10419TIP3    H155452   6.867   2.424   9.768  0.1542 -0.9192 -0.7305
10419TIP3    H255453   6.731   2.470   9.817  1.0440  0.1978  0.8039
10420TIP3   OH255454   4.522   5.516   9.437 -0.5388  0.1153 -0.3674
10420TIP3    H155455   4.536   5.430   9.396 -1.2323 -0.0489 -0.2830
10420TIP3    H255456   4.601   5.565   9.419  1.2757 -1.5780  2.2575
10421TIP3   OH255457   3.933   5.256   9.665 -0.0572 -0.6716  0.4234
10421TIP3    H155458   3.965   5.191   9.602  0.5416 -0.0555  0.0715
10421TIP3    H255459   4.006   5.268   9.725  0.0894  0.1516  0.0962
10422TIP3   OH255460   3.404   3.301  11.165 -0.4474  0.2896  0.1355
10422TIP3    H155461   3.341   3.264  11.227 -0.6310  0.9367  0.3316
10422TIP3    H255462   3.396   3.395  11.175  0.0745  0.3865 -0.3243
10423TIP3   OH255463   3.859   5.112   8.844 -0.1738 -0.2273 -0.1573
10423TIP3    H155464   3.896   5.048   8.784  1.2799 -0.0645  0.5079
10423TIP3    H255465   3.787   5.067   8.887  0.7213 -1.3653  0.1813
10424TIP3   OH255466   0.132   2.028  11.299  0.1773 -0.1047  0.1581
10424TIP3    H155467   0.217   2.016  11.342 -0.4723 -0.7163  1.3154
10424TIP3    H255468   0.073   2.053  11.369 -0.1450  2.6784 -0.9987
10425TIP3   OH255469   1.179   1.054   9.720 -0.2718  0.1764 -0.7040
10425TIP3    H155470   1.156   1.104   9.642 -0.4623 -0.5579 -1.1202
10425TIP3    H255471   1.272   1.035   9.710 -0.4866 -0.6528 -1.1743
10426TIP3   OH255472   0.411   5.982  10.679  0.5197  0.2815  0.0341
10426TIP3    H155473   0.482   5.923  10.652  1.1307  0.4039  1.3107
10426TIP3    H255474   0.407   5.971  10.774  0.2588  1.8781  0.2205
10427TIP3   OH255475   2.808   4.279  12.027  0.1793  0.0465  0.3354
10427TIP3    H155476   2.878   4.252  11.968 -0.2607 -1.3047  0.4041
10427TIP3    H255477   2.727   4.254  11.982 -0.2226  0.4035  0.8374
10428TIP3   OH255478   4.312   5.774  10.014  0.3455 -0.1065 -0.0246
10428TIP3    H155479   4.402   5.785   9.982  0.3573  2.1938  0.5829
10428TIP3    H255480   4.318   5.786  10.109 -0.6802  0.9973 -0.0648
10429TIP3   OH255481   5.841   4.156   9.954  0.4197 -0.3284 -0.0299
10429TIP3    H155482   5.847   4.085   9.890  0.5656  0.0175 -0.4056
10429TIP3    H255483   5.925   4.202   9.946 -0.1430  0.6067 -0.6477
10430TIP3   OH255484   2.311   6.481  12.351 -0.1871 -0.4058  0.3542
10430TIP3    H155485   2.327   6.575  12.355  0.4537 -0.5031  0.2219
10430TIP3    H255486   2.296   6.456  12.442  0.2300 -0.2682  0.4654
10431TIP3   OH255487   2.486   3.789  13.202 -0.2821 -0.1700 -0.0934
10431TIP3    H155488   2.527   3.817  13.120 -0.8390 -1.3871 -0.8209
10431TIP3    H255489   2.393   3.780  13.180 -0.5515  0.2198  0.8762
10432TIP3   OH255490   3.545   0.515   9.973  0.4316  0.2157 -0.4689
10432TIP3    H155491   3.544   0.457   9.896  0.2482  0.8858 -0.9830
10432TIP3    H255492   3.635   0.547   9.978  0.8600 -1.0515  0.5552
10433TIP3   OH255493   5.747   6.424  10.853  0.2347  0.1313  0.2208
10433TIP3    H155494   5.781   6.377  10.777  2.4279 -0.3713  1.4248
10433TIP3    H255495   5.758   6.517  10.831  1.1571 -0.0156  0.0419
10434TIP3   OH255496   3.905   4.306  11.489  0.2872 -0.6436 -0.2744
10434TIP3    H155497   3.930   4.380  11.435 -1.9014  0.5142  0.1736
10434TIP3    H255498   3.943   4.230  11.445  1.9130  0.6413 -1.1824
10435TIP3   OH255499   0.615   5.805  10.469  0.3384 -0.2425 -0.0464
10435TIP3    H155500   0.631   5.826  10.376 -2.3490  3.0138  0.0265
10435TIP3    H255501   0.545   5.740  10.467 -0.5994  0.7444 -0.3670
10436TIP3   OH255502   2.675   0.456  10.573  0.4001 -0.2004 -0.5097
10436TIP3    H155503   2.759   0.433  10.534 -0.1773 -1.1239 -1.2568
10436TIP3    H255504   2.649   0.378  10.623  0.6144  0.5718  0.8516
10437TIP3   OH255505   5.824   4.151   9.637  0.2625  0.1645  0.6746
10437TIP3    H155506   5.917   4.173   9.639  0.6637 -1.2666 -0.3668
10437TIP3    H255507   5.779   4.233   9.653  1.6676  1.3050 -0.8967
10438TIP3   OH255508   4.755   1.484   8.663  0.0450 -0.4930  0.2251
10438TIP3    H155509   4.763   1.546   8.591 -0.4139  1.1394  1.5094
10438TIP3    H255510   4.668   1.500   8.699  0.7494 -0.3105  1.9491
10439TIP3   OH255511   2.236   0.385  12.353 -0.5507 -0.4109 -0.4858
10439TIP3    H155512   2.185   0.331  12.412  1.1457 -1.2904  0.2451
10439TIP3    H255513   2.313   0.411  12.404 -0.8231  1.9077 -1.1268
   6.79724   6.79724  30.00000
