Title
55513
    1DOPE     N    1   3.401   2.971   8.886 -0.1283  0.3421 -0.2804
    1DOPE   HN1    2   3.378   3.010   8.980 -0.3173  2.4843 -1.1501
    1DOPE   HN2    3   3.433   2.873   8.900  0.0307  0.2465 -1.2409
    1DOPE   HN3    4   3.481   3.021   8.841  1.6361 -2.5244 -0.5704
    1DOPE   C12    5   3.298   2.952   8.785  0.2969  0.5228  0.0272
    1DOPE  H12A    6   3.210   3.011   8.818 -0.9279 -0.2115 -1.7494
    1DOPE  H12B    7   3.279   2.843   8.769 -1.0801  0.8502 -0.6406
    1DOPE   C11    8   3.352   3.006   8.649  0.4521  0.2399 -0.0093
    1DOPE  H11A    9   3.277   2.976   8.573 -0.7689  1.3239  0.7422
    1DOPE  H11B   10   3.446   2.954   8.618 -0.0454 -1.3612  1.0650
    1DOPE     P   11   3.282   3.246   8.582  0.6033 -0.0319  0.0280
    1DOPE   O13   12   3.269   3.378   8.648  0.1787  0.1446  0.5829
    1DOPE   O14   13   3.154   3.181   8.549 -0.6505  0.4846 -0.4390
    1DOPE   O11   14   3.362   3.255   8.446 -0.1817  0.2580 -0.2934
    1DOPE   O12   15   3.366   3.143   8.662 -0.7219  0.2380 -0.1629
    1DOPE    C1   16   3.505   3.278   8.449  0.1628  0.3195  0.1549
    1DOPE    HA   17   3.568   3.233   8.529  0.1961 -0.7428 -0.4478
    1DOPE    HB   18   3.527   3.387   8.451 -1.4779  0.6688  0.3485
    1DOPE    C2   19   3.568   3.228   8.314 -0.3400  0.7471 -0.5647
    1DOPE    HS   20   3.677   3.247   8.313 -0.2800  1.1186  2.5488
    1DOPE   O21   21   3.500   3.284   8.197  0.0125  0.1592 -0.4554
    1DOPE   C21   22   3.541   3.403   8.171  0.1433  0.5090 -0.0025
    1DOPE   O22   23   3.627   3.462   8.233  0.1034  0.2844  0.3758
    1DOPE   C22   24   3.474   3.467   8.049 -0.1672  0.5618 -0.2760
    1DOPE   H2R   25   3.375   3.506   8.080 -1.2344 -1.3230 -1.1570
    1DOPE   H2S   26   3.456   3.381   7.981  2.6366 -1.0001  0.7755
    1DOPE    C3   27   3.548   3.070   8.305  0.4044 -0.0076  0.7751
    1DOPE    HX   28   3.443   3.036   8.318  0.2696 -0.5403 -1.3802
    1DOPE    HY   29   3.608   3.027   8.388  1.1391  0.3308  0.4281
    1DOPE   O31   30   3.602   3.018   8.177 -0.1886 -0.0017  0.5980
    1DOPE   C31   31   3.515   3.009   8.081  0.9181  0.0145  0.0446
    1DOPE   O32   32   3.393   3.015   8.094 -1.0905  0.2812 -0.6581
    1DOPE   C32   33   3.592   3.000   7.945  0.1863 -0.3638  0.2318
    1DOPE   H2X   34   3.668   3.078   7.923 -0.4373  0.1142 -0.2686
    1DOPE   H2Y   35   3.641   2.900   7.947 -3.7323 -2.5020  2.4294
    1DOPE   C23   36   3.569   3.562   7.972 -0.2276  0.7077  0.1183
    1DOPE   H3R   37   3.581   3.659   8.025  1.6175  0.8269 -0.4368
    1DOPE   H3S   38   3.514   3.587   7.879 -0.8053  0.5356  0.4082
    1DOPE   C24   39   3.696   3.511   7.901 -0.0900  0.2293 -0.3460
    1DOPE   H4R   40   3.780   3.493   7.973 -1.0303  0.9367  0.9675
    1DOPE   H4S   41   3.730   3.597   7.841  0.1696  0.0408 -0.4742
    1DOPE   C25   42   3.675   3.381   7.812 -0.8526  0.2946  0.3380
    1DOPE   H5R   43   3.586   3.394   7.746 -0.6717 -0.0353  0.0233
    1DOPE   H5S   44   3.674   3.302   7.891  0.2677  2.6984  2.9237
    1DOPE   C26   45   3.788   3.339   7.715 -0.2133 -0.4250 -0.6023
    1DOPE   H6R   46   3.762   3.239   7.674  0.1212 -1.8285  2.3570
    1DOPE   H6S   47   3.878   3.313   7.775 -0.0318  2.5187  0.5654
    1DOPE   C27   48   3.825   3.443   7.614 -0.3924  0.1546  0.3816
    1DOPE   H7R   49   3.873   3.531   7.660 -1.3055  0.7974  0.1328
    1DOPE   H7S   50   3.734   3.483   7.564  0.4228  2.5224  0.6622
    1DOPE   C28   51   3.926   3.398   7.506  0.3082  0.4570 -0.2451
    1DOPE   H8R   52   3.886   3.301   7.469  1.2540 -0.0719  0.0894
    1DOPE   H8S   53   4.022   3.369   7.554 -0.0894  0.6027  0.6442
    1DOPE   C29   54   3.964   3.493   7.396 -0.0376 -0.3017 -0.0172
    1DOPE   H9R   55   3.971   3.597   7.430  2.4971  0.1384 -1.6155
    1DOPE  C210   56   3.981   3.463   7.266  0.4135  0.1404 -0.2505
    1DOPE  H10R   57   3.995   3.550   7.200  2.9719 -0.0877 -0.1285
    1DOPE  C211   58   3.950   3.336   7.195  0.0603  0.3006 -0.0533
    1DOPE  H11R   59   3.912   3.259   7.265  0.0001 -0.9312 -1.4091
    1DOPE  H11S   60   4.041   3.291   7.150 -0.6862 -0.8180 -0.4750
    1DOPE  C212   61   3.838   3.353   7.091  0.3800 -0.5387  0.3074
    1DOPE  H12R   62   3.875   3.428   7.018  2.5309 -0.4422  1.4229
    1DOPE  H12S   63   3.742   3.388   7.133 -0.2469  0.0358 -1.5181
    1DOPE  C213   64   3.809   3.220   7.018  0.5544  0.1584  0.1941
    1DOPE  H13R   65   3.785   3.145   7.097  0.5741 -1.9426 -1.7186
    1DOPE  H13S   66   3.891   3.178   6.956 -0.1487  1.9207 -2.0403
    1DOPE  C214   67   3.683   3.227   6.933 -0.2276 -0.1087 -0.7252
    1DOPE  H14R   68   3.602   3.258   7.002  1.4235 -0.1236  1.2987
    1DOPE  H14S   69   3.670   3.122   6.900  0.6846 -0.9405  1.4214
    1DOPE  C215   70   3.703   3.327   6.815  0.4047  0.1805  0.3937
    1DOPE  H15R   71   3.812   3.333   6.797 -0.0009  0.8242 -2.2610
    1DOPE  H15S   72   3.653   3.418   6.855  1.5902  0.3681  1.5121
    1DOPE  C216   73   3.631   3.284   6.688 -0.7304  0.2212  0.3072
    1DOPE  H16R   74   3.598   3.178   6.691  1.6343 -0.5496  0.5533
    1DOPE  H16S   75   3.700   3.292   6.602 -1.8211  1.9419 -0.4597
    1DOPE  C217   76   3.501   3.350   6.657 -1.2131  0.3261  0.2699
    1DOPE  H17R   77   3.507   3.459   6.675  0.5671  0.2589  0.2387
    1DOPE  H17S   78   3.416   3.308   6.716  0.5812 -1.2775  1.8422
    1DOPE  C218   79   3.465   3.335   6.506  0.3822  0.2393  0.2738
    1DOPE  H18R   80   3.367   3.377   6.475  0.0717 -0.7987 -0.2015
    1DOPE  H18S   81   3.447   3.227   6.487  0.2317  0.1578  0.8827
    1DOPE  H18T   82   3.543   3.379   6.439  0.5191 -1.0341 -0.4275
    1DOPE   C33   83   3.495   3.012   7.823 -0.1775 -0.3174 -0.6055
    1DOPE   H3X   84   3.445   3.110   7.816  1.4490  0.5030 -1.2421
    1DOPE   H3Y   85   3.414   2.937   7.837  0.7114 -1.0768  0.7768
    1DOPE   C34   86   3.559   2.983   7.695 -0.3188 -0.5208  0.6418
    1DOPE   H4X   87   3.646   3.050   7.676  0.5008 -1.6884  0.1519
    1DOPE   H4Y   88   3.596   2.878   7.690  1.8679  0.2725 -2.6194
    1DOPE   C35   89   3.457   3.001   7.581 -0.2853  0.2664 -0.2219
    1DOPE   H5X   90   3.435   3.110   7.576  1.6795  0.7482  0.6009
    1DOPE   H5Y   91   3.364   2.943   7.602  0.4007 -1.0061 -0.6108
    1DOPE   C36   92   3.523   2.948   7.459  0.3581 -0.1874 -0.0300
    1DOPE   H6X   93   3.530   2.837   7.454  0.1997 -0.1890 -0.2120
    1DOPE   H6Y   94   3.629   2.979   7.462  1.0219 -2.2590 -0.3904
    1DOPE   C37   95   3.441   2.989   7.334  0.3232  0.5721 -0.0722
    1DOPE   H7X   96   3.339   2.947   7.338  0.9015 -0.8099  1.9395
    1DOPE   H7Y   97   3.442   3.100   7.335  0.9746  0.5753 -0.1522
    1DOPE   C38   98   3.529   2.944   7.211  0.6668 -0.4305  0.2372
    1DOPE   H8X   99   3.521   2.833   7.208 -0.0095 -0.3674 -0.5333
    1DOPE   H8Y  100   3.635   2.979   7.211  0.6019 -0.2153 -0.6333
    1DOPE   C39  101   3.453   2.998   7.091 -0.6976  0.0736 -0.0904
    1DOPE   H9X  102   3.474   3.104   7.071  1.0778  0.2939  2.3903
    1DOPE  C310  103   3.357   2.936   7.019  0.0984 -0.2175  0.0961
    1DOPE  H10X  104   3.318   2.994   6.934  0.6710 -2.0943 -1.5199
    1DOPE  C311  105   3.299   2.802   7.044  0.2374  0.3822  0.5819
    1DOPE  H11X  106   3.338   2.739   6.961  0.3805 -0.8536  1.5549
    1DOPE  H11Y  107   3.342   2.754   7.134 -0.8007  2.0178  1.9985
    1DOPE  C312  108   3.141   2.799   7.051 -0.4921 -0.3732  0.5571
    1DOPE  H12X  109   3.115   2.897   7.008  1.9161  0.3302  0.5235
    1DOPE  H12Y  110   3.103   2.784   7.154 -0.6749 -0.7211  0.4387
    1DOPE  C313  111   3.078   2.683   6.967  0.2200  0.3334 -0.0082
    1DOPE  H13X  112   3.121   2.673   6.865 -1.9821  3.9087 -1.4850
    1DOPE  H13Y  113   3.106   2.591   7.023  2.4436  0.6153 -0.5326
    1DOPE  C314  114   2.921   2.690   6.961 -0.5920  0.0858  0.0077
    1DOPE  H14X  115   2.883   2.771   6.897  1.0269  1.0872  0.2565
    1DOPE  H14Y  116   2.883   2.695   7.066 -0.3742  0.7293  0.0574
    1DOPE  C315  117   2.869   2.564   6.885  0.3758  0.2354  0.9454
    1DOPE  H15X  118   2.880   2.478   6.954  2.7150 -0.7302 -0.5161
    1DOPE  H15Y  119   2.924   2.552   6.790 -1.7765  0.7708 -0.4471
    1DOPE  C316  120   2.721   2.591   6.854  0.0681  0.6705  0.3872
    1DOPE  H16X  121   2.719   2.686   6.798  0.5845  0.0245 -0.7623
    1DOPE  H16Y  122   2.672   2.603   6.953 -1.2295 -0.7312 -0.0384
    1DOPE  C317  123   2.655   2.483   6.757  0.4713 -0.5833 -0.1159
    1DOPE  H17X  124   2.716   2.481   6.664 -0.7615 -0.6230 -0.9400
    1DOPE  H17Y  125   2.661   2.386   6.811 -1.3899 -0.3948  0.5075
    1DOPE  C318  126   2.509   2.510   6.729  0.2925  0.3117  0.0821
    1DOPE  H18X  127   2.489   2.608   6.680  2.0187  0.3509 -0.6240
    1DOPE  H18Y  128   2.479   2.425   6.663  1.7067  0.4362 -0.7786
    1DOPE  H18Z  129   2.455   2.493   6.824 -0.5394  1.8951 -0.0744
    2DOPE     N  130   3.441   4.050   8.041  0.1266 -0.6366 -0.2283
    2DOPE   HN1  131   3.358   4.053   7.978 -1.2372  1.5692  1.5408
    2DOPE   HN2  132   3.415   4.029   8.140  1.5709  1.6132  0.6951
    2DOPE   HN3  133   3.472   4.149   8.047  0.6840 -0.7886 -0.5951
    2DOPE   C12  134   3.556   3.985   7.974 -0.3043  0.7813  0.7602
    2DOPE  H12A  135   3.585   4.047   7.886  1.6521 -1.4669 -0.3237
    2DOPE  H12B  136   3.531   3.886   7.931  2.6350  0.2815 -0.0222
    2DOPE   C11  137   3.658   3.957   8.077  0.1984  0.9310  0.3416
    2DOPE  H11A  138   3.737   3.902   8.021 -1.1621 -0.5662 -0.1787
    2DOPE  H11B  139   3.616   3.895   8.159  2.4826 -1.3325 -0.0780
    2DOPE     P  140   3.807   4.099   8.238 -0.5694  0.0043 -0.4687
    2DOPE   O13  141   3.725   4.085   8.361 -0.3098 -0.1463 -0.5695
    2DOPE   O14  142   3.892   4.217   8.222 -0.1765  0.4832  0.7868
    2DOPE   O11  143   3.898   3.971   8.241 -1.0263 -0.9053  0.3366
    2DOPE   O12  144   3.710   4.081   8.115 -0.2800 -0.5515  0.1105
    2DOPE    C1  145   4.034   3.974   8.294 -0.9983  0.0060  0.0823
    2DOPE    HA  146   4.060   3.878   8.343  3.9332  0.5586 -0.9013
    2DOPE    HB  147   4.049   4.054   8.370 -4.3608  0.9395 -0.0788
    2DOPE    C2  148   4.138   3.985   8.176  0.5613 -0.1536 -0.3979
    2DOPE    HS  149   4.156   4.090   8.147  1.3574 -0.5297 -1.3222
    2DOPE   O21  150   4.097   3.910   8.056  0.1166 -0.4924  0.5042
    2DOPE   C21  151   4.033   3.985   7.964  0.8486 -0.0830  0.2460
    2DOPE   O22  152   4.007   4.104   7.968 -0.3644 -0.0616 -0.4084
    2DOPE   C22  153   4.020   3.890   7.843  0.6045  0.0406 -0.4218
    2DOPE   H2R  154   3.963   3.800   7.874  2.3149 -0.7163  0.7310
    2DOPE   H2S  155   4.123   3.851   7.823 -0.2674 -4.0819  1.8662
    2DOPE    C3  156   4.275   3.926   8.213 -0.0534 -0.7476  0.3308
    2DOPE    HX  157   4.270   3.818   8.236 -0.4612 -0.7878  0.0739
    2DOPE    HY  158   4.305   3.981   8.305 -0.8169 -1.5784  1.0917
    2DOPE   O31  159   4.364   3.964   8.112  0.5820 -0.4518 -0.1328
    2DOPE   C31  160   4.462   3.887   8.082  0.5513 -0.0701  0.5006
    2DOPE   O32  161   4.477   3.768   8.111 -0.3360 -0.3605 -0.1151
    2DOPE   C32  162   4.544   3.956   7.979 -0.6706 -0.1140  0.5739
    2DOPE   H2X  163   4.482   4.020   7.912 -0.0058  0.8793  0.8836
    2DOPE   H2Y  164   4.618   4.026   8.024 -1.9634  0.3993  1.9841
    2DOPE   C23  165   3.956   3.965   7.716 -0.5018  0.0959  0.5545
    2DOPE   H3R  166   4.009   4.062   7.706 -0.4851  0.2317  1.8218
    2DOPE   H3S  167   3.848   3.976   7.738 -0.5669  4.4691 -0.9527
    2DOPE   C24  168   3.964   3.885   7.584  0.3376  0.6614 -0.6565
    2DOPE   H4R  169   3.913   3.788   7.606 -1.1223  2.1628  3.7964
    2DOPE   H4S  170   4.070   3.878   7.553  0.3830  0.6146 -0.4942
    2DOPE   C25  171   3.886   3.968   7.466 -0.4400 -0.0616  0.3385
    2DOPE   H5R  172   3.930   4.070   7.456 -0.5922  0.1583  1.7631
    2DOPE   H5S  173   3.778   3.989   7.485 -0.7605 -0.0745 -1.3005
    2DOPE   C26  174   3.887   3.904   7.321  0.7734 -0.4429 -0.2966
    2DOPE   H6R  175   3.830   3.809   7.332 -0.2553  0.2961  1.3464
    2DOPE   H6S  176   3.993   3.875   7.307  0.6842 -0.2378 -1.5131
    2DOPE   C27  177   3.835   3.989   7.198  0.0130 -0.6609  0.8975
    2DOPE   H7R  178   3.873   4.093   7.205  1.2728 -1.1025  1.0118
    2DOPE   H7S  179   3.724   3.986   7.201  0.0087 -0.1602  1.4091
    2DOPE   C28  180   3.890   3.935   7.065 -0.3237  0.6430 -0.2508
    2DOPE   H8R  181   4.000   3.916   7.065 -0.7454 -3.1422  2.8611
    2DOPE   H8S  182   3.868   4.013   6.989 -0.6253 -0.0171 -0.8518
    2DOPE   C29  183   3.809   3.813   7.018 -0.7573  0.3809 -0.3270
    2DOPE   H9R  184   3.708   3.794   7.056 -0.3018  0.8798  1.1831
    2DOPE  C210  185   3.858   3.730   6.925  0.7698  0.2361  0.7031
    2DOPE  H10R  186   3.804   3.638   6.898  2.5827 -0.6310 -0.1686
    2DOPE  C211  187   3.983   3.757   6.848  0.3003 -0.4343 -0.5508
    2DOPE  H11R  188   4.040   3.662   6.847  0.3054 -0.4419  0.1663
    2DOPE  H11S  189   4.052   3.834   6.889 -1.0795 -0.0050  1.0483
    2DOPE  C212  190   3.961   3.816   6.708  0.1107  0.1067  1.0576
    2DOPE  H12R  191   4.045   3.873   6.663 -0.4388 -1.0355 -1.6067
    2DOPE  H12S  192   3.899   3.909   6.711  2.4599  1.7908  0.2479
    2DOPE  C213  193   3.918   3.719   6.601 -0.1945 -0.8353  0.8356
    2DOPE  H13R  194   3.814   3.681   6.612 -1.3736  1.5107 -1.3329
    2DOPE  H13S  195   3.986   3.631   6.593  0.5615 -0.1292 -1.0585
    2DOPE  C214  196   3.924   3.775   6.457 -1.0559  0.1070 -1.0385
    2DOPE  H14R  197   4.028   3.799   6.427 -0.6404  1.9646  1.5087
    2DOPE  H14S  198   3.872   3.873   6.459  0.0581  0.7083 -0.5825
    2DOPE  C215  199   3.859   3.679   6.359  0.5076  0.4433 -1.3639
    2DOPE  H15R  200   3.768   3.642   6.411  1.6190  1.5546  1.5461
    2DOPE  H15S  201   3.925   3.590   6.347  1.6498  0.5430  2.7785
    2DOPE  C216  202   3.818   3.725   6.221 -0.4300  0.0396 -0.6052
    2DOPE  H16R  203   3.767   3.638   6.173 -1.5111 -0.3916  1.2215
    2DOPE  H16S  204   3.918   3.737   6.176 -0.0586 -1.0221 -0.1091
    2DOPE  C217  205   3.736   3.858   6.208 -0.8745 -0.4356  0.0340
    2DOPE  H17R  206   3.676   3.873   6.300  0.0116  1.7198  0.3226
    2DOPE  H17S  207   3.677   3.860   6.113  1.8471 -0.0471 -1.7650
    2DOPE  C218  208   3.830   3.976   6.185 -0.5217  0.3059  0.1802
    2DOPE  H18R  209   3.919   3.958   6.249 -0.1996 -0.7199 -0.5226
    2DOPE  H18S  210   3.769   4.065   6.210 -1.6856 -0.2530 -0.5858
    2DOPE  H18T  211   3.869   3.986   6.081 -0.9730  0.8075  0.0572
    2DOPE   C33  212   4.620   3.857   7.884 -0.3441 -0.7962  0.0894
    2DOPE   H3X  213   4.544   3.783   7.853  0.2106 -1.3192 -0.0337
    2DOPE   H3Y  214   4.694   3.801   7.946  2.4079  1.0425 -1.3112
    2DOPE   C34  215   4.719   3.913   7.777  0.1021  0.4565  0.3646
    2DOPE   H4X  216   4.805   3.969   7.819  2.6033 -1.8890 -1.2909
    2DOPE   H4Y  217   4.774   3.824   7.738  1.0057  2.4499 -3.3688
    2DOPE   C35  218   4.649   3.979   7.665  0.5111  0.0543 -0.4236
    2DOPE   H5X  219   4.596   4.068   7.704  1.0770  0.3270 -0.2539
    2DOPE   H5Y  220   4.575   3.916   7.612  1.0485  0.3544 -1.5761
    2DOPE   C36  221   4.744   4.036   7.551  0.2718 -0.2136 -0.4173
    2DOPE   H6X  222   4.792   3.953   7.494  1.0995 -1.6075  2.1395
    2DOPE   H6Y  223   4.834   4.092   7.585 -0.4384  1.0884 -0.6248
    2DOPE   C37  224   4.661   4.131   7.470  0.5825 -0.3722 -0.1995
    2DOPE   H7X  225   4.552   4.113   7.479  0.2730  1.1872 -0.4596
    2DOPE   H7Y  226   4.682   4.236   7.501 -0.2427  0.0115 -0.8874
    2DOPE   C38  227   4.694   4.145   7.320  0.0244 -0.1163  0.1685
    2DOPE   H8X  228   4.803   4.151   7.297 -0.0727 -1.6688 -0.9025
    2DOPE   H8Y  229   4.632   4.224   7.274 -0.0608  1.1175  2.2926
    2DOPE   C39  230   4.648   4.018   7.257  0.3524  0.2471  0.3328
    2DOPE   H9X  231   4.579   3.962   7.322  0.4777  2.7522  2.7746
    2DOPE  C310  232   4.698   3.961   7.146 -0.5411 -0.0766  0.2567
    2DOPE  H10X  233   4.650   3.866   7.119 -0.5686  0.0798 -0.2673
    2DOPE  C311  234   4.815   4.013   7.058  0.1959  0.2917  0.3319
    2DOPE  H11X  235   4.844   4.118   7.083 -0.0328  0.9171 -1.8168
    2DOPE  H11Y  236   4.901   3.950   7.086  0.9751  0.0810 -2.2294
    2DOPE  C312  237   4.794   4.016   6.903 -0.2388  0.2027 -0.4283
    2DOPE  H12X  238   4.813   3.918   6.856 -0.2811  0.5143 -1.1128
    2DOPE  H12Y  239   4.864   4.092   6.862  0.1310 -0.7864 -1.6829
    2DOPE  C313  240   4.648   4.072   6.878 -0.0909 -0.3234  0.3928
    2DOPE  H13X  241   4.588   3.987   6.917 -0.5360 -0.2103 -0.0490
    2DOPE  H13Y  242   4.632   4.166   6.935 -0.6476 -1.4186  2.1126
    2DOPE  C314  243   4.616   4.100   6.726  0.3509 -0.1624 -0.1102
    2DOPE  H14X  244   4.630   4.008   6.667  0.3185 -0.5283  0.4441
    2DOPE  H14Y  245   4.682   4.184   6.696  1.2342 -0.5375  0.7222
    2DOPE  C315  246   4.472   4.139   6.696  0.3999  0.0202  0.0228
    2DOPE  H15X  247   4.447   4.232   6.751  0.1174  0.6731 -1.1849
    2DOPE  H15Y  248   4.407   4.052   6.721  1.3537 -0.2839  1.5182
    2DOPE  C316  249   4.453   4.156   6.547 -0.1159  0.1948  0.5061
    2DOPE  H16X  250   4.542   4.198   6.496 -0.5614  0.3524 -0.1588
    2DOPE  H16Y  251   4.366   4.223   6.529 -0.5047 -0.6086 -0.7773
    2DOPE  C317  252   4.426   4.024   6.468 -0.2263  0.0305  0.0863
    2DOPE  H17X  253   4.513   3.954   6.469  0.6038  0.7654  4.7330
    2DOPE  H17Y  254   4.335   3.971   6.503  0.5442 -0.9904  0.6277
    2DOPE  C318  255   4.396   4.062   6.319  0.2521  0.3258 -1.0477
    2DOPE  H18X  256   4.308   4.129   6.308 -0.3262 -0.5413 -1.8677
    2DOPE  H18Y  257   4.472   4.120   6.263  0.6145  0.6881 -0.1929
    2DOPE  H18Z  258   4.363   3.967   6.270  0.7690 -1.2710  1.4986
    3DOPE     N  259   4.046   4.353   8.029 -0.1015 -0.7220 -0.0134
    3DOPE   HN1  260   3.976   4.345   8.105 -0.6143 -0.5736 -0.4584
    3DOPE   HN2  261   4.023   4.267   7.974  0.2137 -0.3009 -0.8350
    3DOPE   HN3  262   4.135   4.356   8.083  0.4052  0.6168 -0.8580
    3DOPE   C12  263   4.013   4.478   7.952  0.7040  0.0318  0.1325
    3DOPE  H12A  264   3.931   4.443   7.885 -1.1077 -0.6937  2.5688
    3DOPE  H12B  265   4.106   4.503   7.896 -0.7015 -0.8580 -2.8096
    3DOPE   C11  266   3.958   4.596   8.045 -0.4321  0.7387  0.3606
    3DOPE  H11A  267   3.918   4.679   7.984 -0.9482 -0.5996 -1.1955
    3DOPE  H11B  268   4.047   4.646   8.090  1.5726 -0.0535 -2.3815
    3DOPE     P  269   3.705   4.552   8.119 -0.2162 -0.2536  0.4864
    3DOPE   O13  270   3.659   4.683   8.172  0.9208  0.2518  0.4398
    3DOPE   O14  271   3.655   4.432   8.186 -0.2662  0.4968 -0.3316
    3DOPE   O11  272   3.687   4.543   7.962  0.0986  0.0862 -0.1095
    3DOPE   O12  273   3.867   4.549   8.142 -0.6358 -0.2417  0.4264
    3DOPE    C1  274   3.577   4.625   7.910 -0.4055  0.0393 -0.4246
    3DOPE    HA  275   3.568   4.725   7.958  0.0037 -0.8616  1.6171
    3DOPE    HB  276   3.480   4.577   7.935 -0.1311  0.0459  0.7070
    3DOPE    C2  277   3.587   4.660   7.760 -0.7174  0.6026  0.2531
    3DOPE    HS  278   3.497   4.715   7.725 -0.2494  0.7540 -0.7387
    3DOPE   O21  279   3.603   4.534   7.685 -0.5348 -0.0543  0.4739
    3DOPE   C21  280   3.497   4.461   7.665  0.6834  0.6844 -0.1031
    3DOPE   O22  281   3.386   4.483   7.704  0.9954  0.1400  0.0578
    3DOPE   C22  282   3.528   4.341   7.569 -1.1493  0.2796 -0.3559
    3DOPE   H2R  283   3.434   4.285   7.547 -0.9595  0.1173 -0.7689
    3DOPE   H2S  284   3.597   4.276   7.627  0.1199  0.2392 -1.8642
    3DOPE    C3  285   3.714   4.749   7.740  0.3670  0.3028  0.3784
    3DOPE    HX  286   3.801   4.708   7.795 -1.4000 -2.9052  1.0526
    3DOPE    HY  287   3.695   4.848   7.787 -2.0444  0.4803 -0.7919
    3DOPE   O31  288   3.751   4.759   7.596  0.0261  0.1120 -0.2235
    3DOPE   C31  289   3.673   4.821   7.509  0.3051 -0.7131 -0.5306
    3DOPE   O32  290   3.579   4.888   7.545  0.6432 -0.0653 -0.1688
    3DOPE   C32  291   3.733   4.816   7.360  0.0805 -0.2734 -0.3706
    3DOPE   H2X  292   3.844   4.806   7.362  0.4536  2.8628  0.7638
    3DOPE   H2Y  293   3.696   4.717   7.325  0.3661 -1.1689  1.6983
    3DOPE   C23  294   3.582   4.386   7.430  0.2326 -0.1952 -0.2306
    3DOPE   H3R  295   3.685   4.414   7.463  0.5028 -2.5657  1.1790
    3DOPE   H3S  296   3.527   4.479   7.406 -0.8488  0.0549  2.7599
    3DOPE   C24  297   3.575   4.269   7.329  0.5036 -0.4128  1.2265
    3DOPE   H4R  298   3.474   4.231   7.304  0.6596 -1.7283  2.5047
    3DOPE   H4S  299   3.641   4.186   7.361 -0.0336 -0.0770  3.3725
    3DOPE   C25  300   3.626   4.319   7.189 -0.3981  0.9768 -0.6246
    3DOPE   H5R  301   3.737   4.333   7.190 -0.1791 -0.5499 -0.2428
    3DOPE   H5S  302   3.586   4.419   7.165 -0.4991  1.5188  1.6209
    3DOPE   C26  303   3.586   4.217   7.084  0.2347 -1.0880  0.4632
    3DOPE   H6R  304   3.478   4.190   7.089 -0.3210  0.8908  0.0559
    3DOPE   H6S  305   3.654   4.130   7.077  3.2353  1.0175  1.5482
    3DOPE   C27  306   3.593   4.290   6.950 -0.6083 -0.0112 -0.5850
    3DOPE   H7R  307   3.699   4.320   6.936 -0.8356  0.7661 -0.6968
    3DOPE   H7S  308   3.524   4.378   6.945 -1.1900 -0.4614 -0.5629
    3DOPE   C28  309   3.554   4.200   6.829  0.2297  0.0408  0.0045
    3DOPE   H8R  310   3.516   4.272   6.753 -0.0527  1.2359  1.2245
    3DOPE   H8S  311   3.471   4.140   6.872  0.7358 -1.0918 -0.5620
    3DOPE   C29  312   3.666   4.120   6.766  0.7032 -0.7289 -0.4663
    3DOPE   H9R  313   3.730   4.061   6.833 -0.4816 -2.6403 -0.9254
    3DOPE  C210  314   3.695   4.133   6.636 -1.3636  0.7797  0.3289
    3DOPE  H10R  315   3.775   4.069   6.596 -1.8015  0.0512  0.6050
    3DOPE  C211  316   3.631   4.223   6.526  0.0707  0.3091 -0.4664
    3DOPE  H11R  317   3.711   4.272   6.466  0.9880  0.5041  0.8668
    3DOPE  H11S  318   3.575   4.311   6.564  0.7912  0.6713 -0.2159
    3DOPE  C212  319   3.534   4.132   6.441 -0.6450 -0.4624  0.0650
    3DOPE  H12R  320   3.460   4.085   6.509  0.0437 -1.8081 -0.0837
    3DOPE  H12S  321   3.599   4.053   6.398 -1.4268 -0.7872 -0.5332
    3DOPE  C213  322   3.475   4.211   6.324  0.7712  0.4336 -0.6156
    3DOPE  H13R  323   3.555   4.247   6.256  0.6176  0.9208 -0.5446
    3DOPE  H13S  324   3.430   4.302   6.370  0.5966 -0.3962  0.8917
    3DOPE  C214  325   3.365   4.136   6.245 -0.1279 -0.3356  0.0884
    3DOPE  H14R  326   3.276   4.115   6.309 -1.9986  3.9476 -0.7657
    3DOPE  H14S  327   3.411   4.040   6.214  2.1360  0.7760 -0.2304
    3DOPE  C215  328   3.306   4.211   6.124 -0.0513 -0.5492 -1.3366
    3DOPE  H15R  329   3.218   4.267   6.160 -0.2466 -2.1245  0.8406
    3DOPE  H15S  330   3.257   4.127   6.069 -2.2880 -1.9769  2.4468
    3DOPE  C216  331   3.403   4.287   6.042 -0.4367 -0.1918  0.7227
    3DOPE  H16R  332   3.453   4.377   6.086 -1.7763  0.4502  0.9673
    3DOPE  H16S  333   3.342   4.332   5.961  0.3583  0.7561  0.6351
    3DOPE  C217  334   3.510   4.200   5.966 -0.6344  0.0567 -0.9544
    3DOPE  H17R  335   3.459   4.129   5.897 -0.5572 -2.0167  0.9975
    3DOPE  H17S  336   3.576   4.140   6.033 -3.0395 -1.0536  0.5873
    3DOPE  C218  337   3.613   4.284   5.902 -0.1907  0.5684  0.3319
    3DOPE  H18R  338   3.692   4.241   5.836 -1.8814 -0.0041 -1.3791
    3DOPE  H18S  339   3.681   4.326   5.980 -0.2322 -0.1603  0.7700
    3DOPE  H18T  340   3.565   4.369   5.850 -0.6611  0.7260  1.0060
    3DOPE   C33  341   3.680   4.925   7.265  0.1167 -0.3426 -0.1565
    3DOPE   H3X  342   3.666   5.019   7.321  0.8630 -0.3336  0.0358
    3DOPE   H3Y  343   3.579   4.903   7.226 -0.3674  0.2055  0.7577
    3DOPE   C34  344   3.765   4.960   7.142  0.2652  0.5031 -0.3644
    3DOPE   H4X  345   3.859   5.009   7.174  0.0080  0.0490  1.1871
    3DOPE   H4Y  346   3.788   4.865   7.090 -0.1981  0.9977 -1.5188
    3DOPE   C35  347   3.684   5.043   7.042 -0.9218 -0.1979  0.4382
    3DOPE   H5X  348   3.681   5.144   7.089  0.8027 -0.8869  2.1922
    3DOPE   H5Y  349   3.583   5.005   7.017  0.0028 -0.0456 -4.3671
    3DOPE   C36  350   3.749   5.051   6.905  0.0548 -0.0130  0.1630
    3DOPE   H6X  351   3.855   5.074   6.927  1.0068 -3.0381 -0.7298
    3DOPE   H6Y  352   3.714   5.144   6.856  0.3022 -0.2283 -0.4241
    3DOPE   C37  353   3.715   4.925   6.817  0.0148 -0.0143 -0.5351
    3DOPE   H7X  354   3.738   4.844   6.889 -0.2873  1.7545  1.6803
    3DOPE   H7Y  355   3.604   4.928   6.808 -0.0195  2.1591 -0.0240
    3DOPE   C38  356   3.798   4.914   6.688  0.4989  0.8765  0.6706
    3DOPE   H8X  357   3.906   4.926   6.711  0.8512  1.3261 -1.0560
    3DOPE   H8Y  358   3.772   5.001   6.624 -1.2086 -0.4856 -0.5900
    3DOPE   C39  359   3.783   4.781   6.610 -0.0244 -0.1051  0.5695
    3DOPE   H9X  360   3.713   4.779   6.525 -0.7375  0.7407  1.1182
    3DOPE  C310  361   3.863   4.674   6.622  0.7224 -0.2042  0.7806
    3DOPE  H10X  362   3.830   4.582   6.572 -0.9740 -0.2768  1.9380
    3DOPE  C311  363   3.972   4.653   6.727 -0.7521  0.6843  0.0873
    3DOPE  H11X  364   4.068   4.603   6.701  0.3135  1.1392  2.8065
    3DOPE  H11Y  365   4.009   4.754   6.756  0.8931  1.0238 -2.7928
    3DOPE  C312  366   3.897   4.584   6.843 -0.5438 -0.0055 -0.2834
    3DOPE  H12X  367   3.869   4.478   6.830 -2.8673  0.8795 -3.5603
    3DOPE  H12Y  368   3.800   4.634   6.863 -0.7851 -0.3088 -0.6902
    3DOPE  C313  369   3.975   4.592   6.978  0.2067 -0.6115 -0.1784
    3DOPE  H13X  370   4.064   4.526   6.966  0.1058 -1.0118  1.0988
    3DOPE  H13Y  371   4.015   4.695   6.993 -1.3996  0.0830 -0.5396
    3DOPE  C314  372   3.894   4.549   7.096 -0.2900  0.2754  0.1019
    3DOPE  H14X  373   3.868   4.441   7.085 -0.2723  0.3275 -0.4685
    3DOPE  H14Y  374   3.804   4.611   7.116 -1.0505 -0.8898  0.4210
    3DOPE  C315  375   3.983   4.573   7.224  0.0904  0.0031  0.1205
    3DOPE  H15X  376   3.993   4.681   7.245 -0.8222 -0.2265  1.9294
    3DOPE  H15Y  377   4.087   4.547   7.195  0.5636  1.8977  0.0266
    3DOPE  C316  378   3.937   4.504   7.349 -0.5366 -0.5760 -0.6101
    3DOPE  H16X  379   3.925   4.395   7.328 -2.9042 -0.1133 -2.0346
    3DOPE  H16Y  380   3.834   4.540   7.370 -2.0374 -3.4007 -2.3688
    3DOPE  C317  381   4.016   4.532   7.484  0.2855  0.3965 -0.9373
    3DOPE  H17X  382   4.119   4.498   7.457  1.3961  1.3100  1.7596
    3DOPE  H17Y  383   4.024   4.641   7.503 -0.5455  0.7033 -2.2536
    3DOPE  C318  384   3.970   4.465   7.615  0.3069 -0.0231 -0.8090
    3DOPE  H18X  385   4.042   4.478   7.699 -0.6904  3.4110 -0.3242
    3DOPE  H18Y  386   3.882   4.522   7.653 -0.2135 -1.4750  0.2481
    3DOPE  H18Z  387   3.946   4.357   7.613  0.0677 -0.0619  1.4508
    4DOPE     N  388   4.241   3.212   8.412  0.0410 -0.4110 -0.5401
    4DOPE   HN1  389   4.225   3.311   8.386  2.3967 -0.2350 -1.6032
    4DOPE   HN2  390   4.277   3.171   8.323 -2.9787 -1.1591 -1.5410
    4DOPE   HN3  391   4.144   3.174   8.413 -0.8101  1.6288  0.2795
    4DOPE   C12  392   4.317   3.193   8.539  0.2747 -0.0427  0.5538
    4DOPE  H12A  393   4.270   3.254   8.619 -1.7033 -2.5895  1.4601
    4DOPE  H12B  394   4.422   3.225   8.519  0.1548  0.7571  1.1675
    4DOPE   C11  395   4.312   3.041   8.580 -0.3175 -0.4648 -0.4285
    4DOPE  H11A  396   4.387   3.024   8.660 -0.6851  3.4555  1.0033
    4DOPE  H11B  397   4.341   2.973   8.497  1.4218 -1.8340  1.1961
    4DOPE     P  398   4.138   2.879   8.676  0.0163 -0.0556 -0.2585
    4DOPE   O13  399   3.994   2.866   8.662 -0.8555  0.1848 -0.2693
    4DOPE   O14  400   4.180   2.866   8.819 -0.1391  0.3453 -0.5899
    4DOPE   O11  401   4.228   2.778   8.588 -0.8280  0.3513  0.1668
    4DOPE   O12  402   4.181   3.020   8.629 -0.2149 -0.3350 -0.6590
    4DOPE    C1  403   4.170   2.718   8.474  0.7541  0.3522  0.4949
    4DOPE    HA  404   4.122   2.793   8.407  0.9278 -0.8130 -1.0013
    4DOPE    HB  405   4.092   2.647   8.509  0.3317  0.3894 -0.3437
    4DOPE    C2  406   4.273   2.635   8.392  0.5611  0.4030  0.1015
    4DOPE    HS  407   4.370   2.686   8.374  0.7469  0.5191  1.3501
    4DOPE   O21  408   4.209   2.591   8.271 -0.4745  0.0475 -0.0813
    4DOPE   C21  409   4.218   2.672   8.166 -0.5108  0.0209 -0.4426
    4DOPE   O22  410   4.270   2.783   8.160  0.3146 -0.0616  0.2050
    4DOPE   C22  411   4.158   2.591   8.053  0.2809  0.4379  0.3661
    4DOPE   H2R  412   4.047   2.593   8.055  0.1921  0.2790 -1.6194
    4DOPE   H2S  413   4.183   2.484   8.070 -1.5533 -0.3229 -1.2939
    4DOPE    C3  414   4.312   2.501   8.465  0.1521 -0.1766 -0.6679
    4DOPE    HX  415   4.217   2.448   8.487 -0.0072  1.2027  2.4809
    4DOPE    HY  416   4.366   2.521   8.560 -1.2411  0.7259 -0.0399
    4DOPE   O31  417   4.396   2.415   8.388 -0.4250 -0.2792 -0.0832
    4DOPE   C31  418   4.526   2.449   8.381  0.6264 -0.3737 -0.0663
    4DOPE   O32  419   4.570   2.545   8.444  0.0338  0.3219 -0.1058
    4DOPE   C32  420   4.592   2.363   8.277  0.3962  0.1318 -0.1475
    4DOPE   H2X  421   4.699   2.391   8.274 -0.1199  2.6721  1.4765
    4DOPE   H2Y  422   4.588   2.257   8.310  2.1161  0.7798  2.4481
    4DOPE   C23  423   4.195   2.615   7.909 -0.0171 -0.4535  0.2817
    4DOPE   H3R  424   4.304   2.634   7.892  0.0969 -0.6338  0.7946
    4DOPE   H3S  425   4.147   2.710   7.878  0.5536  0.1312  1.1239
    4DOPE   C24  426   4.149   2.508   7.815 -0.1053 -0.1842 -0.6903
    4DOPE   H4R  427   4.048   2.473   7.846 -1.5843  2.2292 -2.3761
    4DOPE   H4S  428   4.209   2.415   7.819 -0.9266 -0.7748 -1.6222
    4DOPE   C25  429   4.129   2.562   7.676  0.3028  0.1780 -0.2539
    4DOPE   H5R  430   4.231   2.592   7.643  0.4496 -0.0994 -0.0583
    4DOPE   H5S  431   4.072   2.656   7.679  1.1304  0.6648  0.7652
    4DOPE   C26  432   4.064   2.462   7.581 -0.3311  0.2210  0.5072
    4DOPE   H6R  433   3.980   2.404   7.626 -0.0222 -2.0928 -1.6492
    4DOPE   H6S  434   4.135   2.377   7.573 -1.9484 -1.0799 -1.3726
    4DOPE   C27  435   4.032   2.516   7.434 -0.1625 -0.1353 -0.5325
    4DOPE   H7R  436   4.125   2.571   7.408 -0.6252  0.0544 -1.8495
    4DOPE   H7S  437   3.954   2.594   7.441  2.2174  2.2159  2.0715
    4DOPE   C28  438   3.992   2.405   7.334 -0.0894 -0.9498 -0.4356
    4DOPE   H8R  439   3.972   2.459   7.239 -1.3033 -0.3476  0.1423
    4DOPE   H8S  440   3.894   2.370   7.373  0.0389  0.4118  1.2446
    4DOPE   C29  441   4.097   2.302   7.312 -0.2771 -0.0900 -0.3164
    4DOPE   H9R  442   4.200   2.336   7.330  0.7515 -2.9571 -0.3602
    4DOPE  C210  443   4.078   2.181   7.256  0.6203  0.0846  0.3369
    4DOPE  H10R  444   4.163   2.115   7.232  0.6142  0.8377 -2.0217
    4DOPE  C211  445   3.947   2.139   7.190  0.2245  0.2516  0.4791
    4DOPE  H11R  446   3.870   2.220   7.187  1.2104  1.3468  2.6248
    4DOPE  H11S  447   3.900   2.056   7.247  2.1623  0.6180  2.7435
    4DOPE  C212  448   3.984   2.096   7.051 -0.4796 -0.3188 -0.0077
    4DOPE  H12R  449   4.036   1.999   7.064 -2.0870 -1.0832  0.9405
    4DOPE  H12S  450   4.054   2.177   7.020 -1.7919  0.3952 -1.2719
    4DOPE  C213  451   3.866   2.101   6.950 -0.6483  0.3501  0.1129
    4DOPE  H13R  452   3.796   2.182   6.977 -2.9246 -2.0084  1.7524
    4DOPE  H13S  453   3.810   2.007   6.969 -0.4389  0.3416  0.6911
    4DOPE  C214  454   3.916   2.087   6.802  0.1260  0.3726 -0.0290
    4DOPE  H14R  455   3.976   1.996   6.784 -0.7553 -0.4625  1.0778
    4DOPE  H14S  456   3.970   2.182   6.782  1.4710 -0.7818 -2.2455
    4DOPE  C215  457   3.803   2.078   6.700 -0.4228  0.2239  0.6348
    4DOPE  H15R  458   3.725   2.154   6.723  0.5830  1.9157 -1.2069
    4DOPE  H15S  459   3.767   1.976   6.729  3.1085  0.0657  5.8441
    4DOPE  C216  460   3.842   2.092   6.544  0.1305 -0.4789 -0.0938
    4DOPE  H16R  461   3.754   2.073   6.480 -0.9559 -1.7619  1.6928
    4DOPE  H16S  462   3.920   2.013   6.541 -0.3871 -1.0427  0.7592
    4DOPE  C217  463   3.900   2.221   6.521 -0.2949 -0.1382  0.2203
    4DOPE  H17R  464   3.994   2.243   6.576  0.5119 -0.9232 -0.8046
    4DOPE  H17S  465   3.829   2.302   6.550  0.1965  0.1028  0.7805
    4DOPE  C218  466   3.923   2.242   6.371  0.5566 -0.1420 -0.0343
    4DOPE  H18R  467   4.006   2.177   6.333  0.5780  0.7895 -1.6560
    4DOPE  H18S  468   3.942   2.350   6.356  0.1470 -0.0222  0.3100
    4DOPE  H18T  469   3.831   2.215   6.316  0.2574 -0.9227  0.8078
    4DOPE   C33  470   4.526   2.382   8.143  0.6143  0.0519  0.3816
    4DOPE   H3X  471   4.500   2.489   8.130 -1.0138 -0.0800  2.0686
    4DOPE   H3Y  472   4.426   2.332   8.141  1.2358 -1.2284  0.1305
    4DOPE   C34  473   4.594   2.335   8.019 -0.0275 -0.0967 -0.1757
    4DOPE   H4X  474   4.691   2.388   8.007 -0.5769  1.0328  0.2522
    4DOPE   H4Y  475   4.618   2.227   8.032 -0.3016 -0.0589  0.7433
    4DOPE   C35  476   4.513   2.355   7.887 -1.0767 -0.2214 -0.1557
    4DOPE   H5X  477   4.478   2.457   7.861 -0.3301 -0.8265 -4.0308
    4DOPE   H5Y  478   4.419   2.299   7.907 -0.9390 -0.0799  0.9916
    4DOPE   C36  479   4.605   2.311   7.775 -0.4499  0.3457 -0.4575
    4DOPE   H6X  480   4.649   2.211   7.798  1.8780  1.1124 -1.2988
    4DOPE   H6Y  481   4.691   2.377   7.754 -0.3435  0.0539 -0.9443
    4DOPE   C37  482   4.524   2.302   7.647 -0.1552 -0.0185 -0.7564
    4DOPE   H7X  483   4.449   2.220   7.655  0.9361 -1.1001 -1.3794
    4DOPE   H7Y  484   4.467   2.397   7.649  1.0990  1.0003  5.2265
    4DOPE   C38  485   4.610   2.280   7.524  0.2121 -0.6563  0.2557
    4DOPE   H8X  486   4.694   2.350   7.541  0.2286 -1.0641  2.0683
    4DOPE   H8Y  487   4.550   2.304   7.434 -3.1350 -2.5965  1.7834
    4DOPE   C39  488   4.663   2.137   7.525  0.1836  0.8800 -0.0026
    4DOPE   H9X  489   4.760   2.119   7.574  0.5677  1.4736 -0.5393
    4DOPE  C310  490   4.618   2.039   7.446 -0.1477  0.1172  0.6671
    4DOPE  H10X  491   4.665   1.941   7.454 -1.9227 -0.9061 -0.6283
    4DOPE  C311  492   4.502   2.046   7.351  0.1035 -0.7786  0.1461
    4DOPE  H11X  493   4.421   1.988   7.399 -1.0462  1.6236  1.3281
    4DOPE  H11Y  494   4.461   2.148   7.332  0.8512 -0.0881  2.0038
    4DOPE  C312  495   4.540   1.994   7.209  0.3953  0.1335  0.2728
    4DOPE  H12X  496   4.582   1.892   7.216 -0.1142 -0.1862 -1.0927
    4DOPE  H12Y  497   4.625   2.052   7.168  0.5296  0.9036  1.5851
    4DOPE  C313  498   4.417   1.997   7.116  0.1252  0.2795  0.2569
    4DOPE  H13X  499   4.339   1.932   7.162 -1.1689  1.1035 -0.7249
    4DOPE  H13Y  500   4.371   2.097   7.125 -1.9953 -0.5657 -0.5731
    4DOPE  C314  501   4.444   1.941   6.972  0.5298  0.4628 -0.1022
    4DOPE  H14X  502   4.503   1.847   6.978 -0.9184 -0.6857 -2.3849
    4DOPE  H14Y  503   4.510   2.017   6.924  1.9721 -2.3064 -2.9110
    4DOPE  C315  504   4.324   1.933   6.886  0.0238  0.3143  0.3289
    4DOPE  H15X  505   4.276   2.033   6.879 -1.3030 -0.3626 -0.7618
    4DOPE  H15Y  506   4.242   1.870   6.926 -1.4182  0.5627 -2.0398
    4DOPE  C316  507   4.374   1.886   6.744  0.0884  0.3976  0.0087
    4DOPE  H16X  508   4.385   1.775   6.750 -3.9436 -0.1906 -0.3437
    4DOPE  H16Y  509   4.452   1.947   6.695 -0.6642  2.8262  1.6871
    4DOPE  C317  510   4.256   1.877   6.655  0.9435 -0.7330  0.0385
    4DOPE  H17X  511   4.177   1.836   6.721 -0.0992 -0.4088 -0.9788
    4DOPE  H17Y  512   4.214   1.974   6.622  2.0182 -0.4548 -0.5754
    4DOPE  C318  513   4.271   1.779   6.543  0.4269 -0.2604 -0.0868
    4DOPE  H18X  514   4.168   1.759   6.505  0.7517 -0.1460 -1.0319
    4DOPE  H18Y  515   4.318   1.814   6.449 -0.2271 -2.2991 -1.2421
    4DOPE  H18Z  516   4.303   1.677   6.574 -0.0337 -1.6910 -3.8214
    5DOPE     N  517   2.818   3.951   8.723 -0.3937 -0.3221  0.3230
    5DOPE   HN1  518   2.803   3.906   8.816 -1.6116  1.2530  0.9328
    5DOPE   HN2  519   2.919   3.962   8.701 -0.6589 -1.1429 -1.4819
    5DOPE   HN3  520   2.773   4.045   8.722  0.7957  0.3361 -2.7809
    5DOPE   C12  521   2.770   3.874   8.603 -0.4207 -0.2389 -0.0284
    5DOPE  H12A  522   2.841   3.788   8.605 -0.6885 -0.4518  1.3975
    5DOPE  H12B  523   2.779   3.941   8.515  0.4720 -0.0236  0.2158
    5DOPE   C11  524   2.624   3.834   8.618 -0.0614 -0.7249 -1.0998
    5DOPE  H11A  525   2.614   3.780   8.715  1.2758 -0.5910 -0.8697
    5DOPE  H11B  526   2.600   3.764   8.535  0.6138 -0.1653 -1.7797
    5DOPE     P  527   2.382   3.930   8.579 -0.6048  0.1222  0.5048
    5DOPE   O13  528   2.319   4.053   8.633 -0.2349 -0.6333 -0.1433
    5DOPE   O14  529   2.337   3.793   8.626 -0.5020 -0.1622  0.0130
    5DOPE   O11  530   2.357   3.947   8.426 -0.6307 -0.2789 -0.2472
    5DOPE   O12  531   2.534   3.947   8.613 -0.0212  0.1148 -0.1749
    5DOPE    C1  532   2.458   3.997   8.348 -0.3738 -0.4910 -0.0596
    5DOPE    HA  533   2.543   3.927   8.333  1.8814  1.4962  2.2551
    5DOPE    HB  534   2.495   4.095   8.387  0.9835 -0.1588 -2.0290
    5DOPE    C2  535   2.402   4.028   8.205  0.1858 -0.6631  0.6045
    5DOPE    HS  536   2.327   4.109   8.212 -0.5943 -1.3553  0.3440
    5DOPE   O21  537   2.344   3.906   8.154 -0.0144 -0.4121  0.2906
    5DOPE   C21  538   2.216   3.896   8.189 -0.9423  0.1223 -0.1074
    5DOPE   O22  539   2.149   3.986   8.234  0.6039 -0.4127  0.0393
    5DOPE   C22  540   2.163   3.753   8.160  0.0891  0.2447  0.2745
    5DOPE   H2R  541   2.235   3.687   8.213 -0.4601  0.2142  0.9948
    5DOPE   H2S  542   2.180   3.736   8.052 -1.0842 -0.2552  0.1584
    5DOPE    C3  543   2.518   4.061   8.101  0.2266  0.0884  0.1280
    5DOPE    HX  544   2.583   3.971   8.107  0.6299  0.1171 -2.4946
    5DOPE    HY  545   2.587   4.145   8.123  0.0465  1.4149 -3.6147
    5DOPE   O31  546   2.453   4.077   7.973 -0.5749  0.4567 -0.2061
    5DOPE   C31  547   2.538   4.051   7.873 -0.6694  0.5888 -0.1295
    5DOPE   O32  548   2.648   4.002   7.890 -0.0869 -0.0463  0.0886
    5DOPE   C32  549   2.481   4.107   7.745 -0.2141  0.4080 -0.2163
    5DOPE   H2X  550   2.393   4.169   7.771 -1.4615 -2.3694  2.9452
    5DOPE   H2Y  551   2.565   4.170   7.706 -0.6437  1.1378  0.0212
    5DOPE   C23  552   2.019   3.713   8.202 -0.4123 -0.4570  0.6420
    5DOPE   H3R  553   1.998   3.748   8.306 -1.0973 -0.7686  0.6118
    5DOPE   H3S  554   2.023   3.603   8.193  0.8291 -0.3652 -0.2413
    5DOPE   C24  555   1.908   3.759   8.108  0.6913 -0.3172  0.3942
    5DOPE   H4R  556   1.932   3.702   8.016 -0.6936 -2.1669  1.1096
    5DOPE   H4S  557   1.917   3.869   8.093  1.3540 -0.3198  0.7579
    5DOPE   C25  558   1.768   3.720   8.149 -0.0622 -0.0431 -0.3714
    5DOPE   H5R  559   1.705   3.746   8.061  1.9047 -2.8875 -2.8203
    5DOPE   H5S  560   1.742   3.780   8.239  3.1608  0.3971  0.3706
    5DOPE   C26  561   1.756   3.579   8.196 -0.0716  0.9073 -0.1178
    5DOPE   H6R  562   1.656   3.565   8.242 -0.4726  0.8015 -0.9972
    5DOPE   H6S  563   1.839   3.539   8.259 -1.7687 -1.2951  0.8370
    5DOPE   C27  564   1.760   3.484   8.077 -0.6044  0.1208  1.1289
    5DOPE   H7R  565   1.859   3.504   8.031 -1.4799  3.1357  0.3367
    5DOPE   H7S  566   1.680   3.518   8.008  1.0680  0.6668 -0.6221
    5DOPE   C28  567   1.748   3.336   8.116  0.2352  0.0552  0.1189
    5DOPE   H8R  568   1.838   3.307   8.174  1.2786 -1.5518 -2.1701
    5DOPE   H8S  569   1.755   3.280   8.021 -1.6860  0.4464 -0.3070
    5DOPE   C29  570   1.612   3.302   8.167 -0.2135  0.0824  1.0140
    5DOPE   H9R  571   1.532   3.375   8.151 -0.5065 -0.4158  0.1502
    5DOPE  C210  572   1.578   3.184   8.217 -0.6531  0.3142 -0.0624
    5DOPE  H10R  573   1.471   3.159   8.226 -0.6247  0.2452  0.0902
    5DOPE  C211  574   1.672   3.067   8.252 -0.6022 -0.1317 -0.7015
    5DOPE  H11R  575   1.649   3.035   8.356 -0.5615 -0.3055 -0.7456
    5DOPE  H11S  576   1.776   3.106   8.246  0.2380 -2.0866  0.2367
    5DOPE  C212  577   1.665   2.940   8.161  0.4221 -0.2037  0.0613
    5DOPE  H12R  578   1.563   2.898   8.156  0.4243 -0.3420  0.9992
    5DOPE  H12S  579   1.723   2.859   8.211 -0.7916 -0.8969  0.3838
    5DOPE  C213  580   1.731   2.969   8.024  0.3306  0.3881 -0.0136
    5DOPE  H13R  581   1.837   2.996   8.044  0.7009  0.3983 -1.8259
    5DOPE  H13S  582   1.689   3.058   7.973 -1.2811 -1.3079 -1.8224
    5DOPE  C214  583   1.705   2.851   7.935  0.6748  0.2227 -0.7867
    5DOPE  H14R  584   1.716   2.759   7.996 -0.6456 -0.2116 -1.1591
    5DOPE  H14S  585   1.778   2.856   7.851  1.4659 -0.6738 -0.1773
    5DOPE  C215  586   1.558   2.847   7.872  0.5640  0.4082  0.1652
    5DOPE  H15R  587   1.556   2.928   7.796  1.3374 -0.7498 -1.1435
    5DOPE  H15S  588   1.477   2.852   7.947 -0.5594 -0.2414 -0.9465
    5DOPE  C216  589   1.540   2.713   7.799 -0.5115 -0.2978 -0.3293
    5DOPE  H16R  590   1.531   2.633   7.876  1.3936  0.8830  1.1802
    5DOPE  H16S  591   1.626   2.698   7.731  1.7355  2.4401  1.7182
    5DOPE  C217  592   1.422   2.715   7.714 -0.1882  0.1817  0.4722
    5DOPE  H17R  593   1.428   2.807   7.652  0.3208 -0.8479 -1.0581
    5DOPE  H17S  594   1.331   2.711   7.778 -0.8474  2.5261 -0.2036
    5DOPE  C218  595   1.412   2.609   7.601  0.2887  0.3681  0.3532
    5DOPE  H18R  596   1.330   2.642   7.534 -0.2482 -0.0810  0.7880
    5DOPE  H18S  597   1.397   2.506   7.639 -1.0594  0.4160  0.0010
    5DOPE  H18T  598   1.510   2.591   7.551  0.1082 -1.0623  0.4731
    5DOPE   C33  599   2.446   3.991   7.659  0.2102  0.0461  0.1229
    5DOPE   H3X  600   2.373   4.028   7.583  0.1608  1.3222  0.7559
    5DOPE   H3Y  601   2.401   3.903   7.709  1.3527 -0.0160  1.0889
    5DOPE   C34  602   2.569   3.933   7.578  0.0592  1.1469 -0.1623
    5DOPE   H4X  603   2.608   4.018   7.519 -0.0637  0.4121 -1.3260
    5DOPE   H4Y  604   2.649   3.907   7.651  0.2265  2.7374  0.2583
    5DOPE   C35  605   2.528   3.819   7.497 -0.6897  0.7112 -0.0665
    5DOPE   H5X  606   2.419   3.802   7.511 -0.2485 -1.2885  1.3166
    5DOPE   H5Y  607   2.579   3.725   7.525  1.8780  0.7483 -3.8342
    5DOPE   C36  608   2.568   3.830   7.350 -0.7372  0.4723 -0.0707
    5DOPE   H6X  609   2.562   3.731   7.301  0.6265  1.0366 -1.4900
    5DOPE   H6Y  610   2.671   3.868   7.336 -1.0207  0.8176 -1.3973
    5DOPE   C37  611   2.459   3.914   7.277  0.2142  0.1858  0.0890
    5DOPE   H7X  612   2.373   3.933   7.344 -1.0236  3.0097 -2.1006
    5DOPE   H7Y  613   2.510   4.012   7.264  1.5075 -0.2442  1.5454
    5DOPE   C38  614   2.415   3.845   7.147  0.2600 -0.3566  0.1057
    5DOPE   H8X  615   2.317   3.883   7.111 -0.3477 -2.9310 -1.2005
    5DOPE   H8Y  616   2.399   3.737   7.170  1.3847 -0.3870  0.8093
    5DOPE   C39  617   2.528   3.852   7.043  0.1642  0.3199 -0.1608
    5DOPE   H9X  618   2.629   3.834   7.085 -0.5303 -2.0758  0.6081
    5DOPE  C310  619   2.503   3.899   6.916 -0.4631  0.0180 -0.2471
    5DOPE  H10X  620   2.590   3.935   6.860  0.3229  0.1172  0.9836
    5DOPE  C311  621   2.366   3.916   6.863  0.2286  0.0826 -0.0469
    5DOPE  H11X  622   2.303   3.836   6.906 -0.6195  0.9087  0.2968
    5DOPE  H11Y  623   2.327   4.019   6.880 -0.1471 -0.2134  0.9374
    5DOPE  C312  624   2.365   3.886   6.713 -0.3755  1.0545  0.3513
    5DOPE  H12X  625   2.408   3.785   6.702  1.9832  2.1163 -0.9323
    5DOPE  H12Y  626   2.441   3.949   6.663  0.5158  0.4994  0.9775
    5DOPE  C313  627   2.227   3.900   6.646 -0.4819  0.2826 -0.4725
    5DOPE  H13X  628   2.148   3.856   6.711 -0.9533  0.0263 -1.2004
    5DOPE  H13Y  629   2.206   4.008   6.660 -2.3080 -0.4671  4.0794
    5DOPE  C314  630   2.216   3.861   6.499  0.4478  0.0057 -0.0857
    5DOPE  H14X  631   2.210   3.751   6.486 -0.5129 -0.1634  1.4765
    5DOPE  H14Y  632   2.310   3.888   6.446  0.0512  2.5522  0.3615
    5DOPE  C315  633   2.098   3.933   6.429  0.2025  0.2672 -0.6916
    5DOPE  H15X  634   2.074   4.035   6.465 -1.6838 -0.2325 -0.4358
    5DOPE  H15Y  635   2.007   3.870   6.442  1.2386 -0.8614  1.9665
    5DOPE  C316  636   2.101   3.955   6.276 -0.5357  0.5930 -0.4212
    5DOPE  H16X  637   2.194   4.014   6.260 -0.5736  0.5722 -0.7255
    5DOPE  H16Y  638   2.020   4.020   6.237 -1.2371 -1.0925 -1.9748
    5DOPE  C317  639   2.110   3.826   6.203  0.4814 -0.5448 -0.3401
    5DOPE  H17X  640   2.188   3.759   6.244  1.9864  0.9054 -0.7467
    5DOPE  H17Y  641   2.012   3.773   6.206  0.4828 -0.6445 -1.4410
    5DOPE  C318  642   2.143   3.837   6.057  0.2000 -0.6889 -0.0377
    5DOPE  H18X  643   2.066   3.873   5.986  1.1719  0.9485 -0.3017
    5DOPE  H18Y  644   2.226   3.909   6.039 -0.7549 -0.0751 -2.4401
    5DOPE  H18Z  645   2.183   3.739   6.021  1.2145 -0.6301  0.8647
    6DOPE     N  646   1.752   4.609   8.251  0.4820 -0.4949  0.0142
    6DOPE   HN1  647   1.762   4.706   8.214  0.7375 -0.5069  0.0513
    6DOPE   HN2  648   1.760   4.542   8.172  1.1347 -1.7861  1.1457
    6DOPE   HN3  649   1.662   4.598   8.303 -0.0907 -0.5029 -0.9614
    6DOPE   C12  650   1.874   4.574   8.331 -0.2731 -0.0483  0.2411
    6DOPE  H12A  651   1.860   4.475   8.381  0.7495 -0.2844  0.0735
    6DOPE  H12B  652   1.881   4.646   8.416 -2.3574  1.3579 -0.6904
    6DOPE   C11  653   2.008   4.583   8.256 -0.3708  0.0779  0.0665
    6DOPE  H11A  654   2.009   4.683   8.207 -0.5491  0.2175  0.3474
    6DOPE  H11B  655   2.006   4.513   8.169  0.4860  0.4984 -0.2972
    6DOPE     P  656   2.174   4.426   8.381 -0.0947 -0.4384 -0.5620
    6DOPE   O13  657   2.063   4.355   8.450  0.3949 -0.2326 -0.0988
    6DOPE   O14  658   2.299   4.443   8.460  0.3540 -0.8303 -0.5796
    6DOPE   O11  659   2.214   4.352   8.245 -0.3334  0.2237  0.2734
    6DOPE   O12  660   2.122   4.566   8.340 -0.0874 -0.3945 -0.3794
    6DOPE    C1  661   2.305   4.402   8.155 -0.0317  0.0550  0.4504
    6DOPE    HA  662   2.388   4.328   8.153  0.1162  0.2052 -1.7620
    6DOPE    HB  663   2.353   4.500   8.175  1.7734 -0.2856 -1.8220
    6DOPE    C2  664   2.258   4.420   8.007  0.2585 -0.3238  0.0056
    6DOPE    HS  665   2.167   4.484   8.010  0.9784  0.7876 -1.0819
    6DOPE   O21  666   2.241   4.289   7.938 -0.0988 -0.2265  0.1590
    6DOPE   C21  667   2.117   4.250   7.949  0.2056 -0.8288  0.2702
    6DOPE   O22  668   2.025   4.313   7.992  0.0328  0.1942 -0.4052
    6DOPE   C22  669   2.103   4.123   7.867 -0.6571  0.7048 -0.4128
    6DOPE   H2R  670   2.161   4.040   7.912 -0.2452  1.2170  0.0144
    6DOPE   H2S  671   2.124   4.135   7.759  0.7105 -0.6453 -0.3202
    6DOPE    C3  672   2.360   4.498   7.919 -0.6627 -0.6426  0.0269
    6DOPE    HX  673   2.464   4.474   7.948 -0.8167  0.2568  1.3938
    6DOPE    HY  674   2.341   4.601   7.955 -0.6676 -0.4332 -0.5618
    6DOPE   O31  675   2.324   4.475   7.772  0.4175  0.1219 -0.3198
    6DOPE   C31  676   2.419   4.435   7.689 -0.2717  0.1871  0.1579
    6DOPE   O32  677   2.537   4.426   7.728  0.6144 -0.0188 -0.0865
    6DOPE   C32  678   2.356   4.385   7.554 -0.4378  0.6399 -0.5040
    6DOPE   H2X  679   2.314   4.286   7.583  1.7831  0.4030  2.4581
    6DOPE   H2Y  680   2.268   4.449   7.532 -1.2500  0.5880  2.1931
    6DOPE   C23  681   1.957   4.069   7.866  0.3243 -0.7517 -0.2986
    6DOPE   H3R  682   1.892   4.145   7.819  2.3874  1.6778  0.5116
    6DOPE   H3S  683   1.925   4.052   7.971  0.6847  0.5194  0.0376
    6DOPE   C24  684   1.945   3.934   7.804  0.0718  0.1176  0.5682
    6DOPE   H4R  685   1.852   3.876   7.824  0.8179 -1.7141 -0.9823
    6DOPE   H4S  686   2.027   3.866   7.837  0.8548  0.8006  0.0657
    6DOPE   C25  687   1.962   3.938   7.650 -0.6325 -0.1480 -0.1430
    6DOPE   H5R  688   2.064   3.971   7.622 -0.4878 -0.1404  0.3816
    6DOPE   H5S  689   1.890   4.010   7.605 -0.5570  0.6654  0.9864
    6DOPE   C26  690   1.935   3.799   7.588 -0.9426 -0.8370  0.3578
    6DOPE   H6R  691   1.826   3.780   7.578 -0.8864  0.0943 -3.8024
    6DOPE   H6S  692   1.972   3.726   7.663  0.9931  1.3106  1.6401
    6DOPE   C27  693   2.025   3.775   7.462  0.1541  0.4673  0.5165
    6DOPE   H7R  694   2.033   3.665   7.450 -0.2821  0.3566  1.1879
    6DOPE   H7S  695   2.122   3.825   7.483 -0.1355  1.4181 -0.3137
    6DOPE   C28  696   1.954   3.838   7.339  0.0358  0.0532 -0.2945
    6DOPE   H8R  697   1.936   3.947   7.351 -0.2017 -0.1273  1.0973
    6DOPE   H8S  698   1.857   3.789   7.316 -0.4595  0.4536  0.8959
    6DOPE   C29  699   2.053   3.812   7.225  0.7565  0.3377 -0.1215
    6DOPE   H9R  700   2.158   3.839   7.246  0.4685  0.7983  0.8316
    6DOPE  C210  701   2.031   3.735   7.117  0.0060  0.4818  0.2528
    6DOPE  H10R  702   2.106   3.759   7.040 -0.4032  2.0582  0.3019
    6DOPE  C211  703   1.902   3.673   7.072  0.6918 -0.0600 -0.6036
    6DOPE  H11R  704   1.822   3.700   7.143  2.0017 -2.0541  1.7861
    6DOPE  H11S  705   1.918   3.563   7.069  0.6121 -0.0605 -1.0863
    6DOPE  C212  706   1.866   3.731   6.931  0.0438  0.4128  0.1478
    6DOPE  H12R  707   1.888   3.839   6.938 -0.5909  0.4576  2.5250
    6DOPE  H12S  708   1.758   3.714   6.916  0.0423 -0.8651  1.3351
    6DOPE  C213  709   1.943   3.663   6.817 -0.2003 -0.0749 -0.1342
    6DOPE  H13R  710   2.050   3.682   6.840  0.2860 -0.8200 -1.6582
    6DOPE  H13S  711   1.927   3.728   6.729 -3.1620  1.5373  1.4586
    6DOPE  C214  712   1.898   3.518   6.793 -0.1809  0.5035  0.7753
    6DOPE  H14R  713   1.793   3.516   6.759 -0.5484  0.6546  1.8429
    6DOPE  H14S  714   1.896   3.447   6.879 -0.1138 -0.7604 -0.2483
    6DOPE  C215  715   1.985   3.453   6.689 -0.6818  1.1357  0.0341
    6DOPE  H15R  716   2.089   3.458   6.728 -0.8342 -0.3379  0.6754
    6DOPE  H15S  717   1.986   3.505   6.590 -0.7471 -1.4154 -1.3790
    6DOPE  C216  718   1.952   3.310   6.642 -0.0563  0.4105 -0.3438
    6DOPE  H16R  719   1.843   3.296   6.628 -0.1221  0.7525 -0.1656
    6DOPE  H16S  720   1.977   3.242   6.726 -0.9489  1.1818  0.5734
    6DOPE  C217  721   2.038   3.263   6.523 -0.3623  1.0659 -0.7383
    6DOPE  H17R  722   2.143   3.294   6.543  0.8628 -2.1423 -1.6871
    6DOPE  H17S  723   2.006   3.320   6.433 -2.2103  1.6543  0.2226
    6DOPE  C218  724   2.027   3.108   6.502 -0.6386  0.2742  0.0455
    6DOPE  H18R  725   2.112   3.075   6.439 -1.9325 -0.3940 -1.4150
    6DOPE  H18S  726   1.939   3.077   6.443  1.3790 -0.1948 -2.9134
    6DOPE  H18T  727   2.030   3.051   6.597  0.5576 -0.3422 -0.3433
    6DOPE   C33  728   2.454   4.387   7.438  0.0196  0.0572 -0.3686
    6DOPE   H3X  729   2.547   4.332   7.466  0.4638  1.1807  0.4561
    6DOPE   H3Y  730   2.467   4.495   7.414 -0.5718  0.5304  1.2592
    6DOPE   C34  731   2.398   4.326   7.309 -0.0439  0.6312  0.0851
    6DOPE   H4X  732   2.371   4.222   7.336 -2.5130  0.6668 -1.9065
    6DOPE   H4Y  733   2.299   4.372   7.290 -0.0577  0.2063 -0.9611
    6DOPE   C35  734   2.496   4.344   7.188  0.0542  0.5844 -0.1527
    6DOPE   H5X  735   2.595   4.299   7.207 -0.1392 -0.5492 -1.6344
    6DOPE   H5Y  736   2.513   4.450   7.159  1.4765  0.3077 -0.3881
    6DOPE   C36  737   2.435   4.284   7.052 -0.1192 -0.8578 -0.7928
    6DOPE   H6X  738   2.326   4.306   7.043  0.3792  3.3110  0.9454
    6DOPE   H6Y  739   2.455   4.176   7.037 -0.6065 -1.2727  1.2239
    6DOPE   C37  740   2.489   4.358   6.918  0.5506 -0.1984 -0.6777
    6DOPE   H7X  741   2.467   4.467   6.919  1.0777 -0.0901  0.3119
    6DOPE   H7Y  742   2.599   4.342   6.912  0.7005 -0.7738  2.2531
    6DOPE   C38  743   2.430   4.299   6.790  0.0791  0.2637  1.3465
    6DOPE   H8X  744   2.453   4.191   6.776 -0.8756  0.2229 -0.1565
    6DOPE   H8Y  745   2.477   4.342   6.699 -1.5729 -3.9942 -1.8724
    6DOPE   C39  746   2.280   4.326   6.773  0.0122  0.2770  0.2393
    6DOPE   H9X  747   2.214   4.254   6.823 -0.2486  1.0909  1.0994
    6DOPE  C310  748   2.214   4.412   6.695  1.0270  0.5592  0.3323
    6DOPE  H10X  749   2.105   4.412   6.705  0.8734 -2.0955 -0.6602
    6DOPE  C311  750   2.276   4.516   6.605 -0.4474 -0.1646  0.0760
    6DOPE  H11X  751   2.381   4.538   6.636  0.1092 -1.7298 -0.5896
    6DOPE  H11Y  752   2.286   4.477   6.502 -0.0903  0.3168 -0.0744
    6DOPE  C312  753   2.189   4.641   6.590 -0.2787  0.1621 -1.9095
    6DOPE  H12X  754   2.248   4.721   6.540  2.0472  0.8511  1.5451
    6DOPE  H12Y  755   2.147   4.678   6.686  0.2728 -0.6906 -1.3293
    6DOPE  C313  756   2.057   4.634   6.503 -0.0069 -0.2081  0.1160
    6DOPE  H13X  757   2.076   4.599   6.400 -1.2113 -2.8768  0.7013
    6DOPE  H13Y  758   1.984   4.565   6.551  0.3735 -0.7809 -0.1261
    6DOPE  C314  759   2.001   4.776   6.487 -0.3632  0.2798  0.3398
    6DOPE  H14X  760   2.034   4.825   6.393 -3.8650 -0.3340 -1.3636
    6DOPE  H14Y  761   2.013   4.839   6.578 -1.8113  1.2565 -0.1145
    6DOPE  C315  762   1.851   4.774   6.469  0.3003  0.4223  0.1791
    6DOPE  H15X  763   1.800   4.766   6.567  1.5561  2.0811  1.0089
    6DOPE  H15Y  764   1.826   4.687   6.404 -0.1700 -0.4211  1.4529
    6DOPE  C316  765   1.804   4.898   6.402  0.0635 -0.6124 -0.4572
    6DOPE  H16X  766   1.859   4.911   6.306 -1.0882  1.2568 -0.9008
    6DOPE  H16Y  767   1.816   4.984   6.471 -2.5576 -1.2771  0.9350
    6DOPE  C317  768   1.651   4.900   6.372 -0.0071  0.0999 -0.5752
    6DOPE  H17X  769   1.594   4.863   6.460 -1.6823  0.9470 -1.2782
    6DOPE  H17Y  770   1.635   5.008   6.354  2.1610  0.9599  2.0290
    6DOPE  C318  771   1.614   4.817   6.245  0.6724 -0.0237 -0.1243
    6DOPE  H18X  772   1.503   4.820   6.241  0.6471 -0.9646 -0.2865
    6DOPE  H18Y  773   1.650   4.861   6.149 -1.1901 -1.3667 -1.4948
    6DOPE  H18Z  774   1.649   4.712   6.250  0.6804 -0.2238 -3.0516
    7DOPE     N  775   3.961   4.638   8.423  0.6895 -0.3973 -0.3444
    7DOPE   HN1  776   4.021   4.611   8.503  0.5530  0.3399  0.0213
    7DOPE   HN2  777   3.931   4.544   8.390  2.5347 -1.5290  1.0417
    7DOPE   HN3  778   4.032   4.676   8.357  2.3393  1.3373  2.2575
    7DOPE   C12  779   3.856   4.736   8.452 -0.2636 -0.1896 -0.3237
    7DOPE  H12A  780   3.802   4.690   8.537  1.5130  1.6582  1.9607
    7DOPE  H12B  781   3.796   4.755   8.361  0.9064  1.0112 -0.8837
    7DOPE   C11  782   3.913   4.873   8.497 -0.0121  0.1165  0.8832
    7DOPE  H11A  783   3.987   4.858   8.578 -0.2788 -0.1719  1.0766
    7DOPE  H11B  784   3.835   4.944   8.531 -0.2119  0.1063  0.4674
    7DOPE     P  785   4.135   4.905   8.352 -0.1080 -0.2183  0.4134
    7DOPE   O13  786   4.149   4.773   8.292  0.5842  0.0506 -0.3005
    7DOPE   O14  787   4.208   4.940   8.474 -0.6611  0.0137 -0.2145
    7DOPE   O11  788   4.165   5.005   8.234 -0.0989  0.6753  0.6008
    7DOPE   O12  789   3.975   4.933   8.382  0.5459  0.3680  0.2048
    7DOPE    C1  790   4.074   5.042   8.137 -0.5339  0.0569  1.0748
    7DOPE    HA  791   4.052   5.151   8.142  0.7585  0.3241  1.1278
    7DOPE    HB  792   3.974   4.992   8.144 -1.0039  0.8768  0.3530
    7DOPE    C2  793   4.123   5.001   7.995  0.3210 -0.3881 -0.5720
    7DOPE    HS  794   4.135   4.891   7.994 -0.5572 -0.9722  6.0227
    7DOPE   O21  795   4.242   5.074   7.965  0.4383  0.1557 -0.0947
    7DOPE   C21  796   4.328   5.018   7.881  0.2541 -0.2528  0.1147
    7DOPE   O22  797   4.313   4.914   7.825 -0.0887  0.3052  0.7938
    7DOPE   C22  798   4.445   5.113   7.880  0.0397 -0.3034 -0.1976
    7DOPE   H2R  799   4.503   5.097   7.973  1.1980  3.3255 -0.1313
    7DOPE   H2S  800   4.415   5.220   7.871 -0.8051 -0.5778 -0.7366
    7DOPE    C3  801   4.017   5.036   7.894 -0.2362  0.1776 -0.2232
    7DOPE    HX  802   3.991   5.144   7.894 -0.7319  0.1973 -4.3302
    7DOPE    HY  803   3.930   4.975   7.927 -0.9854  1.0173 -0.6154
    7DOPE   O31  804   4.042   4.999   7.758 -0.5049 -0.0525 -0.8031
    7DOPE   C31  805   3.941   5.045   7.686  0.3693  0.1245  0.0846
    7DOPE   O32  806   3.837   5.088   7.728 -0.4457 -0.2130 -0.4123
    7DOPE   C32  807   3.976   5.042   7.538 -0.6257 -0.2921 -0.0058
    7DOPE   H2X  808   4.010   4.939   7.513 -1.1725 -0.2751 -0.8530
    7DOPE   H2Y  809   3.883   5.056   7.479 -1.1949  0.5431  1.0558
    7DOPE   C23  810   4.547   5.092   7.762 -0.5033 -0.3752 -0.1733
    7DOPE   H3R  811   4.577   4.985   7.761  0.9491  0.0043  0.5711
    7DOPE   H3S  812   4.636   5.153   7.785 -2.3037  3.0331 -1.5251
    7DOPE   C24  813   4.489   5.131   7.631  0.3373  0.3519 -1.0069
    7DOPE   H4R  814   4.458   5.236   7.648 -0.3637 -0.1681  1.2771
    7DOPE   H4S  815   4.396   5.079   7.598  0.4859 -1.1179  0.6842
    7DOPE   C25  816   4.590   5.113   7.524  0.4797  0.1412 -0.2046
    7DOPE   H5R  817   4.583   5.005   7.496 -1.5058  0.3875 -0.7988
    7DOPE   H5S  818   4.688   5.151   7.558 -0.4040  0.8718  1.6409
    7DOPE   C26  819   4.556   5.203   7.394  0.2503  1.3839 -0.2198
    7DOPE   H6R  820   4.581   5.310   7.410  1.0844  0.9133  1.9119
    7DOPE   H6S  821   4.446   5.197   7.378  0.7527 -0.7922 -4.1178
    7DOPE   C27  822   4.626   5.145   7.264  0.1716 -0.3646  0.4898
    7DOPE   H7R  823   4.598   5.038   7.253 -0.9783 -0.1694  1.3500
    7DOPE   H7S  824   4.734   5.128   7.282 -0.2035 -1.3535  1.9775
    7DOPE   C28  825   4.609   5.226   7.132 -0.6151 -0.5090  0.5951
    7DOPE   H8R  826   4.503   5.242   7.104 -0.0545  1.1389 -0.7069
    7DOPE   H8S  827   4.649   5.157   7.055 -0.8851 -0.3613  0.3230
    7DOPE   C29  828   4.675   5.359   7.147 -0.6995 -0.3400 -0.1812
    7DOPE   H9R  829   4.667   5.407   7.246  0.7122 -3.0316  1.3456
    7DOPE  C210  830   4.755   5.414   7.057 -0.1849 -0.9355 -0.7033
    7DOPE  H10R  831   4.807   5.507   7.086  2.0553 -2.2911 -0.1178
    7DOPE  C211  832   4.793   5.360   6.923  0.7219  0.1629  0.2189
    7DOPE  H11R  833   4.692   5.328   6.889  0.6056 -1.6956  2.1043
    7DOPE  H11S  834   4.866   5.277   6.929  1.4761  0.7953 -0.0850
    7DOPE  C212  835   4.842   5.463   6.814 -0.2689  0.4237  0.6792
    7DOPE  H12R  836   4.930   5.511   6.861  0.9247  0.8747 -1.8704
    7DOPE  H12S  837   4.762   5.538   6.793 -0.6576 -0.8143 -2.8658
    7DOPE  C213  838   4.865   5.401   6.674 -0.0705 -0.6122 -0.3269
    7DOPE  H13R  839   4.778   5.346   6.631  0.1334 -1.4327  0.2950
    7DOPE  H13S  840   4.948   5.328   6.686 -0.5177 -1.0372  0.2911
    7DOPE  C214  841   4.896   5.506   6.565 -0.0773  0.2647 -0.1105
    7DOPE  H14R  842   4.982   5.563   6.606  1.0549 -1.6477  0.3050
    7DOPE  H14S  843   4.820   5.586   6.568  0.8198  1.1210  0.2045
    7DOPE  C215  844   4.912   5.450   6.420 -0.7432  0.0759  0.3394
    7DOPE  H15R  845   4.914   5.537   6.351  1.2942 -0.2156 -0.0483
    7DOPE  H15S  846   4.827   5.385   6.392 -0.5928  0.6412 -1.6052
    7DOPE  C216  847   5.038   5.361   6.403  0.4430 -0.1317 -0.2192
    7DOPE  H16R  848   5.020   5.259   6.443 -0.5619  0.1616  0.1112
    7DOPE  H16S  849   5.129   5.407   6.448  0.8796 -2.6837  1.6986
    7DOPE  C217  850   5.079   5.337   6.253  0.3320 -0.3101  0.3947
    7DOPE  H17R  851   4.995   5.276   6.212  0.3470 -1.5725  2.1303
    7DOPE  H17S  852   5.166   5.269   6.258  0.2315 -0.3818  1.2668
    7DOPE  C218  853   5.101   5.451   6.150 -0.3636  1.0856 -0.2781
    7DOPE  H18R  854   5.000   5.493   6.127 -1.3171 -1.3476 -0.8273
    7DOPE  H18S  855   5.136   5.405   6.055  0.0543 -0.4999  0.6123
    7DOPE  H18T  856   5.168   5.526   6.197 -2.2502  1.9985  1.0913
    7DOPE   C33  857   4.078   5.154   7.495 -0.2981 -0.7025 -0.3232
    7DOPE   H3X  858   4.169   5.144   7.557  0.5976 -1.0585 -1.6683
    7DOPE   H3Y  859   4.024   5.251   7.497  0.7173 -0.1125 -0.7828
    7DOPE   C34  860   4.125   5.143   7.344  0.1484  0.0478  0.3045
    7DOPE   H4X  861   4.035   5.139   7.279 -0.6792  3.0478  1.1099
    7DOPE   H4Y  862   4.180   5.239   7.336 -0.9243  0.5326 -2.4925
    7DOPE   C35  863   4.215   5.020   7.317  0.2181  0.6273 -0.3274
    7DOPE   H5X  864   4.147   4.932   7.322  2.9205 -1.5581  0.0239
    7DOPE   H5Y  865   4.280   5.000   7.404 -2.1501  0.2794  1.4685
    7DOPE   C36  866   4.281   5.018   7.176 -0.2442  0.2150 -0.0519
    7DOPE   H6X  867   4.367   4.949   7.190 -1.2023 -1.4581 -1.8710
    7DOPE   H6Y  868   4.320   5.120   7.158  1.6521 -0.4063  0.3004
    7DOPE   C37  869   4.187   4.960   7.068 -0.1147 -0.2018 -0.3312
    7DOPE   H7X  870   4.159   4.860   7.105  1.6897 -0.1159  1.4629
    7DOPE   H7Y  871   4.089   5.013   7.070 -1.0412 -1.8821  1.0501
    7DOPE   C38  872   4.237   4.966   6.923  0.2794 -0.0511  0.2955
    7DOPE   H8X  873   4.164   4.917   6.855  2.8219 -1.4571 -1.5726
    7DOPE   H8Y  874   4.326   4.900   6.917  0.6163  0.3220  0.9868
    7DOPE   C39  875   4.288   5.098   6.883  0.2979 -0.1106  0.0075
    7DOPE   H9X  876   4.351   5.156   6.952  0.7596  1.4302 -1.6245
    7DOPE  C310  877   4.280   5.138   6.754 -0.2614  0.2717  0.2456
    7DOPE  H10X  878   4.326   5.235   6.728 -0.1767  0.2895  0.4578
    7DOPE  C311  879   4.227   5.052   6.640  0.2450 -0.1718 -0.6380
    7DOPE  H11X  880   4.226   4.944   6.666 -0.8395  0.1206  0.6111
    7DOPE  H11Y  881   4.121   5.082   6.627  0.8096  2.6810  0.5211
    7DOPE  C312  882   4.314   5.077   6.510 -0.7887 -0.2072  0.0238
    7DOPE  H12X  883   4.416   5.037   6.527 -0.3988  0.6511 -0.2954
    7DOPE  H12Y  884   4.335   5.183   6.488 -0.9398 -0.2157 -0.1656
    7DOPE  C313  885   4.246   5.015   6.381  0.0173 -0.9459 -0.5540
    7DOPE  H13X  886   4.231   4.906   6.394  2.5452 -1.1937  1.1766
    7DOPE  H13Y  887   4.154   5.077   6.374  1.8083  2.0048  0.2540
    7DOPE  C314  888   4.333   5.032   6.259  0.7600 -0.2798 -0.4760
    7DOPE  H14X  889   4.430   4.985   6.283 -0.7901 -3.2845  0.3067
    7DOPE  H14Y  890   4.355   5.141   6.245  0.5053 -0.5375 -3.6874
    7DOPE  C315  891   4.273   4.964   6.123 -0.5347  0.5635 -0.2328
    7DOPE  H15X  892   4.268   4.854   6.134 -0.7342  0.6043  0.0977
    7DOPE  H15Y  893   4.351   4.988   6.048 -0.3883  1.1343  0.0899
    7DOPE  C316  894   4.129   5.008   6.083  0.2482  0.1445  0.4796
    7DOPE  H16X  895   4.145   5.108   6.038  3.6250 -0.3620  0.3125
    7DOPE  H16Y  896   4.064   5.026   6.172  0.4820  3.9310  0.0383
    7DOPE  C317  897   4.051   4.919   5.978 -0.1557  0.3229  0.5611
    7DOPE  H17X  898   4.050   4.810   6.001  1.6262 -0.3927 -2.1983
    7DOPE  H17Y  899   3.944   4.947   5.990 -0.4504 -0.7638  0.6576
    7DOPE  C318  900   4.104   4.956   5.834  0.1617  0.0977  0.4160
    7DOPE  H18X  901   4.213   4.937   5.834  0.2601  0.5960 -0.5983
    7DOPE  H18Y  902   4.053   4.895   5.757 -0.6194 -0.6993  1.5405
    7DOPE  H18Z  903   4.089   5.066   5.828  2.4822  0.4362 -0.0630
    8DOPE     N  904   5.268   5.316   8.320 -0.2381  0.6298  0.5050
    8DOPE   HN1  905   5.328   5.395   8.290  0.9279  0.0197  1.1462
    8DOPE   HN2  906   5.268   5.316   8.424 -1.3057 -0.0626  0.5259
    8DOPE   HN3  907   5.308   5.225   8.290 -1.7331 -0.0864  0.5753
    8DOPE   C12  908   5.137   5.338   8.256  0.3905  0.1124 -0.1774
    8DOPE  H12A  909   5.066   5.265   8.300 -1.5839  1.1753 -1.4699
    8DOPE  H12B  910   5.145   5.321   8.147 -3.3752 -2.6755 -0.2026
    8DOPE   C11  911   5.086   5.475   8.299 -0.0360 -0.9543  0.1022
    8DOPE  H11A  912   5.079   5.480   8.410 -1.7806 -0.2938  0.0024
    8DOPE  H11B  913   4.981   5.484   8.262  0.1531 -2.3130 -0.8087
    8DOPE     P  914   5.104   5.713   8.182 -0.3213  0.4134 -0.2769
    8DOPE   O13  915   5.186   5.829   8.224  0.0448 -0.2144 -0.2069
    8DOPE   O14  916   4.962   5.719   8.219 -0.7723  0.2524 -0.4164
    8DOPE   O11  917   5.107   5.684   8.030  0.1245  0.1028 -0.0656
    8DOPE   O12  918   5.175   5.581   8.236  0.7983  0.2336 -0.0952
    8DOPE    C1  919   5.239   5.678   7.968 -0.3749 -0.0174 -0.2794
    8DOPE    HA  920   5.273   5.574   7.983 -0.9996 -0.0314  1.2059
    8DOPE    HB  921   5.316   5.743   8.016 -1.1593 -0.4070  1.5733
    8DOPE    C2  922   5.230   5.685   7.816  0.4985  0.2992  0.6644
    8DOPE    HS  923   5.160   5.603   7.787  2.9904 -1.2613 -1.4183
    8DOPE   O21  924   5.367   5.669   7.760  0.9549  0.1748 -0.3649
    8DOPE   C21  925   5.370   5.553   7.696  0.1295 -0.0573  0.4008
    8DOPE   O22  926   5.284   5.463   7.702  0.2721 -0.6884  0.0516
    8DOPE   C22  927   5.489   5.559   7.600  0.3790  0.9859 -0.6265
    8DOPE   H2R  928   5.563   5.486   7.638 -0.0513 -0.9123 -3.1543
    8DOPE   H2S  929   5.539   5.658   7.602  0.5294  0.9923 -2.6004
    8DOPE    C3  930   5.163   5.817   7.768  0.9683 -0.0522  0.5489
    8DOPE    HX  931   5.241   5.892   7.793  2.7866 -1.1737 -1.4268
    8DOPE    HY  932   5.065   5.833   7.818 -0.6049  0.4271 -2.4543
    8DOPE   O31  933   5.142   5.815   7.625  1.4675 -0.6041  0.3163
    8DOPE   C31  934   5.080   5.917   7.577  0.1519 -0.1428 -0.6649
    8DOPE   O32  935   5.034   6.006   7.653 -0.4528 -0.0029  0.1072
    8DOPE   C32  936   5.090   5.922   7.423 -0.3261 -0.7178  0.1346
    8DOPE   H2X  937   5.191   5.889   7.391  0.5076  1.6604  0.1478
    8DOPE   H2Y  938   5.032   5.833   7.392 -0.8431 -1.1414  2.1970
    8DOPE   C23  939   5.450   5.518   7.459 -0.2358 -0.1658 -0.0816
    8DOPE   H3R  940   5.392   5.424   7.448  1.1742 -0.8502 -2.1605
    8DOPE   H3S  941   5.540   5.494   7.399  0.0569 -0.9477  0.6431
    8DOPE   C24  942   5.382   5.628   7.365  0.6028 -0.3026 -0.2970
    8DOPE   H4R  943   5.401   5.727   7.412  1.1679 -0.1562 -0.8170
    8DOPE   H4S  944   5.271   5.629   7.365  0.5724 -0.7258  1.3711
    8DOPE   C25  945   5.429   5.625   7.222 -0.4894 -0.2960  0.0507
    8DOPE   H5R  946   5.401   5.524   7.185  0.3934 -0.8374  0.7965
    8DOPE   H5S  947   5.539   5.629   7.206 -0.2938 -3.7943 -0.2947
    8DOPE   C26  948   5.355   5.722   7.127  0.5902 -0.3999  0.4696
    8DOPE   H6R  949   5.346   5.818   7.182 -0.4811 -1.5765  2.4501
    8DOPE   H6S  950   5.250   5.688   7.118 -0.3258  1.0836  3.9328
    8DOPE   C27  951   5.422   5.752   6.994  0.3065 -1.0455  0.1685
    8DOPE   H7R  952   5.520   5.803   6.994 -1.2464  2.2058 -0.7659
    8DOPE   H7S  953   5.351   5.824   6.947 -0.0890 -0.8643  1.0366
    8DOPE   C28  954   5.425   5.630   6.904  0.8439 -0.3075 -0.2315
    8DOPE   H8R  955   5.320   5.596   6.895  1.1899 -1.8840  1.1425
    8DOPE   H8S  956   5.484   5.551   6.954 -1.5828 -1.9058  0.2494
    8DOPE   C29  957   5.492   5.668   6.778 -0.4024  0.1282 -0.0152
    8DOPE   H9R  958   5.599   5.690   6.780 -0.1948 -0.4118 -2.0233
    8DOPE  C210  959   5.431   5.669   6.653  0.2419  1.0524 -0.6582
    8DOPE  H10R  960   5.493   5.687   6.565  1.5301 -1.4072 -0.3511
    8DOPE  C211  961   5.282   5.641   6.631  0.4212 -0.5735  0.6880
    8DOPE  H11R  962   5.224   5.633   6.725 -0.0152  1.4559  0.6238
    8DOPE  H11S  963   5.270   5.549   6.570  1.4085 -0.3321  0.1119
    8DOPE  C212  964   5.223   5.765   6.557 -0.4651  0.7357  0.2426
    8DOPE  H12R  965   5.114   5.749   6.543 -0.4034  0.1611  0.3868
    8DOPE  H12S  966   5.286   5.780   6.466  0.0129 -0.4374  0.3618
    8DOPE  C213  967   5.227   5.891   6.653  0.2152 -0.0987  0.5994
    8DOPE  H13R  968   5.324   5.940   6.631  0.1234  0.2942  1.0574
    8DOPE  H13S  969   5.220   5.866   6.762 -2.7062  2.7988  1.2306
    8DOPE  C214  970   5.111   5.989   6.620  0.0953  1.0388  0.6636
    8DOPE  H14R  971   5.108   6.021   6.514 -0.9972  1.1176  0.7137
    8DOPE  H14S  972   5.138   6.082   6.676  0.8082  2.6571 -2.1819
    8DOPE  C215  973   4.969   5.938   6.657  0.0699 -0.4263 -0.2900
    8DOPE  H15R  974   4.941   5.854   6.590  0.3011 -0.9135  0.2206
    8DOPE  H15S  975   4.894   6.015   6.629 -0.8226 -1.4373 -0.7229
    8DOPE  C216  976   4.943   5.917   6.805  0.2727 -0.0053 -0.1924
    8DOPE  H16R  977   4.982   6.003   6.864 -0.6079  0.4612 -0.2604
    8DOPE  H16S  978   4.993   5.825   6.840  1.5336  0.2287 -1.2872
    8DOPE  C217  979   4.800   5.894   6.835  0.3792 -0.8151  0.1292
    8DOPE  H17R  980   4.744   5.833   6.761 -0.5170 -0.2367  0.3090
    8DOPE  H17S  981   4.743   5.987   6.814 -2.1769 -2.8317 -2.6456
    8DOPE  C218  982   4.768   5.836   6.979  0.7981  0.0330  0.1694
    8DOPE  H18R  983   4.821   5.738   6.987  0.4031 -0.0118  2.8972
    8DOPE  H18S  984   4.660   5.811   6.980  0.2391  2.2424  1.5765
    8DOPE  H18T  985   4.797   5.914   7.052  0.4747  1.9619 -1.6660
    8DOPE   C33  986   5.044   6.059   7.358 -0.2359 -0.8028 -0.0955
    8DOPE   H3X  987   5.096   6.142   7.410 -3.5524  0.4880  1.4627
    8DOPE   H3Y  988   4.937   6.075   7.380 -0.2671 -2.8754  1.6029
    8DOPE   C34  989   5.061   6.072   7.203  0.7321 -0.1356  0.8357
    8DOPE   H4X  990   5.161   6.032   7.175  1.1753  0.5755  1.3475
    8DOPE   H4Y  991   4.983   6.012   7.153  0.9197 -0.5533  1.0445
    8DOPE   C35  992   5.051   6.221   7.148 -0.2089 -0.0391 -0.5172
    8DOPE   H5X  993   5.143   6.269   7.188  0.1324 -1.5494  0.6385
    8DOPE   H5Y  994   4.971   6.267   7.210  0.2342 -2.3979  2.0214
    8DOPE   C36  995   5.055   6.217   6.999 -0.0580  0.0088 -0.6441
    8DOPE   H6X  996   4.957   6.173   6.971  0.4353 -1.4808 -0.1297
    8DOPE   H6Y  997   5.130   6.143   6.963  0.8913  0.0989  1.0116
    8DOPE   C37  998   5.071   6.361   6.933  0.1571  0.6062  0.1722
    8DOPE   H7X  999   4.988   6.429   6.958 -0.2040  0.5911 -0.9088
    8DOPE   H7Y 1000   5.172   6.397   6.962  0.4403  0.4845 -0.6218
    8DOPE   C38 1001   5.071   6.342   6.773 -0.0650  0.1226  0.3808
    8DOPE   H8X 1002   4.969   6.304   6.752 -0.1061 -1.4251  3.0162
    8DOPE   H8Y 1003   5.156   6.273   6.754 -1.3653 -1.0597 -1.4851
    8DOPE   C39 1004   5.095   6.474   6.696  0.0889  0.2561 -0.5447
    8DOPE   H9X 1005   5.058   6.558   6.757 -1.9639  0.1132 -1.4904
    8DOPE  C310 1006   5.159   6.494   6.584 -0.0417  0.5509  0.1104
    8DOPE  H10X 1007   5.168   6.595   6.541 -2.1777 -0.1359 -2.2000
    8DOPE  C311 1008   5.224   6.388   6.498  0.2568  0.1136  0.4721
    8DOPE  H11X 1009   5.334   6.399   6.492  0.4772 -0.5067  2.5366
    8DOPE  H11Y 1010   5.199   6.286   6.533 -1.6010  0.3936  0.0672
    8DOPE  C312 1011   5.168   6.401   6.351 -0.1699  0.4363  0.0816
    8DOPE  H12X 1012   5.241   6.341   6.292 -0.2955 -1.1463  1.4483
    8DOPE  H12Y 1013   5.172   6.504   6.311  1.1664  0.5518  0.4633
    8DOPE  C313 1014   5.033   6.332   6.349  0.0225 -0.1028  0.6252
    8DOPE  H13X 1015   5.050   6.228   6.383  1.5735  0.1080  0.5431
    8DOPE  H13Y 1016   4.970   6.376   6.430  0.6555 -0.6100  1.4068
    8DOPE  C314 1017   4.954   6.323   6.220 -0.1248 -0.2723 -0.3855
    8DOPE  H14X 1018   4.881   6.239   6.223  0.5181 -0.8126  1.2926
    8DOPE  H14Y 1019   5.023   6.313   6.133  0.0794  3.8265 -0.8590
    8DOPE  C315 1020   4.880   6.454   6.194 -1.3462  0.3263 -0.0269
    8DOPE  H15X 1021   4.957   6.533   6.178 -0.3187  0.0280  2.8344
    8DOPE  H15Y 1022   4.820   6.484   6.283  1.6889 -0.2717  2.4169
    8DOPE  C316 1023   4.795   6.445   6.067 -0.5157 -0.4217  0.1865
    8DOPE  H16X 1024   4.855   6.394   5.988  1.3307 -0.8119  1.7700
    8DOPE  H16Y 1025   4.775   6.546   6.026  2.2113  0.5689  1.0966
    8DOPE  C317 1026   4.665   6.365   6.085  0.4998  0.0933  0.4322
    8DOPE  H17X 1027   4.686   6.273   6.144  1.7785 -0.4773 -0.8654
    8DOPE  H17Y 1028   4.588   6.433   6.129 -0.1350 -0.5205  0.2840
    8DOPE  C318 1029   4.593   6.307   5.953 -0.4983 -0.1827 -0.4328
    8DOPE  H18X 1030   4.579   6.394   5.885  0.7277  0.3640 -0.0154
    8DOPE  H18Y 1031   4.496   6.258   5.975 -0.6860  0.4885  0.3015
    8DOPE  H18Z 1032   4.658   6.236   5.898 -0.5512  0.1646 -0.9449
    9DOPE     N 1033   2.092   4.083   8.494 -0.2625  0.3746 -0.1909
    9DOPE   HN1 1034   2.078   4.185   8.479  0.2883  0.3303 -1.0308
    9DOPE   HN2 1035   2.174   4.068   8.556  3.0892  0.0468 -4.2759
    9DOPE   HN3 1036   2.129   4.034   8.411 -2.2940  1.4676 -1.8267
    9DOPE   C12 1037   1.963   4.017   8.528  0.5054 -0.5364  0.5102
    9DOPE  H12A 1038   1.943   4.024   8.637  0.0578 -0.6534  0.4332
    9DOPE  H12B 1039   1.953   3.911   8.497 -1.7965 -1.0040  2.5496
    9DOPE   C11 1040   1.860   4.087   8.445  0.6451  0.0677  0.9457
    9DOPE  H11A 1041   1.886   4.064   8.339  1.5595  0.8219  0.9941
    9DOPE  H11B 1042   1.852   4.198   8.450 -0.4131  0.1455 -1.2752
    9DOPE     P 1043   1.620   4.077   8.561  0.0063  0.0825 -0.4474
    9DOPE   O13 1044   1.665   4.200   8.626  0.0327 -0.1809  0.1569
    9DOPE   O14 1045   1.573   3.968   8.649 -0.3928  0.2922  0.0616
    9DOPE   O11 1046   1.505   4.102   8.459  0.6331 -0.5405 -0.8085
    9DOPE   O12 1047   1.732   4.022   8.465 -0.1139  0.7008  0.1132
    9DOPE    C1 1048   1.503   4.209   8.365 -0.1733  0.5497 -0.1019
    9DOPE    HA 1049   1.598   4.265   8.358 -1.3284  2.6962  0.4417
    9DOPE    HB 1050   1.424   4.284   8.389 -0.4314 -0.1388  1.3600
    9DOPE    C2 1051   1.475   4.165   8.217  0.1845 -0.4469  0.7747
    9DOPE    HS 1052   1.466   4.262   8.163 -1.2370 -0.8993  0.1704
    9DOPE   O21 1053   1.348   4.091   8.215  0.4289  0.3905 -0.3226
    9DOPE   C21 1054   1.253   4.130   8.129  0.5704 -0.5279  0.6380
    9DOPE   O22 1055   1.263   4.218   8.048 -0.5260 -0.2493 -0.0914
    9DOPE   C22 1056   1.119   4.060   8.152  0.2255  0.4112 -0.1116
    9DOPE   H2R 1057   1.037   4.135   8.159 -0.1137  0.0228  0.1133
    9DOPE   H2S 1058   1.115   4.015   8.254 -2.4087  2.8692  1.0139
    9DOPE    C3 1059   1.586   4.072   8.160  0.1587  0.0900  0.8293
    9DOPE    HX 1060   1.595   3.987   8.232  0.1820 -0.9026 -0.3050
    9DOPE    HY 1061   1.680   4.129   8.153  2.6838 -3.8415 -1.9066
    9DOPE   O31 1062   1.550   4.024   8.027  0.1826  0.7168  0.2159
    9DOPE   C31 1063   1.569   4.111   7.930  0.5986  0.2177  0.3489
    9DOPE   O32 1064   1.611   4.227   7.939  0.2551  0.4874  0.3164
    9DOPE   C32 1065   1.531   4.045   7.790 -0.1169 -0.4883 -0.2916
    9DOPE   H2X 1066   1.564   3.941   7.807 -0.1694 -0.9726 -2.7845
    9DOPE   H2Y 1067   1.421   4.053   7.777 -0.0223 -0.5990 -1.2419
    9DOPE   C23 1068   1.085   3.941   8.059  0.1246  0.3388  1.0130
    9DOPE   H3R 1069   0.996   3.880   8.088 -0.5973  0.9262  0.1059
    9DOPE   H3S 1070   1.173   3.874   8.055  0.4715  0.8262 -1.5777
    9DOPE   C24 1071   1.075   3.982   7.915  0.3708 -0.5105 -0.5199
    9DOPE   H4R 1072   1.160   4.050   7.892  0.5086 -0.7590 -0.7569
    9DOPE   H4S 1073   0.990   4.050   7.895  0.2545 -0.9702 -1.6771
    9DOPE   C25 1074   1.063   3.859   7.832  0.8264 -0.5682  0.1358
    9DOPE   H5R 1075   0.962   3.816   7.855  0.5946 -0.9710 -1.5212
    9DOPE   H5S 1076   1.129   3.774   7.859  0.7633 -0.1750  1.6552
    9DOPE   C26 1077   1.055   3.891   7.677  0.0780 -0.1344  0.1510
    9DOPE   H6R 1078   1.152   3.943   7.662  0.5644 -0.0586  2.9719
    9DOPE   H6S 1079   0.965   3.954   7.662  1.5848  1.8192 -1.2257
    9DOPE   C27 1080   1.069   3.773   7.591  0.2340  0.5342 -0.1788
    9DOPE   H7R 1081   1.011   3.691   7.638 -1.8141  1.4079 -1.0715
    9DOPE   H7S 1082   1.171   3.730   7.576 -0.2161 -0.2352 -1.0943
    9DOPE   C28 1083   0.998   3.782   7.460  0.4170 -0.0316 -0.2559
    9DOPE   H8R 1084   0.897   3.823   7.481  1.8032  1.6942  4.0558
    9DOPE   H8S 1085   0.982   3.679   7.421 -1.7840 -0.7335  2.2031
    9DOPE   C29 1086   1.072   3.870   7.364  0.1945  0.7609 -0.1150
    9DOPE   H9R 1087   1.084   3.974   7.396  0.3879  1.1206 -1.2903
    9DOPE  C210 1088   1.125   3.829   7.243 -0.4129 -0.0699  0.4067
    9DOPE  H10R 1089   1.179   3.907   7.188  1.8802  0.3437  3.0107
    9DOPE  C211 1090   1.096   3.694   7.169  0.0924  0.0859  0.0574
    9DOPE  H11R 1091   1.005   3.649   7.213 -0.4666  1.4145  0.2895
    9DOPE  H11S 1092   1.182   3.623   7.176 -0.4870 -0.6209  0.0630
    9DOPE  C212 1093   1.054   3.709   7.020 -0.2047  0.5496  0.0309
    9DOPE  H12R 1094   1.016   3.612   6.980 -1.6318  1.8217 -1.8932
    9DOPE  H12S 1095   1.138   3.751   6.961 -0.3388  0.6455 -0.0923
    9DOPE  C213 1096   0.935   3.805   6.993  0.1058 -0.2224  0.4718
    9DOPE  H13R 1097   0.958   3.907   7.031  0.5407  0.7147 -2.0753
    9DOPE  H13S 1098   0.845   3.773   7.049 -0.4536  0.0351 -0.2579
    9DOPE  C214 1099   0.902   3.823   6.837 -0.2544 -0.7887 -0.6946
    9DOPE  H14R 1100   0.989   3.855   6.777 -1.9135 -1.0496 -3.4364
    9DOPE  H14S 1101   0.831   3.907   6.821  1.6762  0.5767 -2.5283
    9DOPE  C215 1102   0.848   3.691   6.776 -0.4640 -0.5660  0.3283
    9DOPE  H15R 1103   0.792   3.642   6.859 -0.3032  1.8607  1.9890
    9DOPE  H15S 1104   0.938   3.632   6.747  0.2474  0.8415 -0.4193
    9DOPE  C216 1105   0.753   3.712   6.655  0.1891 -0.4424 -0.1517
    9DOPE  H16R 1106   0.815   3.750   6.571 -1.0452  0.5170 -0.6726
    9DOPE  H16S 1107   0.682   3.791   6.690 -0.4230 -0.4257 -1.3778
    9DOPE  C217 1108   0.675   3.586   6.605  0.4995 -0.5904  0.3275
    9DOPE  H17R 1109   0.615   3.612   6.515  0.4998 -2.4916 -0.2502
    9DOPE  H17S 1110   0.599   3.564   6.684 -0.6199  0.4085 -0.4160
    9DOPE  C218 1111   0.749   3.454   6.590  0.0186 -0.2483 -0.0742
    9DOPE  H18R 1112   0.838   3.460   6.524 -0.3057  2.5660 -0.3555
    9DOPE  H18S 1113   0.675   3.384   6.544  0.4179 -1.9077  1.6500
    9DOPE  H18T 1114   0.774   3.422   6.693 -3.5318 -0.9386  0.7276
    9DOPE   C33 1115   1.608   4.106   7.669  0.0646  0.3521 -0.0719
    9DOPE   H3X 1116   1.710   4.133   7.701  0.6612 -1.0856 -0.6412
    9DOPE   H3Y 1117   1.548   4.195   7.642  0.0281  0.1922 -0.5316
    9DOPE   C34 1118   1.624   4.007   7.556  0.2162  0.0292  0.5932
    9DOPE   H4X 1119   1.695   4.055   7.484  0.0983 -1.9446 -0.9022
    9DOPE   H4Y 1120   1.675   3.915   7.589  1.4972  0.5144  0.0521
    9DOPE   C35 1121   1.491   3.971   7.486 -0.7194  0.5433  0.4849
    9DOPE   H5X 1122   1.438   4.067   7.471 -0.7573  0.5176  0.4520
    9DOPE   H5Y 1123   1.450   3.902   7.563  1.5759 -0.5380  0.8335
    9DOPE   C36 1124   1.505   3.900   7.350  0.7007 -0.2777  0.3052
    9DOPE   H6X 1125   1.402   3.876   7.316 -0.1817  2.0270  1.2155
    9DOPE   H6Y 1126   1.574   3.813   7.363  3.7154  1.7695 -0.8813
    9DOPE   C37 1127   1.567   3.977   7.231 -0.8197  0.6342  0.1137
    9DOPE   H7X 1128   1.523   4.078   7.217  1.2136  1.8476  1.8203
    9DOPE   H7Y 1129   1.671   3.995   7.266 -0.3657 -1.9101  0.2910
    9DOPE   C38 1130   1.567   3.882   7.109 -0.0310  0.0856  0.2877
    9DOPE   H8X 1131   1.556   3.780   7.152  0.3217  0.1083  0.4331
    9DOPE   H8Y 1132   1.658   3.899   7.048 -0.8030  4.7996  0.0436
    9DOPE   C39 1133   1.441   3.921   7.031 -0.5096  0.2061  0.3564
    9DOPE   H9X 1134   1.350   3.926   7.093 -1.6044 -0.5895 -1.1265
    9DOPE  C310 1135   1.421   3.930   6.902  0.0458 -0.8792  0.5022
    9DOPE  H10X 1136   1.331   3.989   6.878  0.6076  0.3349  1.2884
    9DOPE  C311 1137   1.523   3.909   6.794 -0.3221 -0.4621  0.6816
    9DOPE  H11X 1138   1.507   3.977   6.708 -0.9746  0.7718  1.7335
    9DOPE  H11Y 1139   1.626   3.921   6.833  0.5284  1.0520 -1.8473
    9DOPE  C312 1140   1.492   3.769   6.754 -0.3068 -0.0424  0.4551
    9DOPE  H12X 1141   1.510   3.696   6.836 -0.2847 -1.0772 -0.4547
    9DOPE  H12Y 1142   1.562   3.740   6.672 -0.4901  0.3162  0.1698
    9DOPE  C313 1143   1.348   3.749   6.704  0.3180  0.7691  0.2001
    9DOPE  H13X 1144   1.280   3.732   6.791 -0.6486  1.6535 -0.3550
    9DOPE  H13Y 1145   1.315   3.834   6.640 -1.1742 -0.5404 -0.8442
    9DOPE  C314 1146   1.357   3.626   6.599  0.0463  0.1584 -0.0069
    9DOPE  H14X 1147   1.394   3.540   6.659 -1.5679 -0.7139 -0.2160
    9DOPE  H14Y 1148   1.422   3.651   6.512  0.3783 -1.3469 -0.2295
    9DOPE  C315 1149   1.224   3.581   6.530 -0.4560 -0.3543 -0.0922
    9DOPE  H15X 1150   1.192   3.660   6.459  0.7669 -1.1884 -1.6266
    9DOPE  H15Y 1151   1.150   3.563   6.611  0.8418  2.2138  1.7757
    9DOPE  C316 1152   1.241   3.453   6.444 -0.0037 -0.3012  0.1292
    9DOPE  H16X 1153   1.230   3.354   6.494  1.4435 -1.1986 -1.2463
    9DOPE  H16Y 1154   1.341   3.463   6.398 -0.2891  0.0275 -0.4194
    9DOPE  C317 1155   1.128   3.438   6.332  0.0204  0.1154 -0.6655
    9DOPE  H17X 1156   1.035   3.449   6.391  0.4343  0.5493 -0.0893
    9DOPE  H17Y 1157   1.135   3.530   6.270 -1.7477  1.1795  0.6512
    9DOPE  C318 1158   1.130   3.308   6.260  0.2049 -0.5402  0.2802
    9DOPE  H18X 1159   1.075   3.313   6.164  0.1383 -3.0111  0.1185
    9DOPE  H18Y 1160   1.232   3.267   6.246  0.4068 -0.3951  1.2790
    9DOPE  H18Z 1161   1.071   3.233   6.316 -2.0663  0.6761 -0.3511
   10DOPE     N 1162   2.344   5.635   8.737 -0.1821  0.9264  0.3335
   10DOPE   HN1 1163   2.391   5.565   8.798  2.4076  2.2964  0.0395
   10DOPE   HN2 1164   2.406   5.638   8.654  0.9200  0.3097  1.1120
   10DOPE   HN3 1165   2.349   5.730   8.779  0.4231  1.1510 -0.2232
   10DOPE   C12 1166   2.214   5.592   8.677  0.0597 -0.2856 -0.4428
   10DOPE  H12A 1167   2.186   5.661   8.595  1.3084  0.7437 -0.0542
   10DOPE  H12B 1168   2.148   5.615   8.764 -0.4060  1.5256 -1.2191
   10DOPE   C11 1169   2.211   5.444   8.639 -0.2903 -0.5354  0.1805
   10DOPE  H11A 1170   2.112   5.413   8.598 -0.9774 -0.5266  1.7500
   10DOPE  H11B 1171   2.242   5.387   8.729  0.9088  1.3109  1.0057
   10DOPE     P 1172   2.285   5.444   8.382 -0.2995  0.2892  0.2469
   10DOPE   O13 1173   2.391   5.368   8.303 -0.0618  0.0488  0.3340
   10DOPE   O14 1174   2.289   5.595   8.373  0.1480 -0.5267  0.3219
   10DOPE   O11 1175   2.143   5.398   8.347  0.0562  0.1954  0.0870
   10DOPE   O12 1176   2.303   5.409   8.533 -0.1489 -0.2375 -0.6730
   10DOPE    C1 1177   2.084   5.268   8.369 -0.3203  0.5231  0.4314
   10DOPE    HA 1178   1.986   5.281   8.418 -1.2296 -0.1594 -1.1351
   10DOPE    HB 1179   2.146   5.205   8.437 -0.3801 -0.8760 -0.7640
   10DOPE    C2 1180   2.064   5.190   8.233 -0.5215 -0.0555  0.2071
   10DOPE    HS 1181   2.006   5.097   8.246  0.5461 -1.4092 -3.4775
   10DOPE   O21 1182   2.191   5.173   8.168 -0.2300  0.3933 -0.2196
   10DOPE   C21 1183   2.198   5.067   8.092  0.2555  0.0696 -0.4801
   10DOPE   O22 1184   2.107   4.981   8.088  0.7839 -0.8434  0.0163
   10DOPE   C22 1185   2.328   5.061   8.014 -0.0907 -1.0855  0.2087
   10DOPE   H2R 1186   2.408   5.056   8.091 -0.3898 -3.3444  0.4488
   10DOPE   H2S 1187   2.339   5.160   7.964 -3.0101 -1.1993 -0.8133
   10DOPE    C3 1188   1.985   5.285   8.134 -0.1245 -0.5500 -0.3625
   10DOPE    HX 1189   2.043   5.373   8.100 -2.0584  0.3499 -1.4782
   10DOPE    HY 1190   1.904   5.331   8.193 -1.0638 -0.1867 -1.8890
   10DOPE   O31 1191   1.952   5.212   8.017  0.3840  0.1215  0.6939
   10DOPE   C31 1192   1.825   5.175   8.003 -0.5564  0.0116 -0.3582
   10DOPE   O32 1193   1.731   5.211   8.070  0.3789  0.0834  0.0080
   10DOPE   C32 1194   1.831   5.086   7.879 -0.0121  0.1272 -0.3497
   10DOPE   H2X 1195   1.934   5.045   7.873 -1.2371 -3.1810 -1.0270
   10DOPE   H2Y 1196   1.764   4.997   7.891  0.4904 -0.0828  1.2268
   10DOPE   C23 1197   2.339   4.950   7.914 -0.1744 -0.2396 -0.2731
   10DOPE   H3R 1198   2.350   4.849   7.960  0.8185 -0.4706 -0.9760
   10DOPE   H3S 1199   2.428   4.973   7.850  0.1500  1.1754  0.6438
   10DOPE   C24 1200   2.231   4.927   7.813  0.2726  1.1125  0.4916
   10DOPE   H4R 1201   2.215   5.024   7.761  0.5759  1.2849  0.7079
   10DOPE   H4S 1202   2.136   4.897   7.861  0.5573  2.8843  2.2985
   10DOPE   C25 1203   2.276   4.835   7.702 -0.5716  0.2788  0.0588
   10DOPE   H5R 1204   2.276   4.732   7.744 -0.8417 -0.2045 -1.0863
   10DOPE   H5S 1205   2.383   4.854   7.678 -1.0347 -0.2021 -2.6098
   10DOPE   C26 1206   2.183   4.844   7.585  0.0788 -0.2945 -0.0734
   10DOPE   H6R 1207   2.150   4.948   7.565 -1.6189 -0.3188  2.1667
   10DOPE   H6S 1208   2.085   4.801   7.614  0.6011 -1.6956 -0.3237
   10DOPE   C27 1209   2.232   4.773   7.461 -0.0624  1.2770  0.0272
   10DOPE   H7R 1210   2.267   4.669   7.479  0.8576  1.1730 -2.0588
   10DOPE   H7S 1211   2.309   4.839   7.413 -0.7843  0.7000 -2.0235
   10DOPE   C28 1212   2.113   4.755   7.358 -0.0424 -0.0433 -0.2386
   10DOPE   H8R 1213   2.070   4.852   7.327 -0.1721 -0.2610 -0.7560
   10DOPE   H8S 1214   2.026   4.701   7.400  0.7918  0.3957  2.2028
   10DOPE   C29 1215   2.162   4.678   7.236  0.0642 -0.4294  0.3330
   10DOPE   H9R 1216   2.102   4.589   7.212  0.0599 -0.5388  0.7444
   10DOPE  C210 1217   2.249   4.720   7.136 -0.0118 -0.0058  0.3603
   10DOPE  H10R 1218   2.262   4.657   7.046 -1.1658  0.1699  0.0584
   10DOPE  C211 1219   2.315   4.854   7.132  0.3755 -0.0160 -0.4434
   10DOPE  H11R 1220   2.412   4.857   7.187 -1.5381 -0.0997  3.2692
   10DOPE  H11S 1221   2.245   4.920   7.186  0.1871 -1.4645  1.1807
   10DOPE  C212 1222   2.323   4.895   6.986 -0.8199  0.3349 -0.3002
   10DOPE  H12R 1223   2.372   4.994   6.997 -0.1161 -0.0007 -0.3616
   10DOPE  H12S 1224   2.226   4.916   6.935 -0.4287 -1.4220 -1.8615
   10DOPE  C213 1225   2.416   4.829   6.886  0.0193  0.4189 -0.0743
   10DOPE  H13R 1226   2.389   4.723   6.869 -0.2270  0.5359 -0.4274
   10DOPE  H13S 1227   2.516   4.825   6.935  0.4226 -0.3206 -0.9344
   10DOPE  C214 1228   2.428   4.915   6.764  0.5551 -0.9955  0.0715
   10DOPE  H14R 1229   2.458   5.018   6.793 -4.1972  0.3725  0.9417
   10DOPE  H14S 1230   2.327   4.930   6.720  0.3027  1.4190  1.3221
   10DOPE  C215 1231   2.523   4.861   6.655  0.6244 -0.6884  0.3703
   10DOPE  H15R 1232   2.482   4.760   6.631  0.1760 -0.1905 -1.0721
   10DOPE  H15S 1233   2.627   4.836   6.685  1.5674  0.5345 -1.6844
   10DOPE  C216 1234   2.526   4.951   6.531  0.6754 -0.1628  0.7756
   10DOPE  H16R 1235   2.544   5.057   6.558  1.0797  0.1216 -0.5218
   10DOPE  H16S 1236   2.423   4.958   6.490  0.7358  2.0690  0.8728
   10DOPE  C217 1237   2.636   4.908   6.428 -0.1216  0.4213 -0.2921
   10DOPE  H17R 1238   2.722   4.866   6.484 -0.3344 -2.7467 -2.0936
   10DOPE  H17S 1239   2.670   4.993   6.364  0.1963  0.7789  0.3334
   10DOPE  C218 1240   2.591   4.797   6.330  0.1828  0.4026 -0.0259
   10DOPE  H18R 1241   2.550   4.828   6.231  0.2506  1.4076  0.2496
   10DOPE  H18S 1242   2.506   4.735   6.365 -0.0443 -0.9115 -2.6951
   10DOPE  H18T 1243   2.682   4.741   6.301 -0.5838 -1.8082  1.5397
   10DOPE   C33 1244   1.804   5.170   7.752  0.9420  0.1130  0.2677
   10DOPE   H3X 1245   1.888   5.241   7.737  0.7638  0.5341  1.2070
   10DOPE   H3Y 1246   1.706   5.222   7.766  0.7521 -0.3161  0.5423
   10DOPE   C34 1247   1.809   5.078   7.623 -0.1919 -0.4305  0.6635
   10DOPE   H4X 1248   1.904   5.021   7.629  0.1711 -0.0509 -0.8358
   10DOPE   H4Y 1249   1.733   4.998   7.632 -2.0694  1.2879  0.9607
   10DOPE   C35 1250   1.816   5.158   7.487 -0.2692  1.2382 -0.2828
   10DOPE   H5X 1251   1.903   5.226   7.490  0.4901  0.4125 -2.0347
   10DOPE   H5Y 1252   1.724   5.221   7.488 -1.5202 -0.4363 -2.2309
   10DOPE   C36 1253   1.822   5.063   7.368 -0.2944 -0.0378 -0.6441
   10DOPE   H6X 1254   1.727   5.006   7.377 -0.9413  1.0852 -0.0847
   10DOPE   H6Y 1255   1.911   4.997   7.369  1.8503  2.6363  1.3953
   10DOPE   C37 1256   1.804   5.144   7.237 -0.9936  0.3778 -0.0531
   10DOPE   H7X 1257   1.706   5.195   7.238 -1.3727 -0.2627 -1.3616
   10DOPE   H7Y 1258   1.896   5.207   7.233 -1.0329  0.4562  0.3092
   10DOPE   C38 1259   1.810   5.052   7.111 -0.4054 -0.0573  0.6846
   10DOPE   H8X 1260   1.739   4.968   7.101 -0.0723 -0.1905 -0.8640
   10DOPE   H8Y 1261   1.908   5.002   7.129  0.5460  1.0421 -1.1138
   10DOPE   C39 1262   1.800   5.132   6.988 -0.2888 -0.5178 -0.0685
   10DOPE   H9X 1263   1.713   5.198   6.977  1.5735  2.0230 -0.2645
   10DOPE  C310 1264   1.895   5.144   6.895  0.5085  0.1511  0.0455
   10DOPE  H10X 1265   1.877   5.213   6.812  1.8750  0.4051 -0.0674
   10DOPE  C311 1266   2.036   5.087   6.908  0.0504  0.0447  0.7909
   10DOPE  H11X 1267   2.047   5.019   6.995 -0.9276 -2.4738 -0.9491
   10DOPE  H11Y 1268   2.052   5.026   6.817  1.4452  2.7763 -0.9345
   10DOPE  C312 1269   2.142   5.195   6.906  0.1411  0.4275 -0.3153
   10DOPE  H12X 1270   2.120   5.265   6.823  0.8516 -0.6846 -1.4821
   10DOPE  H12Y 1271   2.246   5.156   6.899  0.8040  1.4971  2.4017
   10DOPE  C313 1272   2.140   5.281   7.042 -0.3249  0.0958  1.0017
   10DOPE  H13X 1273   2.208   5.367   7.024 -0.8242  0.2660 -0.2075
   10DOPE  H13Y 1274   2.035   5.313   7.060 -0.7054 -1.2232  1.2512
   10DOPE  C314 1275   2.189   5.202   7.169  0.2013 -0.3811  0.2212
   10DOPE  H14X 1276   2.290   5.160   7.148 -0.1149 -1.0021 -0.0742
   10DOPE  H14Y 1277   2.119   5.121   7.198  1.0677 -1.2820 -0.1375
   10DOPE  C315 1278   2.203   5.310   7.284  0.5070 -0.5336 -0.5316
   10DOPE  H15X 1279   2.110   5.371   7.287  0.8431  0.0869 -1.9102
   10DOPE  H15Y 1280   2.282   5.380   7.250 -1.1009  1.0198 -1.3149
   10DOPE  C316 1281   2.213   5.252   7.424 -0.4302  0.3955  0.2873
   10DOPE  H16X 1282   2.318   5.221   7.441 -1.0002 -1.7614  0.1360
   10DOPE  H16Y 1283   2.146   5.165   7.440  1.1280 -1.0440 -0.6950
   10DOPE  C317 1284   2.204   5.354   7.537 -0.4332  0.0207 -0.3479
   10DOPE  H17X 1285   2.273   5.436   7.507 -1.8787  0.8909 -1.4190
   10DOPE  H17Y 1286   2.101   5.394   7.543 -1.3923 -1.8263 -2.8546
   10DOPE  C318 1287   2.235   5.287   7.668  0.1551  0.5165 -0.0962
   10DOPE  H18X 1288   2.302   5.201   7.648 -0.7222  0.0650 -1.2618
   10DOPE  H18Y 1289   2.285   5.352   7.743  3.4589 -2.9109  0.9740
   10DOPE  H18Z 1290   2.142   5.243   7.709  1.9929 -2.4653  1.1918
   11DOPE     N 1291   0.913   2.743   8.457 -0.5440  0.2964 -0.1939
   11DOPE   HN1 1292   0.904   2.712   8.358  1.1780 -1.2732  0.0952
   11DOPE   HN2 1293   0.900   2.846   8.459 -2.3226  0.1009 -0.2187
   11DOPE   HN3 1294   1.000   2.707   8.501 -0.2545 -0.1288 -1.0839
   11DOPE   C12 1295   0.802   2.682   8.531  0.0821  0.3054 -0.5062
   11DOPE  H12A 1296   0.814   2.717   8.635 -0.6348  2.4319 -1.0821
   11DOPE  H12B 1297   0.808   2.571   8.532  0.4679  0.3181  1.5100
   11DOPE   C11 1298   0.664   2.725   8.483 -0.6024  0.9752 -0.1749
   11DOPE  H11A 1299   0.590   2.652   8.523 -1.2933  1.5574 -0.3692
   11DOPE  H11B 1300   0.660   2.724   8.372  1.7118 -0.2609 -0.2961
   11DOPE     P 1301   0.479   2.893   8.586 -0.1882  0.0502  0.2954
   11DOPE   O13 1302   0.497   2.992   8.692  0.2123 -0.0842 -0.1714
   11DOPE   O14 1303   0.396   2.775   8.621 -0.1156  0.0427 -0.8690
   11DOPE   O11 1304   0.406   2.954   8.464 -0.1331 -0.5997  0.1560
   11DOPE   O12 1305   0.623   2.849   8.541 -0.1320 -0.2563 -0.1450
   11DOPE    C1 1306   0.457   2.955   8.328  0.0251 -0.4214 -0.5280
   11DOPE    HA 1307   0.568   2.959   8.320  0.1407  1.5474  1.3710
   11DOPE    HB 1308   0.430   3.054   8.287  1.0768  0.4364  0.7854
   11DOPE    C2 1309   0.398   2.844   8.239 -0.4632  0.3857 -0.2660
   11DOPE    HS 1310   0.443   2.744   8.254  1.6836  1.3423  0.0954
   11DOPE   O21 1311   0.410   2.881   8.101  0.1554  0.3150 -0.1798
   11DOPE   C21 1312   0.533   2.884   8.051  0.3656  0.3610 -0.0204
   11DOPE   O22 1313   0.632   2.847   8.113 -0.3707 -0.4634  0.6893
   11DOPE   C22 1314   0.528   2.934   7.907  0.6429 -1.0524 -0.5135
   11DOPE   H2R 1315   0.501   3.041   7.919  2.4823 -0.5618 -0.4241
   11DOPE   H2S 1316   0.441   2.891   7.853 -0.4247  0.5509 -0.1288
   11DOPE    C3 1317   0.242   2.838   8.266 -0.3975  0.8750  0.4056
   11DOPE    HX 1318   0.213   2.939   8.230  1.5231  1.2008 -0.3747
   11DOPE    HY 1319   0.214   2.816   8.371  0.2951 -2.0157  0.0792
   11DOPE   O31 1320   0.181   2.742   8.176  0.4685  0.1472 -0.7560
   11DOPE   C31 1321   0.192   2.614   8.230 -0.3682  0.5457 -0.6255
   11DOPE   O32 1322   0.248   2.600   8.340  0.1566 -0.3941  0.0945
   11DOPE   C32 1323   0.125   2.513   8.138  0.1686 -0.6555  0.0145
   11DOPE   H2X 1324   0.089   2.433   8.205 -0.7717 -1.5196 -1.4636
   11DOPE   H2Y 1325   0.025   2.545   8.099 -0.2776 -0.1510  1.4950
   11DOPE   C23 1326   0.650   2.915   7.829 -0.4448  0.4523 -0.3837
   11DOPE   H3R 1327   0.682   2.811   7.810 -0.3941  1.0387 -4.3230
   11DOPE   H3S 1328   0.735   2.955   7.888 -1.1229 -0.8221  1.5838
   11DOPE   C24 1329   0.638   2.986   7.694 -0.3272 -0.6739  0.9478
   11DOPE   H4R 1330   0.648   3.094   7.719 -0.8961 -0.8836  2.1615
   11DOPE   H4S 1331   0.534   2.980   7.656  0.1060  1.7099 -0.8180
   11DOPE   C25 1332   0.758   2.944   7.607  0.1455  0.4913 -0.3556
   11DOPE   H5R 1333   0.757   2.833   7.600  1.1044  0.5171 -1.0310
   11DOPE   H5S 1334   0.855   2.969   7.654 -0.3076 -2.1426  2.2815
   11DOPE   C26 1335   0.746   3.004   7.467 -0.8565 -0.5170 -0.2484
   11DOPE   H6R 1336   0.776   3.110   7.477 -0.3667 -0.6103 -0.7238
   11DOPE   H6S 1337   0.648   3.005   7.414  0.3525  0.9489 -2.6206
   11DOPE   C27 1338   0.847   2.951   7.363 -0.1090  0.4434  0.0573
   11DOPE   H7R 1339   0.941   2.919   7.413  1.4500  4.4698  0.1007
   11DOPE   H7S 1340   0.878   3.041   7.305 -1.5264  0.8310 -0.1324
   11DOPE   C28 1341   0.790   2.843   7.262  0.4245  0.0182  0.3743
   11DOPE   H8R 1342   0.730   2.772   7.323  1.8974 -1.7979 -0.1956
   11DOPE   H8S 1343   0.873   2.782   7.220 -0.4214  0.1769 -1.6374
   11DOPE   C29 1344   0.710   2.907   7.153  1.4922  0.8303 -0.0719
   11DOPE   H9R 1345   0.632   2.969   7.199 -0.6019 -1.8130  0.1668
   11DOPE  C210 1346   0.725   2.907   7.019  0.2674  0.0146 -0.2031
   11DOPE  H10R 1347   0.647   2.946   6.952  0.4035 -0.4949 -0.6592
   11DOPE  C211 1348   0.820   2.814   6.950  0.4255  0.2494 -0.4018
   11DOPE  H11R 1349   0.912   2.799   7.011  0.7828 -1.1891 -1.2461
   11DOPE  H11S 1350   0.845   2.856   6.850  3.0128 -0.0559  0.0459
   11DOPE  C212 1351   0.755   2.674   6.927 -0.6353  0.3420 -0.3876
   11DOPE  H12R 1352   0.717   2.627   7.019 -1.8316 -0.7642 -1.4136
   11DOPE  H12S 1353   0.831   2.606   6.885  0.7436  0.6179  1.5398
   11DOPE  C213 1354   0.634   2.678   6.828  0.1270  0.0908 -0.0268
   11DOPE  H13R 1355   0.574   2.768   6.851  0.3251 -0.2492  2.0599
   11DOPE  H13S 1356   0.564   2.591   6.833  0.0908  0.0573 -1.0594
   11DOPE  C214 1357   0.671   2.684   6.675  0.2331 -0.6479 -0.0800
   11DOPE  H14R 1358   0.747   2.765   6.672  0.0847 -0.3668  2.3084
   11DOPE  H14S 1359   0.574   2.706   6.624  0.0581 -0.8604  0.1595
   11DOPE  C215 1360   0.723   2.554   6.609  0.5841  0.0514 -0.9513
   11DOPE  H15R 1361   0.658   2.473   6.649 -2.9964  2.8524 -0.5229
   11DOPE  H15S 1362   0.825   2.529   6.645  0.2680  0.3371  0.1786
   11DOPE  C216 1363   0.732   2.557   6.456 -0.5072  0.0891  0.4253
   11DOPE  H16R 1364   0.742   2.662   6.421  0.2963 -0.7617 -2.1345
   11DOPE  H16S 1365   0.640   2.518   6.406 -0.1199 -1.8152  1.1059
   11DOPE  C217 1366   0.843   2.474   6.406 -0.6595 -0.1397  0.0333
   11DOPE  H17R 1367   0.833   2.376   6.458 -1.1572  0.3822  0.9462
   11DOPE  H17S 1368   0.941   2.516   6.439 -0.6999 -0.1952  0.2214
   11DOPE  C218 1369   0.851   2.451   6.256  0.4847 -0.3315 -0.8903
   11DOPE  H18R 1370   0.886   2.541   6.200  0.1781  0.4245  0.0880
   11DOPE  H18S 1371   0.749   2.415   6.229  0.5687  0.0531 -1.7214
   11DOPE  H18T 1372   0.925   2.369   6.251  1.3388  0.2268  1.2568
   11DOPE   C33 1373   0.220   2.459   8.032  0.0309 -0.2504 -0.3612
   11DOPE   H3X 1374   0.181   2.362   7.994 -0.7662 -0.5822  1.2319
   11DOPE   H3Y 1375   0.303   2.417   8.094  0.5653  1.7735  0.3538
   11DOPE   C34 1376   0.268   2.555   7.920 -0.6176  0.4814 -0.3777
   11DOPE   H4X 1377   0.185   2.594   7.858 -0.6543 -0.4542 -0.9354
   11DOPE   H4Y 1378   0.320   2.636   7.976  0.3695 -0.1999 -0.2697
   11DOPE   C35 1379   0.371   2.480   7.840  0.7324 -0.4383  0.5383
   11DOPE   H5X 1380   0.323   2.381   7.823  0.2701 -0.7152  2.9691
   11DOPE   H5Y 1381   0.465   2.450   7.891  0.2929 -1.5670  0.7220
   11DOPE   C36 1382   0.389   2.550   7.705  0.1870 -0.4478  0.1271
   11DOPE   H6X 1383   0.406   2.659   7.720 -1.6831  0.0371 -0.9706
   11DOPE   H6Y 1384   0.304   2.526   7.637  1.1521 -0.6589 -1.0344
   11DOPE   C37 1385   0.517   2.505   7.637  0.3829  0.6543  0.6899
   11DOPE   H7X 1386   0.597   2.526   7.712  0.7505 -0.5605  0.6559
   11DOPE   H7Y 1387   0.507   2.396   7.621  0.4717  0.6011  0.9806
   11DOPE   C38 1388   0.551   2.583   7.505  0.1848  0.1133 -0.2183
   11DOPE   H8X 1389   0.639   2.531   7.462  0.9676  0.6805  0.6756
   11DOPE   H8Y 1390   0.579   2.682   7.546 -0.5712  0.6987 -1.0954
   11DOPE   C39 1391   0.429   2.587   7.414  0.0658 -0.0302 -0.0794
   11DOPE   H9X 1392   0.378   2.684   7.411  0.6998  0.4553  2.5244
   11DOPE  C310 1393   0.398   2.499   7.324 -0.6962  0.4958  0.1561
   11DOPE  H10X 1394   0.298   2.513   7.281 -0.6170  0.3516 -0.0769
   11DOPE  C311 1395   0.472   2.371   7.286  0.2398 -0.0065  0.7079
   11DOPE  H11X 1396   0.581   2.380   7.307  0.5095  0.0004 -0.6328
   11DOPE  H11Y 1397   0.423   2.286   7.339  1.1521 -0.9275  0.1131
   11DOPE  C312 1398   0.474   2.350   7.129 -0.1767  0.2679 -0.5984
   11DOPE  H12X 1399   0.550   2.273   7.103 -0.7481 -0.6869  0.4599
   11DOPE  H12Y 1400   0.503   2.452   7.096  1.1622  0.8364  2.0472
   11DOPE  C313 1401   0.338   2.300   7.075 -0.5402 -0.5244  0.6044
   11DOPE  H13X 1402   0.296   2.217   7.136 -5.4674 -0.0540 -1.6881
   11DOPE  H13Y 1403   0.267   2.380   7.105  0.1384  0.8651 -1.3019
   11DOPE  C314 1404   0.335   2.260   6.930  0.4402  0.0564 -0.2596
   11DOPE  H14X 1405   0.231   2.232   6.900  0.9477 -2.2567 -0.0885
   11DOPE  H14Y 1406   0.400   2.172   6.912  0.3470  0.4495 -2.9887
   11DOPE  C315 1407   0.374   2.378   6.841 -0.2421 -0.2033 -0.1457
   11DOPE  H15X 1408   0.483   2.399   6.852 -0.3110  1.6762 -2.2669
   11DOPE  H15Y 1409   0.305   2.461   6.868 -0.7649 -0.5140 -0.5174
   11DOPE  C316 1410   0.352   2.374   6.686  0.2026 -0.7681  1.0754
   11DOPE  H16X 1411   0.380   2.472   6.642  2.1407 -1.9531 -0.5031
   11DOPE  H16Y 1412   0.246   2.349   6.663  0.7771 -1.7616 -0.7783
   11DOPE  C317 1413   0.429   2.272   6.605  0.2315 -0.3546 -0.2156
   11DOPE  H17X 1414   0.477   2.311   6.513  1.2412  0.7150  0.7272
   11DOPE  H17Y 1415   0.524   2.243   6.656  1.9849  2.8020 -1.4038
   11DOPE  C318 1416   0.345   2.155   6.571  1.1815 -0.2434 -0.2054
   11DOPE  H18X 1417   0.399   2.076   6.515  1.4029 -0.2720  0.0455
   11DOPE  H18Y 1418   0.317   2.104   6.666  0.6348 -0.6973 -0.6104
   11DOPE  H18Z 1419   0.255   2.179   6.511  0.3200 -0.6117  0.9038
   12DOPE     N 1420   3.783   6.066   8.202 -0.4808  0.4688  0.4213
   12DOPE   HN1 1421   3.864   6.098   8.258  0.8808  0.9664 -1.7184
   12DOPE   HN2 1422   3.723   6.005   8.260  0.9071 -0.4055  0.9752
   12DOPE   HN3 1423   3.825   6.007   8.127 -2.6418 -1.7324  0.8288
   12DOPE   C12 1424   3.711   6.188   8.159  0.6699 -0.0999 -0.3471
   12DOPE  H12A 1425   3.641   6.156   8.080  0.7893 -0.0149 -0.4883
   12DOPE  H12B 1426   3.789   6.258   8.121 -1.3030  2.9233  0.8307
   12DOPE   C11 1427   3.637   6.266   8.270 -0.1452 -0.3932 -0.1970
   12DOPE  H11A 1428   3.573   6.204   8.336  0.5339  0.9942  1.8686
   12DOPE  H11B 1429   3.567   6.331   8.212 -0.2741  0.3099  0.7215
   12DOPE     P 1430   3.678   6.470   8.420 -0.0040 -0.3477 -0.1710
   12DOPE   O13 1431   3.795   6.541   8.476 -0.5593  0.1850 -0.0157
   12DOPE   O14 1432   3.560   6.437   8.507  0.2285  0.0915  0.2903
   12DOPE   O11 1433   3.627   6.557   8.298  0.3371 -0.5321 -0.4565
   12DOPE   O12 1434   3.722   6.338   8.360 -0.7222 -0.1926 -0.1840
   12DOPE    C1 1435   3.716   6.625   8.212 -0.1134 -0.1575 -0.8602
   12DOPE    HA 1436   3.799   6.553   8.192 -2.0152 -2.7327 -0.1020
   12DOPE    HB 1437   3.750   6.715   8.266  0.6909  0.5501 -2.4744
   12DOPE    C2 1438   3.673   6.683   8.078  0.4792 -0.2530 -0.1145
   12DOPE    HS 1439   3.596   6.761   8.093  0.8189 -0.0893  0.8575
   12DOPE   O21 1440   3.625   6.571   7.996 -0.3233  0.2085 -0.4886
   12DOPE   C21 1441   3.492   6.555   7.993  0.3072  0.7301 -0.2422
   12DOPE   O22 1442   3.408   6.637   8.025  0.3747  0.3553  0.5622
   12DOPE   C22 1443   3.475   6.413   7.925  0.1588 -0.2317  0.2446
   12DOPE   H2R 1444   3.368   6.383   7.926  0.5417 -1.8128 -0.8752
   12DOPE   H2S 1445   3.542   6.337   7.969  0.2832 -0.7206 -0.7478
   12DOPE    C3 1446   3.802   6.750   8.023 -0.0706  0.7368 -0.4109
   12DOPE    HX 1447   3.897   6.692   8.025  0.9122  2.2991  0.1147
   12DOPE    HY 1448   3.825   6.845   8.077 -0.4535  0.7021 -0.1855
   12DOPE   O31 1449   3.773   6.789   7.892 -0.2157 -0.2041  0.5610
   12DOPE   C31 1450   3.803   6.692   7.798 -1.2057 -0.2120 -0.3077
   12DOPE   O32 1451   3.879   6.601   7.810 -0.2241  0.4369 -0.8329
   12DOPE   C32 1452   3.727   6.721   7.674 -0.5326 -0.3548 -0.0849
   12DOPE   H2X 1453   3.618   6.713   7.691 -0.8662  1.8235 -0.8496
   12DOPE   H2Y 1454   3.752   6.823   7.636  0.6961  0.0562  1.7096
   12DOPE   C23 1455   3.516   6.426   7.775  0.1019  0.1511 -0.5240
   12DOPE   H3R 1456   3.620   6.463   7.769  0.6029 -0.8642  1.1972
   12DOPE   H3S 1457   3.467   6.510   7.721  2.0014  1.3786 -0.4166
   12DOPE   C24 1458   3.489   6.297   7.700 -0.0510 -0.1594 -0.2364
   12DOPE   H4R 1459   3.380   6.277   7.710 -0.6467  1.4715 -2.5828
   12DOPE   H4S 1460   3.543   6.212   7.748  1.7490  1.7145  1.2605
   12DOPE   C25 1461   3.522   6.296   7.547  0.2490  0.1247  0.4898
   12DOPE   H5R 1462   3.628   6.328   7.543 -0.3843  2.1910 -1.4019
   12DOPE   H5S 1463   3.473   6.369   7.480 -1.7848 -2.1139 -0.6020
   12DOPE   C26 1464   3.520   6.157   7.478 -0.0084 -0.1927 -0.0323
   12DOPE   H6R 1465   3.417   6.147   7.438  0.3192  2.5539 -1.7673
   12DOPE   H6S 1466   3.536   6.080   7.556  0.1470  1.3597  1.5238
   12DOPE   C27 1467   3.632   6.137   7.371 -1.0195 -0.4193 -0.3603
   12DOPE   H7R 1468   3.640   6.032   7.337  0.6378 -0.6024  0.4857
   12DOPE   H7S 1469   3.734   6.154   7.414 -2.1572 -1.4632  3.1240
   12DOPE   C28 1470   3.630   6.227   7.248  0.0117 -0.4625  0.6727
   12DOPE   H8R 1471   3.714   6.198   7.181  0.7184 -0.9457  1.7412
   12DOPE   H8S 1472   3.649   6.332   7.280  1.8332 -0.7678  0.7116
   12DOPE   C29 1473   3.497   6.204   7.171 -0.8364 -0.2830  0.1663
   12DOPE   H9R 1474   3.411   6.216   7.240  0.2536 -0.7286  1.6479
   12DOPE  C210 1475   3.475   6.170   7.047  0.2353  0.0864 -0.7267
   12DOPE  H10R 1476   3.375   6.175   7.002 -1.0909 -1.3158  1.8177
   12DOPE  C211 1477   3.598   6.176   6.951  0.8867  0.1891  0.8359
   12DOPE  H11R 1478   3.652   6.079   6.955 -3.5244 -2.6043 -0.0519
   12DOPE  H11S 1479   3.676   6.250   6.981  2.4558 -0.8410 -0.5316
   12DOPE  C212 1480   3.549   6.197   6.801 -0.0224 -0.0724  0.9422
   12DOPE  H12R 1481   3.482   6.285   6.792  2.3959  1.7529 -0.1550
   12DOPE  H12S 1482   3.497   6.108   6.759 -0.7042  1.0505 -0.6503
   12DOPE  C213 1483   3.673   6.228   6.715  0.7461  0.4746 -0.3888
   12DOPE  H13R 1484   3.747   6.145   6.726 -0.5537 -0.5599  0.8135
   12DOPE  H13S 1485   3.728   6.316   6.754  0.9960  0.6159 -1.0397
   12DOPE  C214 1486   3.656   6.270   6.567  0.6795  0.0799  0.1931
   12DOPE  H14R 1487   3.720   6.359   6.551  0.9700 -0.1064  0.3036
   12DOPE  H14S 1488   3.552   6.305   6.554  0.9935  0.6603 -0.8653
   12DOPE  C215 1489   3.662   6.153   6.466 -0.1750  0.2561 -0.5060
   12DOPE  H15R 1490   3.607   6.070   6.515 -1.6870 -0.0417 -2.5491
   12DOPE  H15S 1491   3.766   6.115   6.461 -0.1060  0.5431 -1.6802
   12DOPE  C216 1492   3.607   6.203   6.335  0.4116  0.5428 -0.0196
   12DOPE  H16R 1493   3.654   6.296   6.295  0.6059  1.0403  1.3126
   12DOPE  H16S 1494   3.501   6.230   6.355 -0.4199 -0.2731 -2.8265
   12DOPE  C217 1495   3.605   6.094   6.226  0.5508 -0.0115  0.2993
   12DOPE  H17R 1496   3.547   6.005   6.259 -1.6958  1.3049  0.0386
   12DOPE  H17S 1497   3.707   6.057   6.200 -0.6221 -1.8947 -2.0378
   12DOPE  C218 1498   3.541   6.137   6.093  0.5328  0.2756  0.1096
   12DOPE  H18R 1499   3.595   6.223   6.049  0.0107  0.0756 -0.9698
   12DOPE  H18S 1500   3.438   6.176   6.109  0.6148 -0.5227  3.2383
   12DOPE  H18T 1501   3.535   6.058   6.015  0.7390 -1.5595  1.8787
   12DOPE   C33 1502   3.775   6.626   7.557 -0.3897 -0.3270  0.3320
   12DOPE   H3X 1503   3.769   6.516   7.577 -1.7516  0.0132  1.9913
   12DOPE   H3Y 1504   3.883   6.648   7.546  0.1990 -2.9535  0.0875
   12DOPE   C34 1505   3.708   6.662   7.419 -0.1176  0.8207 -0.1090
   12DOPE   H4X 1506   3.597   6.651   7.426 -0.2730  1.4317 -1.3461
   12DOPE   H4Y 1507   3.743   6.767   7.421  1.9385  0.2332 -1.8328
   12DOPE   C35 1508   3.767   6.591   7.299  0.0553 -0.1087  0.7670
   12DOPE   H5X 1509   3.785   6.484   7.324  0.8349  0.0430  0.8996
   12DOPE   H5Y 1510   3.860   6.651   7.285  0.0879 -0.7855 -3.0033
   12DOPE   C36 1511   3.686   6.582   7.172  0.3024 -0.0661 -0.5212
   12DOPE   H6X 1512   3.580   6.568   7.203  0.1386  0.5963 -0.7640
   12DOPE   H6Y 1513   3.710   6.490   7.115 -1.2241 -0.7948 -0.0211
   12DOPE   C37 1514   3.692   6.704   7.082  0.1742  0.2989 -0.4791
   12DOPE   H7X 1515   3.672   6.795   7.142  0.5201  0.3987 -0.5107
   12DOPE   H7Y 1516   3.793   6.714   7.038  1.5679  0.9248  2.6218
   12DOPE   C38 1517   3.576   6.707   6.971  0.3100 -0.1007 -0.5750
   12DOPE   H8X 1518   3.565   6.805   6.921 -0.6310 -0.9029 -2.0101
   12DOPE   H8Y 1519   3.485   6.708   7.035  1.1821  0.4463  0.6904
   12DOPE   C39 1520   3.575   6.592   6.881  0.5328  0.1118  0.3082
   12DOPE   H9X 1521   3.520   6.501   6.910  0.2448 -0.4038 -1.7568
   12DOPE  C310 1522   3.603   6.599   6.752 -0.3879  0.2237 -0.1569
   12DOPE  H10X 1523   3.593   6.504   6.698  0.6027 -1.2824  2.1747
   12DOPE  C311 1524   3.665   6.713   6.684 -0.3303 -0.2226  0.9695
   12DOPE  H11X 1525   3.594   6.796   6.665 -0.3535 -0.9359 -2.8519
   12DOPE  H11Y 1526   3.743   6.747   6.755  1.0738  2.3131 -1.5881
   12DOPE  C312 1527   3.742   6.685   6.548 -0.2997 -0.2014  0.0409
   12DOPE  H12X 1528   3.808   6.597   6.557 -1.5608 -1.0584  1.3727
   12DOPE  H12Y 1529   3.813   6.769   6.536  0.5046 -0.7814  0.6128
   12DOPE  C313 1530   3.641   6.675   6.435 -0.0537  0.1848  0.3182
   12DOPE  H13X 1531   3.554   6.609   6.455  0.1508 -0.1972 -0.0379
   12DOPE  H13Y 1532   3.606   6.776   6.407  1.4175  0.5232 -0.4032
   12DOPE  C314 1533   3.698   6.607   6.305 -0.5816 -0.1338 -0.4984
   12DOPE  H14X 1534   3.670   6.500   6.311  1.1380 -0.5422  0.9464
   12DOPE  H14Y 1535   3.809   6.600   6.304 -0.5667  0.1384 -1.3344
   12DOPE  C315 1536   3.641   6.666   6.175  0.0509  1.0896  0.0493
   12DOPE  H15X 1537   3.707   6.753   6.153 -0.2023  1.4245  0.5934
   12DOPE  H15Y 1538   3.538   6.699   6.200 -1.1930 -2.8765  0.8112
   12DOPE  C316 1539   3.633   6.565   6.066  0.7074  0.9125 -0.2200
   12DOPE  H16X 1540   3.595   6.601   5.968 -0.5451  1.2709  0.3729
   12DOPE  H16Y 1541   3.564   6.482   6.091  0.9096  1.1027  1.0320
   12DOPE  C317 1542   3.773   6.505   6.033 -0.5609  0.1260  0.4752
   12DOPE  H17X 1543   3.833   6.597   6.017 -2.2174  1.0778 -0.5751
   12DOPE  H17Y 1544   3.822   6.454   6.118  1.6469  1.7605  0.2882
   12DOPE  C318 1545   3.774   6.425   5.905  0.0039  0.5329  0.2918
   12DOPE  H18X 1546   3.691   6.352   5.918  0.0611  0.1979 -1.1060
   12DOPE  H18Y 1547   3.750   6.496   5.823 -0.5301 -0.6477 -0.6030
   12DOPE  H18Z 1548   3.873   6.382   5.880 -0.8765 -0.2387 -2.1122
   13DOPE     N 1549   2.238   0.272   8.503 -0.3928  0.3756  0.4146
   13DOPE   HN1 1550   2.232   0.238   8.405 -0.9264  0.9766  0.2346
   13DOPE   HN2 1551   2.188   0.363   8.510 -0.1898  0.4234  1.3248
   13DOPE   HN3 1552   2.339   0.293   8.521 -0.7352  1.3897  1.1837
   13DOPE   C12 1553   2.196   0.188   8.617 -0.3968 -0.1390 -0.0687
   13DOPE  H12A 1554   2.266   0.104   8.636  0.2376  0.8396  2.3598
   13DOPE  H12B 1555   2.090   0.154   8.613 -0.1540 -0.8971 -0.1646
   13DOPE   C11 1556   2.206   0.267   8.751  0.6322  0.2236  0.1774
   13DOPE  H11A 1557   2.296   0.331   8.747  0.7896 -0.0420 -0.8057
   13DOPE  H11B 1558   2.206   0.203   8.842 -1.4290  0.9329  0.7529
   13DOPE     P 1559   2.002   0.381   8.880  0.2256 -0.3880 -0.1634
   13DOPE   O13 1560   2.059   0.461   8.990  0.0290 -0.7259 -0.8457
   13DOPE   O14 1561   1.933   0.255   8.911 -0.4326 -0.0823 -0.2027
   13DOPE   O11 1562   1.890   0.468   8.813  0.5906  0.3911 -0.1290
   13DOPE   O12 1563   2.097   0.362   8.760 -0.0803 -0.1561  0.3993
   13DOPE    C1 1564   1.895   0.604   8.805  0.4800 -0.5489 -0.1634
   13DOPE    HA 1565   1.957   0.660   8.879 -0.6112  0.1283  0.2552
   13DOPE    HB 1566   1.796   0.652   8.816 -0.2372 -1.4556 -2.2559
   13DOPE    C2 1567   1.940   0.638   8.659 -0.8092  0.0398  0.3324
   13DOPE    HS 1568   2.032   0.578   8.642 -0.4909  0.0291  1.9388
   13DOPE   O21 1569   1.973   0.774   8.656  0.7810  0.3361 -0.3457
   13DOPE   C21 1570   2.050   0.821   8.549 -0.2465  0.0782 -0.0431
   13DOPE   O22 1571   2.099   0.754   8.466  0.3149 -0.4435  0.3486
   13DOPE   C22 1572   2.042   0.981   8.560  0.0308  0.5409 -0.0255
   13DOPE   H2R 1573   2.107   0.995   8.650 -0.4977  0.9405  0.2990
   13DOPE   H2S 1574   1.937   1.015   8.574 -0.7396 -1.2573 -1.0922
   13DOPE    C3 1575   1.833   0.601   8.555 -0.1107  0.3670  0.1177
   13DOPE    HX 1576   1.750   0.674   8.563 -1.1108 -0.8185  0.9842
   13DOPE    HY 1577   1.787   0.506   8.591 -1.2625  1.0797  0.5586
   13DOPE   O31 1578   1.875   0.605   8.419 -0.6452 -0.5092 -0.6753
   13DOPE   C31 1579   1.937   0.507   8.366 -0.0881 -0.1480  0.3486
   13DOPE   O32 1580   1.987   0.408   8.423  0.6517 -0.3888 -0.6763
   13DOPE   C32 1581   1.940   0.527   8.215 -0.6657 -0.9425 -0.1106
   13DOPE   H2X 1582   1.970   0.429   8.171 -0.7588 -2.0109  2.0688
   13DOPE   H2Y 1583   1.841   0.552   8.173  1.1537  0.9134 -3.7560
   13DOPE   C23 1584   2.101   1.047   8.425  0.2486  0.0191  0.0412
   13DOPE   H3R 1585   2.193   0.994   8.395  0.7553  1.4146 -0.9775
   13DOPE   H3S 1586   2.124   1.152   8.454 -3.1643  1.1321 -0.8294
   13DOPE   C24 1587   2.001   1.048   8.311  0.3739 -0.5197  0.0921
   13DOPE   H4R 1588   1.908   1.103   8.339  0.7682 -0.8203  2.1249
   13DOPE   H4S 1589   1.982   0.940   8.292 -1.0227 -0.4562  0.9723
   13DOPE   C25 1590   2.059   1.099   8.175  0.1664 -0.0471 -0.8750
   13DOPE   H5R 1591   2.106   1.011   8.128  0.4644  0.3412 -1.3156
   13DOPE   H5S 1592   2.142   1.172   8.189 -0.1449  0.1835 -0.1291
   13DOPE   C26 1593   1.956   1.151   8.074 -0.0131  0.3833  0.4863
   13DOPE   H6R 1594   1.883   1.221   8.119 -1.0288  0.2440 -0.8695
   13DOPE   H6S 1595   1.899   1.067   8.028  1.3505  0.4750 -1.4845
   13DOPE   C27 1596   2.027   1.236   7.964  0.1118  0.0503 -1.1127
   13DOPE   H7R 1597   2.110   1.177   7.919  0.4251 -0.2751 -0.1306
   13DOPE   H7S 1598   2.066   1.327   8.015  0.5366 -0.8386  0.1859
   13DOPE   C28 1599   1.928   1.283   7.856  0.0779  0.0940  0.1699
   13DOPE   H8R 1600   1.841   1.341   7.892  0.7009  2.0675 -1.3284
   13DOPE   H8S 1601   1.882   1.194   7.807  1.2871 -1.6660  2.0619
   13DOPE   C29 1602   1.997   1.370   7.752  0.3934 -1.0295  0.4103
   13DOPE   H9R 1603   2.026   1.467   7.794  0.1577 -0.8713  0.2082
   13DOPE  C210 1604   2.003   1.352   7.615 -0.3121 -0.0503 -0.7583
   13DOPE  H10R 1605   2.058   1.432   7.563  2.2056 -0.0099  1.7111
   13DOPE  C211 1606   1.959   1.236   7.527  0.6815 -0.2879  0.1997
   13DOPE  H11R 1607   1.887   1.160   7.564  1.4915 -1.9379 -1.4789
   13DOPE  H11S 1608   2.047   1.173   7.501 -1.0530 -2.9198  0.3579
   13DOPE  C212 1609   1.882   1.294   7.408  0.5718  0.0388 -0.5262
   13DOPE  H12R 1610   1.929   1.384   7.363  0.5966  0.8277  1.0302
   13DOPE  H12S 1611   1.787   1.345   7.437  1.9750  0.8796  3.1115
   13DOPE  C213 1612   1.859   1.190   7.303  0.2337 -0.0760  0.0197
   13DOPE  H13R 1613   1.778   1.118   7.326  0.7284 -0.3664  0.9089
   13DOPE  H13S 1614   1.955   1.136   7.285  1.5527  1.8269  0.9268
   13DOPE  C214 1615   1.802   1.251   7.169 -0.2428 -0.0698 -0.0942
   13DOPE  H14R 1616   1.860   1.345   7.151 -0.6051  0.4989  1.5269
   13DOPE  H14S 1617   1.700   1.288   7.193  0.1164 -0.1294  1.6552
   13DOPE  C215 1618   1.801   1.155   7.047 -0.0443  0.3976  0.3107
   13DOPE  H15R 1619   1.765   1.209   6.957 -0.4265  2.9526  1.9048
   13DOPE  H15S 1620   1.725   1.076   7.065 -1.1000  1.3859  0.2729
   13DOPE  C216 1621   1.932   1.079   7.020  0.4678  0.5684 -0.4141
   13DOPE  H16R 1622   1.947   1.004   7.100 -1.2242 -0.4208 -0.9930
   13DOPE  H16S 1623   2.011   1.158   7.027 -1.0688  2.1532 -0.2215
   13DOPE  C217 1624   1.928   0.998   6.893  0.6445 -0.0821  0.0263
   13DOPE  H17R 1625   2.030   0.956   6.876  0.4818 -1.6977  2.5217
   13DOPE  H17S 1626   1.897   1.061   6.806  3.2740  2.3674  0.7032
   13DOPE  C218 1627   1.836   0.874   6.901  0.3678 -0.3114  0.2673
   13DOPE  H18R 1628   1.865   0.806   6.818 -0.7777  0.5834 -0.9051
   13DOPE  H18S 1629   1.732   0.907   6.876 -0.0745 -2.3177 -0.7933
   13DOPE  H18T 1630   1.840   0.825   7.001 -0.3326 -3.7604 -1.2350
   13DOPE   C33 1631   2.047   0.630   8.170 -0.1958 -0.7403 -0.3602
   13DOPE   H3X 1632   2.148   0.615   8.214 -0.6362 -2.3751  0.1894
   13DOPE   H3Y 1633   2.004   0.730   8.194 -1.8400 -1.5797  0.4403
   13DOPE   C34 1634   2.053   0.623   8.023 -0.6610  0.1084  0.5872
   13DOPE   H4X 1635   2.125   0.545   7.989 -1.5875 -0.8482  0.7700
   13DOPE   H4Y 1636   1.953   0.595   7.982  0.0494 -1.0534 -0.4407
   13DOPE   C35 1637   2.095   0.756   7.954  0.1691  0.2463  0.3554
   13DOPE   H5X 1638   2.041   0.835   8.010  0.9753  1.7126 -0.8531
   13DOPE   H5Y 1639   2.056   0.759   7.850 -0.3041 -0.3591  0.5115
   13DOPE   C36 1640   2.244   0.793   7.953 -1.0970  0.5280  0.0729
   13DOPE   H6X 1641   2.285   0.764   8.052 -2.3561  1.9451  1.0631
   13DOPE   H6Y 1642   2.261   0.902   7.951  2.2834  0.0954  0.0101
   13DOPE   C37 1643   2.320   0.744   7.823 -0.1350 -0.3793 -0.5741
   13DOPE   H7X 1644   2.426   0.777   7.828 -0.5065  0.6839  1.5022
   13DOPE   H7Y 1645   2.324   0.635   7.844 -1.8862 -0.0473  1.9961
   13DOPE   C38 1646   2.270   0.775   7.685 -0.1870 -0.2072 -0.0287
   13DOPE   H8X 1647   2.164   0.743   7.682  0.2153 -1.5816 -1.3891
   13DOPE   H8Y 1648   2.319   0.713   7.606  2.5647  0.0018  1.4093
   13DOPE   C39 1649   2.271   0.924   7.648  0.5362  0.1569 -0.7635
   13DOPE   H9X 1650   2.347   0.985   7.700  0.8465  0.5278 -1.6274
   13DOPE  C310 1651   2.213   0.973   7.534  0.5693 -0.1206 -0.2533
   13DOPE  H10X 1652   2.227   1.078   7.504  0.4063 -0.1783 -0.5418
   13DOPE  C311 1653   2.138   0.893   7.437 -0.0142 -0.0763  0.5541
   13DOPE  H11X 1654   2.169   0.787   7.450  1.4411  0.1397 -0.8715
   13DOPE  H11Y 1655   2.031   0.895   7.467 -0.0647 -1.8102  0.6112
   13DOPE  C312 1656   2.168   0.932   7.291  0.3720  0.3940 -0.3471
   13DOPE  H12X 1657   2.151   1.041   7.279  1.9658  0.9175  1.6403
   13DOPE  H12Y 1658   2.097   0.879   7.223 -1.0276 -0.2061  1.4945
   13DOPE  C313 1659   2.301   0.888   7.234 -0.5264 -0.3716  0.3353
   13DOPE  H13X 1660   2.373   0.967   7.267 -0.3017 -0.6011  0.4007
   13DOPE  H13Y 1661   2.341   0.799   7.287  1.6191  1.2796  1.6701
   13DOPE  C314 1662   2.308   0.874   7.079 -0.0657  0.4011 -0.9932
   13DOPE  H14X 1663   2.233   0.804   7.038 -1.2824  1.3217 -0.4229
   13DOPE  H14Y 1664   2.403   0.828   7.045 -0.4777  0.4201 -2.2112
   13DOPE  C315 1665   2.286   1.000   6.998 -0.2030 -0.4734  0.2647
   13DOPE  H15X 1666   2.363   1.077   7.025  0.3527 -0.9134 -0.0361
   13DOPE  H15Y 1667   2.185   1.045   7.007 -0.1577 -0.5526  1.2724
   13DOPE  C316 1668   2.322   0.976   6.848  0.5684  0.7630 -0.1434
   13DOPE  H16X 1669   2.259   0.905   6.791  0.6995 -0.3946  1.0972
   13DOPE  H16Y 1670   2.424   0.932   6.836  1.4512  2.2730  1.3435
   13DOPE  C317 1671   2.320   1.110   6.779 -0.0364 -0.1602 -0.0852
   13DOPE  H17X 1672   2.223   1.163   6.784 -0.0157 -0.2201  1.9951
   13DOPE  H17Y 1673   2.393   1.171   6.837 -0.1233 -1.3744  1.3785
   13DOPE  C318 1674   2.351   1.106   6.632 -0.2594  0.3569 -0.1573
   13DOPE  H18X 1675   2.418   1.020   6.609 -0.8157 -0.7273  2.0090
   13DOPE  H18Y 1676   2.258   1.080   6.577 -1.2886  0.0721  1.6506
   13DOPE  H18Z 1677   2.405   1.193   6.588 -1.4768  0.4158 -1.6028
   14DOPE     N 1678   5.446   4.621   8.160  0.1049  0.1211 -0.7766
   14DOPE   HN1 1679   5.507   4.571   8.092 -0.5121 -2.0480  0.1690
   14DOPE   HN2 1680   5.355   4.632   8.111 -0.6837 -0.8743  0.3826
   14DOPE   HN3 1681   5.483   4.716   8.180 -0.8550  0.4266 -0.4047
   14DOPE   C12 1682   5.426   4.536   8.284  0.2160  0.4589 -0.3295
   14DOPE  H12A 1683   5.373   4.446   8.246  3.2554 -0.7408 -2.0213
   14DOPE  H12B 1684   5.371   4.600   8.356  1.1954 -0.3376  1.1917
   14DOPE   C11 1685   5.558   4.485   8.341  0.6056 -0.0027 -0.0408
   14DOPE  H11A 1686   5.604   4.412   8.271  3.0916  0.4118  1.0579
   14DOPE  H11B 1687   5.536   4.428   8.435 -2.4193  0.4746 -0.3481
   14DOPE     P 1688   5.799   4.561   8.378 -0.3959 -0.1804 -0.1145
   14DOPE   O13 1689   5.824   4.436   8.452 -0.1484 -0.0922 -0.5026
   14DOPE   O14 1690   5.872   4.682   8.420 -0.1770 -0.0596  0.0353
   14DOPE   O11 1691   5.834   4.540   8.224 -0.2531  0.4811 -0.2652
   14DOPE   O12 1692   5.646   4.595   8.367  0.0458  0.0567 -0.0437
   14DOPE    C1 1693   5.841   4.661   8.138  0.1745 -0.6601 -0.5295
   14DOPE    HA 1694   5.926   4.725   8.167 -1.2689  1.7584 -1.3324
   14DOPE    HB 1695   5.746   4.718   8.144  0.5951  0.1039 -0.9301
   14DOPE    C2 1696   5.869   4.628   7.991  0.0048 -0.1086 -0.0545
   14DOPE    HS 1697   5.810   4.695   7.926  0.0091  0.4291  0.4843
   14DOPE   O21 1698   5.844   4.491   7.960 -0.2363 -0.3886 -0.1097
   14DOPE   C21 1699   5.727   4.444   7.977  0.3326 -0.3927 -0.0926
   14DOPE   O22 1700   5.625   4.501   7.998  0.4800 -0.3486 -0.0228
   14DOPE   C22 1701   5.741   4.297   7.947 -0.6367 -0.0777 -0.3912
   14DOPE   H2R 1702   5.764   4.258   8.049  1.1712 -0.8088 -1.0478
   14DOPE   H2S 1703   5.832   4.279   7.886 -0.2335  1.9922 -0.4841
   14DOPE    C3 1704   6.021   4.643   7.941 -0.1773 -0.1087  0.4850
   14DOPE    HX 1705   6.094   4.589   8.005 -0.0404  0.7274  1.0620
   14DOPE    HY 1706   6.049   4.749   7.963  0.6773  0.4545 -2.8492
   14DOPE   O31 1707   6.031   4.606   7.806 -0.3435 -0.3598 -0.2138
   14DOPE   C31 1708   6.065   4.478   7.784  0.8690 -0.5169 -0.2843
   14DOPE   O32 1709   6.091   4.394   7.867 -0.8094 -0.0384  0.0750
   14DOPE   C32 1710   6.073   4.456   7.635 -0.2518 -0.0226  0.0581
   14DOPE   H2X 1711   6.146   4.529   7.594 -0.4016 -0.2733 -0.6884
   14DOPE   H2Y 1712   6.111   4.352   7.627 -0.7994 -0.3586  1.5798
   14DOPE   C23 1713   5.614   4.238   7.887  0.5466  0.6405  0.0995
   14DOPE   H3R 1714   5.525   4.282   7.936 -0.4654 -2.0585  0.8542
   14DOPE   H3S 1715   5.605   4.128   7.901  1.0638  0.0488 -3.3768
   14DOPE   C24 1716   5.621   4.266   7.734 -0.2938  0.1591  0.0623
   14DOPE   H4R 1717   5.714   4.230   7.685 -1.3902 -2.2465 -0.4262
   14DOPE   H4S 1718   5.625   4.377   7.731 -0.9473  0.2200  1.2321
   14DOPE   C25 1719   5.510   4.200   7.655 -0.3037  0.0805  0.6970
   14DOPE   H5R 1720   5.415   4.256   7.668 -0.0148  0.6456  0.4002
   14DOPE   H5S 1721   5.505   4.095   7.690  1.1691  0.7197  3.0674
   14DOPE   C26 1722   5.533   4.185   7.501 -0.3679 -0.4846  0.1589
   14DOPE   H6R 1723   5.450   4.128   7.453 -1.1675  1.0245 -0.3154
   14DOPE   H6S 1724   5.633   4.143   7.474  0.2649  2.1237 -2.0737
   14DOPE   C27 1725   5.535   4.324   7.430 -0.1334 -0.3100  0.3946
   14DOPE   H7R 1726   5.633   4.377   7.432  0.2841 -1.0778  0.6149
   14DOPE   H7S 1727   5.470   4.397   7.483 -1.0930 -0.8102 -0.0676
   14DOPE   C28 1728   5.489   4.314   7.281  0.7429  0.3237 -0.3335
   14DOPE   H8R 1729   5.479   4.424   7.265  0.3954  0.3952  0.3516
   14DOPE   H8S 1730   5.389   4.265   7.279  1.5505 -1.5161  1.1427
   14DOPE   C29 1731   5.585   4.244   7.186  0.2796  0.3613 -0.0478
   14DOPE   H9R 1732   5.640   4.152   7.211  0.1737 -0.0152 -1.1384
   14DOPE  C210 1733   5.608   4.278   7.061 -0.5530  0.8400  0.5228
   14DOPE  H10R 1734   5.688   4.217   7.017 -0.8960  0.3907  0.5216
   14DOPE  C211 1735   5.543   4.388   6.976 -0.2803  0.4166 -0.5598
   14DOPE  H11R 1736   5.618   4.469   6.961  0.4670 -0.3996 -1.4021
   14DOPE  H11S 1737   5.459   4.434   7.033 -0.3164 -0.5495  0.1978
   14DOPE  C212 1738   5.508   4.336   6.834  0.6656  0.0208 -0.6322
   14DOPE  H12R 1739   5.426   4.262   6.848  0.5095  0.2006 -0.5968
   14DOPE  H12S 1740   5.600   4.286   6.796  1.5528  1.2045 -0.1040
   14DOPE  C213 1741   5.468   4.452   6.738  0.1214 -0.1441 -0.0397
   14DOPE  H13R 1742   5.548   4.528   6.751 -0.6036  0.3346  2.0651
   14DOPE  H13S 1743   5.377   4.503   6.776 -0.7021 -0.0006 -2.0830
   14DOPE  C214 1744   5.451   4.411   6.595  0.7945  0.0616  0.4045
   14DOPE  H14R 1745   5.390   4.318   6.589 -2.2969  2.0316 -1.6209
   14DOPE  H14S 1746   5.549   4.393   6.547  0.8105  1.8508 -0.3179
   14DOPE  C215 1747   5.391   4.515   6.501  0.3937  0.1014 -0.1380
   14DOPE  H15R 1748   5.455   4.606   6.504  0.1294  0.3549 -1.5648
   14DOPE  H15S 1749   5.289   4.537   6.541  0.5573 -2.0823  1.6984
   14DOPE  C216 1750   5.383   4.455   6.360  0.1034 -0.3013  0.0244
   14DOPE  H16R 1751   5.345   4.351   6.367  0.2839 -0.3851 -0.2753
   14DOPE  H16S 1752   5.488   4.447   6.326  0.0602 -1.3520  0.1025
   14DOPE  C217 1753   5.297   4.534   6.252 -0.6554 -0.1329 -0.5660
   14DOPE  H17R 1754   5.218   4.593   6.302  1.0632  1.9613 -0.1857
   14DOPE  H17S 1755   5.253   4.463   6.178  1.7982 -1.4312 -0.8824
   14DOPE  C218 1756   5.390   4.632   6.175  0.1614  0.1883  0.0440
   14DOPE  H18R 1757   5.472   4.576   6.125  0.9983  1.0440  0.4213
   14DOPE  H18S 1758   5.444   4.704   6.239 -0.1547  1.2603 -0.8692
   14DOPE  H18T 1759   5.337   4.700   6.106 -1.4624 -0.8221  0.2395
   14DOPE   C33 1760   5.937   4.466   7.572  0.2101 -0.3947  0.1581
   14DOPE   H3X 1761   5.894   4.566   7.596  0.1045 -0.5545  0.6679
   14DOPE   H3Y 1762   5.870   4.385   7.610  0.1281 -0.4549 -0.1135
   14DOPE   C34 1763   5.949   4.463   7.413  0.3465 -0.0468 -0.2123
   14DOPE   H4X 1764   5.843   4.471   7.380  0.1100  1.1646  0.7756
   14DOPE   H4Y 1765   6.005   4.552   7.377  1.6270 -0.4257  0.7816
   14DOPE   C35 1766   5.996   4.326   7.357 -0.0914  0.4291 -0.1457
   14DOPE   H5X 1767   5.919   4.251   7.386  1.2028 -0.7686  0.2852
   14DOPE   H5Y 1768   6.095   4.308   7.402  0.1791  0.7022 -0.6135
   14DOPE   C36 1769   6.016   4.328   7.199 -0.2213 -0.1996 -0.2924
   14DOPE   H6X 1770   5.909   4.338   7.168 -0.6640  0.5934  1.3987
   14DOPE   H6Y 1771   6.046   4.231   7.155 -1.8369 -1.0279  0.3405
   14DOPE   C37 1772   6.091   4.440   7.132  0.6466  0.2590 -0.2526
   14DOPE   H7X 1773   6.038   4.538   7.139 -0.0110 -0.1214  0.2665
   14DOPE   H7Y 1774   6.186   4.443   7.190  0.5278  1.6704 -0.0976
   14DOPE   C38 1775   6.105   4.402   6.984  0.6478  0.2610 -0.1278
   14DOPE   H8X 1776   6.150   4.301   6.971  0.5164  0.4670 -2.5858
   14DOPE   H8Y 1777   6.187   4.465   6.944  0.2625  0.7898 -0.0899
   14DOPE   C39 1778   5.984   4.410   6.901 -0.1105  0.4171  0.3401
   14DOPE   H9X 1779   5.890   4.431   6.955 -0.6917  0.5387 -0.6908
   14DOPE  C310 1780   5.982   4.405   6.768  0.2687  0.0492 -0.3801
   14DOPE  H10X 1781   5.888   4.390   6.714 -0.1704 -3.8309  1.1765
   14DOPE  C311 1782   6.100   4.399   6.687  0.0487  0.6357  0.2238
   14DOPE  H11X 1783   6.131   4.494   6.638  2.1718  0.3128  0.8437
   14DOPE  H11Y 1784   6.181   4.370   6.757 -0.3220 -0.0294  0.3815
   14DOPE  C312 1785   6.082   4.286   6.578 -0.1334  0.8827  0.1430
   14DOPE  H12X 1786   5.992   4.308   6.515  0.0034 -2.5937 -1.4917
   14DOPE  H12Y 1787   6.082   4.185   6.624  0.5998  0.9453  0.2916
   14DOPE  C313 1788   6.208   4.267   6.478 -0.4786  0.3134 -0.2362
   14DOPE  H13X 1789   6.223   4.368   6.432 -0.6570  1.9612  3.0439
   14DOPE  H13Y 1790   6.298   4.229   6.531  0.1250 -1.2295 -2.2189
   14DOPE  C314 1791   6.181   4.173   6.356 -0.1447 -0.3829  0.4732
   14DOPE  H14X 1792   6.082   4.207   6.319 -0.0046  0.8979  1.2054
   14DOPE  H14Y 1793   6.182   4.068   6.394  1.5071 -0.8042 -0.6233
   14DOPE  C315 1794   6.283   4.176   6.240 -1.1911  0.4545  0.2156
   14DOPE  H15X 1795   6.309   4.283   6.228 -0.5596  0.4840  1.6478
   14DOPE  H15Y 1796   6.243   4.138   6.144  2.3798  0.3847 -1.4052
   14DOPE  C316 1797   6.412   4.087   6.256  0.7983  0.3915 -0.2346
   14DOPE  H16X 1798   6.446   4.090   6.361 -0.8134  1.0618  0.2976
   14DOPE  H16Y 1799   6.488   4.134   6.189  1.6571  0.3273  0.6778
   14DOPE  C317 1800   6.385   3.942   6.211 -0.2047 -0.0024 -0.2138
   14DOPE  H17X 1801   6.310   3.884   6.268  0.3899  0.6081  1.2507
   14DOPE  H17Y 1802   6.339   3.943   6.110  0.0923  1.5349 -0.3690
   14DOPE  C318 1803   6.513   3.858   6.215 -0.2603 -0.0358  0.3756
   14DOPE  H18X 1804   6.567   3.895   6.125  0.0235  1.6928  1.2287
   14DOPE  H18Y 1805   6.572   3.892   6.302  0.2683  1.3574 -0.4907
   14DOPE  H18Z 1806   6.509   3.748   6.198 -0.4703 -0.0284  0.3777
   15DOPE     N 1807   6.126   1.801   8.472 -0.4875 -0.2555  0.0302
   15DOPE   HN1 1808   6.137   1.856   8.559 -0.6965 -0.0989 -0.0396
   15DOPE   HN2 1809   6.024   1.796   8.454 -0.3213 -0.4958 -0.9455
   15DOPE   HN3 1810   6.169   1.707   8.484  2.1689  0.9042  0.3846
   15DOPE   C12 1811   6.195   1.873   8.357 -0.2739  0.8496 -0.2338
   15DOPE  H12A 1812   6.170   1.982   8.361 -1.5890  0.5566  0.0366
   15DOPE  H12B 1813   6.149   1.840   8.262 -0.7218 -0.9959  0.5913
   15DOPE   C11 1814   6.345   1.847   8.372  0.6203  0.1634  0.1012
   15DOPE  H11A 1815   6.398   1.900   8.289  0.7638  1.4296  0.9714
   15DOPE  H11B 1816   6.381   1.742   8.362  1.5706  0.6042 -1.5418
   15DOPE     P 1817   6.521   1.855   8.575  0.2286  0.3518 -0.7621
   15DOPE   O13 1818   6.489   1.739   8.662 -0.3799  0.3895  0.8267
   15DOPE   O14 1819   6.565   1.976   8.642 -0.3431  0.0159  0.3673
   15DOPE   O11 1820   6.617   1.818   8.457  0.1654  0.4946  0.4452
   15DOPE   O12 1821   6.396   1.900   8.489 -0.1786  0.0122 -0.0333
   15DOPE    C1 1822   6.736   1.889   8.418 -0.2307  0.0346  0.7219
   15DOPE    HA 1823   6.827   1.825   8.416  0.2501  0.7177  0.3675
   15DOPE    HB 1824   6.759   1.974   8.485  2.3218 -0.8743  1.0906
   15DOPE    C2 1825   6.711   1.944   8.273 -0.2855 -0.5054  0.3585
   15DOPE    HS 1826   6.620   2.005   8.260  0.8892  1.3721  0.6284
   15DOPE   O21 1827   6.718   1.829   8.186 -0.1452 -0.5681 -0.0698
   15DOPE   C21 1828   6.651   1.838   8.080 -0.3749 -0.6684 -0.2100
   15DOPE   O22 1829   6.572   1.928   8.048  0.4707  0.1119 -0.3646
   15DOPE   C22 1830   6.675   1.711   8.005 -0.2037  0.3002  0.6721
   15DOPE   H2R 1831   6.645   1.628   8.071 -1.3713 -0.6593 -0.9853
   15DOPE   H2S 1832   6.779   1.711   7.967  0.2136 -1.4758  1.7044
   15DOPE    C3 1833   6.830   2.040   8.222  0.4734 -0.0402 -0.7194
   15DOPE    HX 1834   6.922   1.985   8.252 -0.0948 -0.2154  0.7429
   15DOPE    HY 1835   6.842   2.128   8.289  2.3770 -0.8619  0.0943
   15DOPE   O31 1836   6.833   2.067   8.078  0.6646 -0.3515  0.5605
   15DOPE   C31 1837   6.768   2.173   8.036 -0.9189 -0.2998 -0.0245
   15DOPE   O32 1838   6.728   2.267   8.103 -0.1955  0.4325 -0.2711
   15DOPE   C32 1839   6.777   2.163   7.885 -0.4736  0.1834  0.2994
   15DOPE   H2X 1840   6.883   2.151   7.853 -0.6413  2.6431 -1.4645
   15DOPE   H2Y 1841   6.722   2.069   7.864 -1.1893  0.8468 -0.8951
   15DOPE   C23 1842   6.581   1.689   7.881  0.1170  0.5479 -0.3979
   15DOPE   H3R 1843   6.474   1.705   7.908  0.0653 -1.2086  0.5706
   15DOPE   H3S 1844   6.592   1.586   7.840 -1.1246 -0.1175  0.8594
   15DOPE   C24 1845   6.605   1.787   7.771  0.2980 -0.0176  0.5483
   15DOPE   H4R 1846   6.714   1.786   7.749  0.1644  0.6631 -0.2248
   15DOPE   H4S 1847   6.582   1.889   7.809  0.5512 -0.2118  1.2299
   15DOPE   C25 1848   6.526   1.751   7.641  0.2792 -0.5962 -0.3992
   15DOPE   H5R 1849   6.417   1.736   7.655  0.1614 -1.1490 -1.7170
   15DOPE   H5S 1850   6.550   1.653   7.593 -0.3076 -0.3734 -1.1722
   15DOPE   C26 1851   6.534   1.853   7.518  0.6966  0.0369 -0.4513
   15DOPE   H6R 1852   6.485   1.945   7.555  1.5531  0.2202  0.2494
   15DOPE   H6S 1853   6.471   1.809   7.437 -0.8545  1.4020 -0.0501
   15DOPE   C27 1854   6.670   1.886   7.471 -0.6435 -0.0625  0.4389
   15DOPE   H7R 1855   6.722   1.792   7.445 -3.1582 -1.1234 -1.0688
   15DOPE   H7S 1856   6.722   1.936   7.556 -0.3587  0.3655  0.0169
   15DOPE   C28 1857   6.679   1.971   7.343  0.4077  0.4851  0.2279
   15DOPE   H8R 1858   6.620   2.063   7.363 -2.7670 -1.3765  0.0802
   15DOPE   H8S 1859   6.640   1.924   7.251  3.1092  0.0610 -0.8048
   15DOPE   C29 1860   6.821   2.008   7.325  0.2745  0.0726  0.1366
   15DOPE   H9R 1861   6.868   2.041   7.418 -0.5901  2.5003 -0.1988
   15DOPE  C210 1862   6.896   2.002   7.212  0.0244  0.2027 -0.3987
   15DOPE  H10R 1863   6.996   2.046   7.220  1.0475 -2.0308  0.0030
   15DOPE  C211 1864   6.856   1.959   7.070 -0.6633  0.6689  0.5860
   15DOPE  H11R 1865   6.888   2.044   7.005 -1.3301  0.2232 -0.3514
   15DOPE  H11S 1866   6.747   1.947   7.053 -0.6350  1.5971 -0.4271
   15DOPE  C212 1867   6.907   1.816   7.015 -0.3904 -0.1424 -0.2694
   15DOPE  H12R 1868   6.888   1.744   7.097 -3.8953  0.8412 -0.0591
   15DOPE  H12S 1869   7.015   1.826   6.992 -0.8028 -0.6095 -2.7416
   15DOPE  C213 1870   6.839   1.764   6.890  0.8503 -0.6377 -0.3722
   15DOPE  H13R 1871   6.732   1.741   6.911  0.3937 -0.4079 -2.2778
   15DOPE  H13S 1872   6.878   1.667   6.853  0.0225 -0.9456 -0.4584
   15DOPE  C214 1873   6.836   1.864   6.770  0.5628 -0.3143 -0.1016
   15DOPE  H14R 1874   6.941   1.893   6.748  0.2422 -0.1027 -1.4129
   15DOPE  H14S 1875   6.781   1.954   6.805 -0.0778 -0.2337 -1.2643
   15DOPE  C215 1876   6.764   1.806   6.645 -0.0155  0.0146  0.4191
   15DOPE  H15R 1877   6.658   1.777   6.664 -1.0474  2.3762 -1.3049
   15DOPE  H15S 1878   6.823   1.716   6.619 -0.2394 -0.2510  0.7999
   15DOPE  C216 1879   6.745   1.903   6.526 -0.8462  0.4775 -0.3919
   15DOPE  H16R 1880   6.830   1.957   6.480  0.6452 -2.0912 -0.8106
   15DOPE  H16S 1881   6.669   1.977   6.560 -0.3726  0.0277  1.8066
   15DOPE  C217 1882   6.680   1.825   6.403 -0.4247  0.2278  0.0129
   15DOPE  H17R 1883   6.650   1.900   6.326  0.1400  0.5311  0.0853
   15DOPE  H17S 1884   6.587   1.772   6.435  0.7034 -1.0227  1.3567
   15DOPE  C218 1885   6.787   1.734   6.330  0.5415 -0.0037  0.0707
   15DOPE  H18R 1886   6.824   1.647   6.388  0.5511  0.7405  1.2170
   15DOPE  H18S 1887   6.872   1.802   6.307  1.0718 -0.5670  0.3453
   15DOPE  H18T 1888   6.743   1.705   6.233 -1.8992 -0.9544  1.3726
   15DOPE   C33 1889   6.713   2.280   7.812 -0.2443 -0.1888  0.9036
   15DOPE   H3X 1890   6.731   2.254   7.706  1.5507 -0.1533  1.1714
   15DOPE   H3Y 1891   6.753   2.381   7.838 -1.2268  0.4139  0.1524
   15DOPE   C34 1892   6.559   2.283   7.830 -0.1476 -0.4057 -0.1454
   15DOPE   H4X 1893   6.507   2.186   7.816 -1.8042  0.4597 -0.2587
   15DOPE   H4Y 1894   6.546   2.317   7.935  1.6245 -0.3851  0.1017
   15DOPE   C35 1895   6.473   2.390   7.757 -0.3354  0.0544 -0.5291
   15DOPE   H5X 1896   6.500   2.496   7.770  1.1035 -0.5367  2.1473
   15DOPE   H5Y 1897   6.371   2.386   7.800 -0.1583  2.2170  0.1579
   15DOPE   C36 1898   6.441   2.357   7.612 -0.5692  0.5737 -0.2078
   15DOPE   H6X 1899   6.393   2.258   7.595 -0.5866  0.5876 -0.2395
   15DOPE   H6Y 1900   6.542   2.351   7.567  0.4988 -1.0375  2.2028
   15DOPE   C37 1901   6.359   2.468   7.540 -0.3030 -0.0382  0.3304
   15DOPE   H7X 1902   6.262   2.478   7.594 -1.4946 -0.8880 -1.5473
   15DOPE   H7Y 1903   6.417   2.561   7.554 -2.2877  1.0441  1.9869
   15DOPE   C38 1904   6.333   2.430   7.392  0.2941  0.0757 -0.4700
   15DOPE   H8X 1905   6.268   2.510   7.352  1.5094  1.0795 -0.5030
   15DOPE   H8Y 1906   6.283   2.331   7.399  2.2086 -0.8780  0.3026
   15DOPE   C39 1907   6.450   2.429   7.306  0.1219  0.0459  0.0844
   15DOPE   H9X 1908   6.522   2.511   7.299  0.2112 -0.0454 -0.0811
   15DOPE  C310 1909   6.483   2.329   7.224  0.3235  0.0599 -0.1660
   15DOPE  H10X 1910   6.576   2.342   7.166 -0.0248 -0.8809 -0.9656
   15DOPE  C311 1911   6.405   2.203   7.196  0.1421 -0.5187  0.5833
   15DOPE  H11X 1912   6.447   2.122   7.260  0.3720 -1.6196 -0.9096
   15DOPE  H11Y 1913   6.296   2.203   7.217 -0.3123 -2.9823 -1.3913
   15DOPE  C312 1914   6.416   2.140   7.047  0.1822 -0.6380  0.3121
   15DOPE  H12X 1915   6.384   2.035   7.062 -0.9506 -0.5163 -1.0050
   15DOPE  H12Y 1916   6.521   2.152   7.013  0.5616 -1.8124  1.0027
   15DOPE  C313 1917   6.325   2.211   6.948  0.2746  0.2776  0.4036
   15DOPE  H13X 1918   6.228   2.251   6.986 -0.5826  0.6380 -1.9510
   15DOPE  H13Y 1919   6.369   2.308   6.917 -1.0595  0.6594 -0.3913
   15DOPE  C314 1920   6.297   2.128   6.824 -0.4962 -0.2373  0.6755
   15DOPE  H14X 1921   6.220   2.170   6.755 -2.3729 -1.1731  2.0869
   15DOPE  H14Y 1922   6.246   2.032   6.849 -0.9293  0.3042  1.9243
   15DOPE  C315 1923   6.420   2.090   6.735 -0.1749  0.4074 -0.1668
   15DOPE  H15X 1924   6.472   2.002   6.780  0.6005 -0.1925 -2.1220
   15DOPE  H15Y 1925   6.494   2.172   6.733  0.7484 -0.4000 -0.2570
   15DOPE  C316 1926   6.375   2.048   6.594  0.1879 -0.7452 -0.3045
   15DOPE  H16X 1927   6.467   2.034   6.533 -0.7082 -0.6402 -1.7416
   15DOPE  H16Y 1928   6.333   2.136   6.540  3.4425  1.4954  0.4794
   15DOPE  C317 1929   6.283   1.926   6.580  0.1375 -0.1065  0.0353
   15DOPE  H17X 1930   6.333   1.833   6.615  0.0107 -0.9588 -1.9172
   15DOPE  H17Y 1931   6.205   1.928   6.660 -0.0050 -0.5129 -0.0936
   15DOPE  C318 1932   6.204   1.913   6.456  0.0885 -0.0169  0.1689
   15DOPE  H18X 1933   6.282   1.900   6.378  0.9771 -0.9108  1.1781
   15DOPE  H18Y 1934   6.128   1.832   6.457  0.3605 -0.2891  1.7644
   15DOPE  H18Z 1935   6.150   2.007   6.429  0.4754  0.2369  0.2744
   16DOPE     N 1936   0.237   4.001   8.220 -0.0402 -0.3024 -0.0944
   16DOPE   HN1 1937   0.240   3.968   8.122 -4.2705 -0.1986 -0.4573
   16DOPE   HN2 1938   0.160   3.940   8.255 -1.8678  1.8908 -0.0179
   16DOPE   HN3 1939   0.207   4.100   8.215  0.9610  0.0173 -0.0189
   16DOPE   C12 1940   0.376   4.000   8.277  0.5250  0.3540  0.1739
   16DOPE  H12A 1941   0.370   4.064   8.368  2.3588  3.7839 -1.9515
   16DOPE  H12B 1942   0.438   4.058   8.206 -2.4951  1.5686 -1.6687
   16DOPE   C11 1943   0.410   3.857   8.324 -0.7475 -0.2568 -0.5433
   16DOPE  H11A 1944   0.336   3.823   8.400 -0.2971  0.2689  0.1358
   16DOPE  H11B 1945   0.508   3.857   8.376 -0.7828  2.6331 -0.3497
   16DOPE     P 1946   0.475   3.636   8.210 -0.3039  0.1552 -0.0624
   16DOPE   O13 1947   0.414   3.545   8.308 -0.6444  0.2716  0.8946
   16DOPE   O14 1948   0.618   3.663   8.232  0.5965 -0.1022 -0.3630
   16DOPE   O11 1949   0.452   3.567   8.066 -0.3971  0.3723 -0.6948
   16DOPE   O12 1950   0.401   3.773   8.208  0.8896 -0.2199 -0.2465
   16DOPE    C1 1951   0.536   3.601   7.961  0.0495 -0.8907  0.0312
   16DOPE    HA 1952   0.624   3.533   7.958 -0.4569 -1.5757  0.3300
   16DOPE    HB 1953   0.572   3.705   7.969  0.2652 -0.9854  0.2982
   16DOPE    C2 1954   0.455   3.606   7.831 -0.3115  1.2968 -0.5930
   16DOPE    HS 1955   0.354   3.644   7.856 -0.6386  2.4014 -3.1868
   16DOPE   O21 1956   0.445   3.469   7.781 -0.8757 -0.2426 -0.0117
   16DOPE   C21 1957   0.356   3.439   7.694 -0.0473 -0.2871  0.2115
   16DOPE   O22 1958   0.263   3.511   7.662 -0.0008 -0.1092 -0.5080
   16DOPE   C22 1959   0.374   3.296   7.650  0.5261  0.4367 -0.0433
   16DOPE   H2R 1960   0.349   3.238   7.742  2.4142  1.8601  1.4408
   16DOPE   H2S 1961   0.481   3.276   7.630  0.4595 -0.0058  0.0185
   16DOPE    C3 1962   0.510   3.700   7.721  0.1931  0.2226 -0.0553
   16DOPE    HX 1963   0.610   3.658   7.696  0.7489 -0.6861  3.2048
   16DOPE    HY 1964   0.529   3.796   7.775  0.9797  1.0458 -1.7378
   16DOPE   O31 1965   0.424   3.716   7.606 -0.5028 -0.0054  0.3534
   16DOPE   C31 1966   0.336   3.809   7.605 -1.3171 -0.1246 -0.5229
   16DOPE   O32 1967   0.321   3.890   7.691  0.3036  0.0160 -0.9894
   16DOPE   C32 1968   0.264   3.806   7.472 -0.6520 -0.0928 -0.0850
   16DOPE   H2X 1969   0.157   3.818   7.498 -0.4737 -0.0311  0.6501
   16DOPE   H2Y 1970   0.299   3.889   7.408  0.2270  0.4695  1.0872
   16DOPE   C23 1971   0.297   3.245   7.530 -0.0444 -0.6408  0.3612
   16DOPE   H3R 1972   0.326   3.282   7.429 -2.3910 -0.3026 -0.2584
   16DOPE   H3S 1973   0.190   3.274   7.532  0.6662  2.3053  1.0001
   16DOPE   C24 1974   0.309   3.087   7.527  0.3309 -1.0988  0.3526
   16DOPE   H4R 1975   0.279   3.050   7.627 -1.1106 -1.8216 -0.3226
   16DOPE   H4S 1976   0.414   3.057   7.507  0.4982 -1.0636  1.1816
   16DOPE   C25 1977   0.221   3.028   7.422  0.3782  0.4413  0.1845
   16DOPE   H5R 1978   0.117   3.059   7.444  1.1519  2.9291  0.6338
   16DOPE   H5S 1979   0.226   2.917   7.437 -0.6966  0.4675  0.8879
   16DOPE   C26 1980   0.257   3.049   7.274 -0.2656 -0.1240 -0.5595
   16DOPE   H6R 1981   0.365   3.022   7.272 -0.0818  0.5811 -0.5549
   16DOPE   H6S 1982   0.252   3.159   7.257  3.1231  0.0984 -0.9068
   16DOPE   C27 1983   0.159   2.965   7.192 -0.3983  0.0772 -0.3515
   16DOPE   H7R 1984   0.061   3.015   7.207 -0.1283  0.9698 -1.4419
   16DOPE   H7S 1985   0.151   2.860   7.229  0.5363  1.0267  2.9189
   16DOPE   C28 1986   0.203   2.960   7.042  0.1722  0.4150 -0.2956
   16DOPE   H8R 1987   0.273   3.040   7.009  1.8751 -0.3390  1.2572
   16DOPE   H8S 1988   0.109   2.969   6.984  0.4541  1.6397 -0.5856
   16DOPE   C29 1989   0.290   2.837   7.020  0.4172  0.2448 -0.3678
   16DOPE   H9R 1990   0.384   2.839   7.077 -0.0906  0.2691  0.4850
   16DOPE  C210 1991   0.261   2.734   6.936  0.4612 -0.3364  0.0283
   16DOPE  H10R 1992   0.337   2.655   6.927  1.3797  0.5740 -0.3392
   16DOPE  C211 1993   0.130   2.717   6.860  0.0722 -0.0695 -0.5307
   16DOPE  H11R 1994   0.061   2.776   6.924  2.9031  1.6136  1.2433
   16DOPE  H11S 1995   0.088   2.615   6.854  1.4179 -0.6203 -0.9906
   16DOPE  C212 1996   0.127   2.775   6.711  0.0353 -0.6872  0.2376
   16DOPE  H12R 1997   0.170   2.877   6.700  2.2012 -1.7932 -3.3813
   16DOPE  H12S 1998   0.020   2.778   6.679  0.3183 -0.3527 -0.6969
   16DOPE  C213 1999   0.218   2.694   6.622  0.6316 -0.9986  0.1250
   16DOPE  H13R 2000   0.202   2.585   6.639  0.8487 -0.9285  0.8262
   16DOPE  H13S 2001   0.323   2.701   6.656  0.1358 -1.7948  1.9640
   16DOPE  C214 2002   0.219   2.733   6.470 -0.4754  0.1299  0.1381
   16DOPE  H14R 2003   0.253   2.837   6.448  0.9035 -0.7058 -1.9268
   16DOPE  H14S 2004   0.118   2.711   6.428 -0.6442 -0.1586  0.6978
   16DOPE  C215 2005   0.312   2.641   6.389 -0.2645 -0.3586  0.0309
   16DOPE  H15R 2006   0.285   2.535   6.407 -0.5151 -0.7564 -2.3784
   16DOPE  H15S 2007   0.416   2.659   6.423  0.2821 -1.8988 -0.7260
   16DOPE  C216 2008   0.316   2.656   6.236  0.4134 -0.4920 -0.6075
   16DOPE  H16R 2009   0.345   2.760   6.210 -0.5273  0.2851  1.2975
   16DOPE  H16S 2010   0.218   2.642   6.184  0.5526  0.9897 -1.2938
   16DOPE  C217 2011   0.395   2.555   6.148 -0.5920  0.3593 -0.7677
   16DOPE  H17R 2012   0.368   2.454   6.188 -0.4947  0.4283 -0.5219
   16DOPE  H17S 2013   0.502   2.571   6.171 -0.6104 -1.6702  1.1045
   16DOPE  C218 2014   0.368   2.561   6.001  0.0566  0.8428  0.2894
   16DOPE  H18R 2015   0.428   2.501   5.930 -0.1610 -0.6920  1.3660
   16DOPE  H18S 2016   0.375   2.668   5.971  1.1864  0.6642 -0.1072
   16DOPE  H18T 2017   0.260   2.532   5.994  0.4808 -1.5983  2.3117
   16DOPE   C33 2018   0.288   3.683   7.378 -0.4733 -1.1177 -0.2030
   16DOPE   H3X 2019   0.246   3.590   7.422  1.1932 -2.1421 -0.6887
   16DOPE   H3Y 2020   0.397   3.666   7.368 -0.4450  0.1548 -2.7220
   16DOPE   C34 2021   0.228   3.715   7.239  0.3414 -0.1861  0.4367
   16DOPE   H4X 2022   0.119   3.694   7.234  0.0985  1.2671 -1.1876
   16DOPE   H4Y 2023   0.252   3.817   7.203 -0.2098 -0.7198 -1.5463
   16DOPE   C35 2024   0.273   3.610   7.134  0.3728  0.2361  0.2090
   16DOPE   H5X 2025   0.234   3.514   7.176  1.6519 -0.1562  0.5366
   16DOPE   H5Y 2026   0.383   3.593   7.136  0.6440  1.7465 -0.7203
   16DOPE   C36 2027   0.234   3.637   6.992 -0.1797 -0.5234 -0.3121
   16DOPE   H6X 2028   0.128   3.669   6.999 -0.1329 -0.6560  1.4910
   16DOPE   H6Y 2029   0.224   3.544   6.932 -2.4792 -0.2693 -0.3919
   16DOPE   C37 2030   0.324   3.747   6.933 -0.0405 -0.1002  0.1242
   16DOPE   H7X 2031   0.340   3.834   7.000 -0.1108 -0.4008  0.5322
   16DOPE   H7Y 2032   0.419   3.693   6.917 -0.5663 -1.5482  1.5989
   16DOPE   C38 2033   0.268   3.799   6.799 -0.4317  0.3195 -0.4265
   16DOPE   H8X 2034   0.306   3.900   6.773 -0.6756  0.3900 -0.5047
   16DOPE   H8Y 2035   0.161   3.821   6.819  0.1106  1.4539  1.4717
   16DOPE   C39 2036   0.276   3.703   6.678 -0.2025 -0.0241  1.0995
   16DOPE   H9X 2037   0.320   3.604   6.697  2.6159  0.7837 -0.5959
   16DOPE  C310 2038   0.271   3.749   6.547 -0.0198  0.6165 -0.3767
   16DOPE  H10X 2039   0.280   3.672   6.469 -0.0762 -1.0058  1.1607
   16DOPE  C311 2040   0.234   3.885   6.493 -0.1855 -0.5382  0.3195
   16DOPE  H11X 2041   0.133   3.914   6.528  0.0303 -0.4086  0.8551
   16DOPE  H11Y 2042   0.305   3.958   6.539  1.5113 -1.5466 -0.5988
   16DOPE  C312 2043   0.250   3.898   6.337 -0.4913  0.1697 -0.0180
   16DOPE  H12X 2044   0.210   3.805   6.291 -4.9648  1.4745  0.6641
   16DOPE  H12Y 2045   0.356   3.920   6.315 -0.6151  0.3777 -0.4314
   16DOPE  C313 2046   0.160   4.009   6.278 -0.0330  0.3813  0.1117
   16DOPE  H13X 2047   0.076   4.024   6.349  0.4004  1.8188  0.3470
   16DOPE  H13Y 2048   0.210   4.109   6.278  0.3517  0.1926  1.0151
   16DOPE  C314 2049   0.109   3.973   6.137 -0.0371 -0.3583  0.5031
   16DOPE  H14X 2050   0.061   3.874   6.152  5.2051 -3.3191  0.2915
   16DOPE  H14Y 2051   0.197   3.952   6.073 -1.5093 -0.5435 -1.5255
   16DOPE  C315 2052   0.016   4.075   6.075  0.8155 -0.1018 -0.1408
   16DOPE  H15X 2053   0.055   4.177   6.093 -0.0976  0.2982 -0.3565
   16DOPE  H15Y 2054  -0.079   4.079   6.133  2.2481  0.2715  2.3220
   16DOPE  C316 2055   0.001   4.067   5.922 -0.0451 -0.2270  0.1158
   16DOPE  H16X 2056  -0.063   3.981   5.897  0.7916 -0.3027 -2.0101
   16DOPE  H16Y 2057   0.100   4.059   5.872 -0.5515  0.8392 -1.1289
   16DOPE  C317 2058  -0.058   4.191   5.868 -0.3728 -0.0341  0.1749
   16DOPE  H17X 2059  -0.159   4.192   5.914 -0.7564 -1.5162 -0.5729
   16DOPE  H17Y 2060  -0.008   4.280   5.911 -0.1750 -1.3916  3.0104
   16DOPE  C318 2061  -0.058   4.201   5.715  0.1562 -0.0814 -0.0749
   16DOPE  H18X 2062   0.041   4.207   5.665 -1.0190 -0.8381 -2.6314
   16DOPE  H18Y 2063  -0.109   4.110   5.675 -1.2088  0.8982 -0.6347
   16DOPE  H18Z 2064  -0.108   4.293   5.678  1.9215  0.9689  0.0572
   17DOPE     N 2065   2.775   5.231   8.413  0.2547  0.3402  0.2982
   17DOPE   HN1 2066   2.857   5.287   8.382 -0.0374 -0.4384 -2.0706
   17DOPE   HN2 2067   2.797   5.131   8.396  1.4850  0.4390  1.1700
   17DOPE   HN3 2068   2.701   5.240   8.340 -0.2936 -0.5246  0.7341
   17DOPE   C12 2069   2.731   5.273   8.551 -0.2643 -0.0908  0.1576
   17DOPE  H12A 2070   2.822   5.284   8.613  0.0006  0.2960 -0.3025
   17DOPE  H12B 2071   2.662   5.192   8.586 -2.0082  0.9176 -0.7863
   17DOPE   C11 2072   2.662   5.412   8.558  0.0946  0.5225 -0.7181
   17DOPE  H11A 2073   2.651   5.438   8.665  1.2205 -0.9489 -0.2207
   17DOPE  H11B 2074   2.559   5.397   8.518  0.5445  1.5512 -2.3608
   17DOPE     P 2075   2.662   5.670   8.494  0.7361  0.1739 -0.1020
   17DOPE   O13 2076   2.747   5.762   8.571 -0.1998  0.1062 -0.1248
   17DOPE   O14 2077   2.520   5.662   8.545  0.6670 -0.3242  0.1388
   17DOPE   O11 2078   2.645   5.720   8.342  0.0298  0.0520 -0.2912
   17DOPE   O12 2079   2.718   5.519   8.487  0.2846  0.4305 -0.0083
   17DOPE    C1 2080   2.713   5.640   8.240  0.2102  0.3655 -0.3823
   17DOPE    HA 2081   2.689   5.532   8.240 -0.1696  0.4110  1.3493
   17DOPE    HB 2082   2.823   5.646   8.248  0.1631 -0.8721  2.2575
   17DOPE    C2 2083   2.665   5.683   8.100  0.5869 -0.6481  0.1430
   17DOPE    HS 2084   2.632   5.790   8.100 -1.6825 -1.3001 -0.7660
   17DOPE   O21 2085   2.553   5.594   8.059 -0.2994  0.0758 -0.5605
   17DOPE   C21 2086   2.440   5.641   8.087  0.3310 -0.1504 -0.1655
   17DOPE   O22 2087   2.418   5.750   8.144  0.3649 -0.1677  0.6323
   17DOPE   C22 2088   2.326   5.561   8.020 -0.1090 -0.0985  0.4347
   17DOPE   H2R 2089   2.246   5.542   8.095 -0.3670  0.9376  0.4377
   17DOPE   H2S 2090   2.368   5.463   7.987  2.1253  0.8190  0.3925
   17DOPE    C3 2091   2.776   5.683   7.999 -0.5193  0.4036  0.8661
   17DOPE    HX 2092   2.802   5.577   7.983  1.4247  1.0040 -0.2867
   17DOPE    HY 2093   2.855   5.731   8.061 -0.3105 -1.5864  2.2047
   17DOPE   O31 2094   2.748   5.749   7.873  0.2868  0.9348 -0.0308
   17DOPE   C31 2095   2.854   5.753   7.789  0.2238  0.5062 -0.4400
   17DOPE   O32 2096   2.972   5.728   7.820  0.0900 -0.5866  0.5936
   17DOPE   C32 2097   2.806   5.768   7.647  0.2347  0.4198 -0.0146
   17DOPE   H2X 2098   2.699   5.741   7.633 -0.6332  2.7676  1.4815
   17DOPE   H2Y 2099   2.804   5.878   7.635  0.2401  0.5632  1.1703
   17DOPE   C23 2100   2.255   5.624   7.886  0.0855  0.7026  0.1135
   17DOPE   H3R 2101   2.202   5.718   7.909  1.1627  1.3694 -0.0760
   17DOPE   H3S 2102   2.183   5.545   7.854  1.8530 -1.0486  0.2509
   17DOPE   C24 2103   2.343   5.644   7.762  0.5335 -0.4697  0.6822
   17DOPE   H4R 2104   2.379   5.544   7.730 -2.7910 -2.0215  1.3052
   17DOPE   H4S 2105   2.431   5.704   7.793 -0.7496  1.1316  1.3755
   17DOPE   C25 2106   2.275   5.729   7.656 -0.4613 -0.2946 -0.2983
   17DOPE   H5R 2107   2.253   5.826   7.704  1.3755 -0.0984  0.2172
   17DOPE   H5S 2108   2.185   5.672   7.626 -0.6906 -0.2318  0.2603
   17DOPE   C26 2109   2.350   5.751   7.524  0.1621  0.2891  0.4996
   17DOPE   H6R 2110   2.375   5.653   7.479  0.5992  0.8873 -0.6036
   17DOPE   H6S 2111   2.444   5.806   7.550 -0.6024  0.8152  2.3015
   17DOPE   C27 2112   2.276   5.833   7.420  0.6667  0.4723  0.0715
   17DOPE   H7R 2113   2.257   5.932   7.466 -1.4812 -0.2765  0.9556
   17DOPE   H7S 2114   2.175   5.796   7.389  0.7874  1.7853 -2.0959
   17DOPE   C28 2115   2.366   5.862   7.295  0.2791  0.2685  0.0576
   17DOPE   H8R 2116   2.456   5.914   7.335  0.1169  1.7428 -1.4072
   17DOPE   H8S 2117   2.314   5.932   7.227  0.5299  0.4204  0.0188
   17DOPE   C29 2118   2.390   5.738   7.208  0.3604  0.0348  1.2068
   17DOPE   H9R 2119   2.319   5.654   7.215  0.1704  0.0160 -0.3986
   17DOPE  C210 2120   2.499   5.720   7.133 -0.7252 -0.0163  0.3092
   17DOPE  H10R 2121   2.517   5.617   7.097  1.6971  0.3999  0.1741
   17DOPE  C211 2122   2.609   5.819   7.109 -0.3279  0.5830 -0.4177
   17DOPE  H11R 2123   2.689   5.795   7.182 -1.2228  0.4769  0.5522
   17DOPE  H11S 2124   2.582   5.924   7.131  0.6491  0.7924 -0.1733
   17DOPE  C212 2125   2.667   5.814   6.963  0.0204  0.1030 -0.3970
   17DOPE  H12R 2126   2.723   5.719   6.950  2.3693  1.0007  2.1812
   17DOPE  H12S 2127   2.739   5.898   6.952  0.2999 -0.1643 -0.6287
   17DOPE  C213 2128   2.566   5.813   6.847 -0.5532 -0.1182 -0.2882
   17DOPE  H13R 2129   2.492   5.893   6.867  1.7304  2.3144 -0.8938
   17DOPE  H13S 2130   2.524   5.711   6.838  2.0149 -1.3331  0.6751
   17DOPE  C214 2131   2.635   5.857   6.713 -0.1597  0.8281 -0.0905
   17DOPE  H14R 2132   2.731   5.802   6.702 -1.0718 -1.0447  0.9479
   17DOPE  H14S 2133   2.649   5.968   6.714  1.1641  0.6682  0.9905
   17DOPE  C215 2134   2.547   5.842   6.585  0.4949  0.2782  0.5088
   17DOPE  H15R 2135   2.446   5.889   6.590 -0.2899 -1.4379  2.1772
   17DOPE  H15S 2136   2.531   5.733   6.573  2.4239 -0.2025  1.7606
   17DOPE  C216 2137   2.616   5.885   6.454  0.5362  0.3361 -0.8006
   17DOPE  H16R 2138   2.712   5.828   6.447 -1.0936 -2.7726  0.0883
   17DOPE  H16S 2139   2.659   5.987   6.453  0.7020  0.2914  0.4404
   17DOPE  C217 2140   2.524   5.865   6.336 -0.6879 -0.0389 -0.7240
   17DOPE  H17R 2141   2.427   5.919   6.334 -1.3165 -1.0950  0.0567
   17DOPE  H17S 2142   2.499   5.757   6.323  2.1550 -0.4841 -3.7646
   17DOPE  C218 2143   2.604   5.907   6.210  0.0981  0.3912  0.3649
   17DOPE  H18R 2144   2.530   5.906   6.127 -0.3084 -2.3730  0.6474
   17DOPE  H18S 2145   2.674   5.827   6.177  0.2591  0.7280 -0.1071
   17DOPE  H18T 2146   2.650   6.008   6.212 -0.4342  0.6693 -0.7735
   17DOPE   C33 2147   2.909   5.714   7.539  0.4366  0.4580 -0.9466
   17DOPE   H3X 2148   2.937   5.610   7.568  0.4305  0.6680 -0.1490
   17DOPE   H3Y 2149   3.002   5.774   7.537  1.0762 -0.5206 -1.7042
   17DOPE   C34 2150   2.867   5.709   7.391  0.1516 -0.4964 -0.1437
   17DOPE   H4X 2151   2.763   5.671   7.380 -2.0196  4.3868  0.8386
   17DOPE   H4Y 2152   2.865   5.810   7.345 -2.1863 -0.0773  0.7769
   17DOPE   C35 2153   2.964   5.622   7.305 -0.0241 -0.1195 -0.3872
   17DOPE   H5X 2154   2.962   5.513   7.329 -3.2571 -0.3957 -1.4870
   17DOPE   H5Y 2155   3.067   5.658   7.327 -1.1899  2.5965  1.0383
   17DOPE   C36 2156   2.920   5.631   7.155 -0.4182  0.6024 -0.3214
   17DOPE   H6X 2157   2.935   5.735   7.120 -2.9960  1.0736 -0.2268
   17DOPE   H6Y 2158   2.817   5.598   7.132  0.6364 -1.5064 -2.4747
   17DOPE   C37 2159   3.007   5.537   7.067  0.0748 -0.6703  0.9563
   17DOPE   H7X 2160   3.112   5.570   7.073  0.5324 -1.1857 -2.3230
   17DOPE   H7Y 2161   3.004   5.434   7.109  2.0266 -1.7992 -1.4008
   17DOPE   C38 2162   2.971   5.525   6.914 -0.9161  0.9555  0.2136
   17DOPE   H8X 2163   2.865   5.498   6.896  0.4413 -4.9920 -0.7514
   17DOPE   H8Y 2164   3.026   5.438   6.875 -1.8612  0.0020  0.9568
   17DOPE   C39 2165   3.003   5.650   6.823  0.7802 -0.0081  0.3949
   17DOPE   H9X 2166   2.962   5.745   6.858  1.1706 -0.0022  0.8438
   17DOPE  C310 2167   3.053   5.653   6.697  0.4326  0.2715 -0.4001
   17DOPE  H10X 2168   3.069   5.752   6.651  0.7062  1.7582  2.6486
   17DOPE  C311 2169   3.093   5.527   6.619  0.1599  0.1533  0.0243
   17DOPE  H11X 2170   3.203   5.527   6.606  0.4820 -1.1130  2.1222
   17DOPE  H11Y 2171   3.080   5.433   6.678 -0.7017 -0.3318 -0.9068
   17DOPE  C312 2172   3.021   5.506   6.489 -0.9381 -0.4132 -0.0073
   17DOPE  H12X 2173   2.913   5.494   6.511 -0.7634  1.3804  2.1103
   17DOPE  H12Y 2174   3.050   5.407   6.446 -1.5500 -0.8514  0.5649
   17DOPE  C313 2175   3.030   5.612   6.375  0.2536 -0.0428  0.6624
   17DOPE  H13X 2176   2.968   5.701   6.399 -0.9961  0.2763 -3.1147
   17DOPE  H13Y 2177   3.135   5.647   6.384  0.0369  0.4837  1.2265
   17DOPE  C314 2178   2.991   5.559   6.235 -0.6655  0.2481 -0.5394
   17DOPE  H14X 2179   2.894   5.506   6.247 -0.5563  0.0218 -0.6477
   17DOPE  H14Y 2180   3.066   5.484   6.200 -3.0790 -1.7568 -1.7381
   17DOPE  C315 2181   2.967   5.666   6.130 -0.6291 -0.2623  0.1929
   17DOPE  H15X 2182   3.059   5.728   6.128  0.1081 -1.3345 -0.9170
   17DOPE  H15Y 2183   2.880   5.729   6.157  0.2400  1.1462 -0.1562
   17DOPE  C316 2184   2.952   5.615   5.984 -0.1365 -0.3773  0.4093
   17DOPE  H16X 2185   2.867   5.544   5.998  0.3133 -0.6115  2.2425
   17DOPE  H16Y 2186   3.044   5.565   5.947 -1.2343 -0.5736 -2.2773
   17DOPE  C317 2187   2.937   5.733   5.887 -0.5519 -0.5107 -0.0356
   17DOPE  H17X 2188   2.839   5.781   5.909 -0.8885 -0.4044 -1.6950
   17DOPE  H17Y 2189   3.024   5.799   5.906  0.2195 -1.5617  0.1732
   17DOPE  C318 2190   2.933   5.692   5.737 -0.5869  0.3725  0.7117
   17DOPE  H18X 2191   3.029   5.649   5.702 -0.7977  1.1322 -0.9013
   17DOPE  H18Y 2192   2.864   5.606   5.723 -1.2437  1.0544 -0.4364
   17DOPE  H18Z 2193   2.906   5.780   5.675 -1.4707  0.1207  0.7307
   18DOPE     N 2194   0.229   3.402   8.453 -0.7896  0.6443 -0.0749
   18DOPE   HN1 2195   0.306   3.456   8.408  1.0648 -0.3378  1.7706
   18DOPE   HN2 2196   0.270   3.309   8.476  0.0448  1.2447  0.9418
   18DOPE   HN3 2197   0.148   3.378   8.392 -2.1824  0.2547  1.8387
   18DOPE   C12 2198   0.181   3.466   8.575  0.2291 -0.0434  0.7785
   18DOPE  H12A 2199   0.269   3.484   8.640  1.0913  0.9310 -0.5982
   18DOPE  H12B 2200   0.097   3.402   8.610 -0.9408  1.3770  0.6627
   18DOPE   C11 2201   0.112   3.604   8.534 -0.1695  0.6563 -0.3968
   18DOPE  H11A 2202   0.192   3.673   8.500  0.3664 -0.5545 -1.7039
   18DOPE  H11B 2203   0.048   3.632   8.621 -0.9684 -1.7078 -0.1489
   18DOPE     P 2204  -0.024   3.688   8.331  0.0646  0.1109 -0.2834
   18DOPE   O13 2205   0.070   3.805   8.323  0.1234  0.3187  0.2829
   18DOPE   O14 2206  -0.166   3.720   8.345 -0.1562  0.6400 -0.3279
   18DOPE   O11 2207  -0.009   3.606   8.201 -0.0596  1.0138  0.0168
   18DOPE   O12 2208   0.014   3.575   8.439 -0.0052 -0.1150  0.1857
   18DOPE    C1 2209   0.116   3.593   8.133 -0.7346  0.6088 -0.4238
   18DOPE    HA 2210   0.187   3.538   8.198 -0.3027  0.5943 -0.9006
   18DOPE    HB 2211   0.164   3.691   8.114 -0.1770  0.4188 -0.0352
   18DOPE    C2 2212   0.091   3.528   7.991  0.1699 -0.5191 -0.6397
   18DOPE    HS 2213   0.170   3.563   7.922  2.3236  0.1541  2.0035
   18DOPE   O21 2214  -0.040   3.555   7.927 -0.3507 -0.1643 -0.4092
   18DOPE   C21 2215  -0.058   3.670   7.876  0.0710 -0.3438 -0.5812
   18DOPE   O22 2216   0.013   3.772   7.886  0.1492  0.3995 -0.3952
   18DOPE   C22 2217  -0.187   3.667   7.802  0.5517  0.8015 -0.2873
   18DOPE   H2R 2218  -0.252   3.666   7.892  1.3571 -0.9774  0.3374
   18DOPE   H2S 2219  -0.193   3.575   7.739 -1.5062  1.0964 -0.5944
   18DOPE    C3 2220   0.094   3.372   7.999 -0.8563 -0.1959 -0.4641
   18DOPE    HX 2221   0.024   3.356   8.083 -0.1723  1.9821  0.6029
   18DOPE    HY 2222   0.199   3.345   8.025 -0.4103  1.7161 -0.1231
   18DOPE   O31 2223   0.057   3.312   7.872  0.3206  0.4694 -0.2534
   18DOPE   C31 2224  -0.061   3.265   7.850 -0.3099 -0.5963 -0.2538
   18DOPE   O32 2225  -0.159   3.282   7.925  0.2269 -0.7804 -0.0476
   18DOPE   C32 2226  -0.079   3.197   7.715 -0.6573  0.2675 -0.2211
   18DOPE   H2X 2227  -0.002   3.238   7.648 -2.8360  2.6309 -1.4692
   18DOPE   H2Y 2228  -0.058   3.089   7.731  0.3816  0.8823  3.6545
   18DOPE   C23 2229  -0.222   3.787   7.713 -0.1864  0.1476  0.0097
   18DOPE   H3R 2230  -0.199   3.884   7.763 -4.6408  1.5821 -0.3092
   18DOPE   H3S 2231  -0.332   3.784   7.701 -0.3017 -0.8612  1.2109
   18DOPE   C24 2232  -0.156   3.780   7.579  0.1118  0.0858 -0.0467
   18DOPE   H4R 2233  -0.165   3.679   7.534 -1.2217  0.7171 -1.3064
   18DOPE   H4S 2234  -0.047   3.787   7.594  0.0237 -0.5272  1.0063
   18DOPE   C25 2235  -0.213   3.871   7.472 -0.3834  0.2713 -0.1385
   18DOPE   H5R 2236  -0.212   3.977   7.504 -0.3994  0.4356 -0.6751
   18DOPE   H5S 2237  -0.314   3.835   7.444  0.5772 -1.6313 -1.3518
   18DOPE   C26 2238  -0.117   3.852   7.350  0.3518 -0.2211 -0.4684
   18DOPE   H6R 2239  -0.093   3.745   7.332  1.2547  0.2788 -2.5589
   18DOPE   H6S 2240  -0.022   3.907   7.368  1.7794 -3.2014  1.9810
   18DOPE   C27 2241  -0.197   3.904   7.228 -0.9666 -0.0694 -0.3838
   18DOPE   H7R 2242  -0.184   4.014   7.218  1.4858  0.0310  2.5251
   18DOPE   H7S 2243  -0.306   3.886   7.233 -1.3359  2.1633  0.8102
   18DOPE   C28 2244  -0.133   3.841   7.106  0.1165  0.2061 -0.5865
   18DOPE   H8R 2245  -0.024   3.847   7.130 -0.7062  1.4486  3.6697
   18DOPE   H8S 2246  -0.146   3.909   7.019 -0.7199  2.1033  0.9693
   18DOPE   C29 2247  -0.184   3.703   7.066 -0.2545 -0.3449  0.0948
   18DOPE   H9R 2248  -0.230   3.651   7.151  0.1883 -2.3711 -0.8623
   18DOPE  C210 2249  -0.194   3.659   6.939  0.5311  0.4108  0.3003
   18DOPE  H10R 2250  -0.217   3.553   6.918 -0.0317  0.5738  0.0867
   18DOPE  C211 2251  -0.147   3.734   6.819 -0.5730 -0.6187  0.7864
   18DOPE  H11R 2252  -0.039   3.759   6.830 -0.5517 -0.0630 -0.5022
   18DOPE  H11S 2253  -0.192   3.835   6.816 -0.6306 -0.6760 -1.2456
   18DOPE  C212 2254  -0.178   3.656   6.691 -0.4919  0.2249 -0.0270
   18DOPE  H12R 2255  -0.287   3.648   6.671 -0.1778  1.2599 -2.5408
   18DOPE  H12S 2256  -0.139   3.552   6.695  0.3818  0.5559  0.4964
   18DOPE  C213 2257  -0.116   3.721   6.564  0.0352 -0.6823 -0.1709
   18DOPE  H13R 2258  -0.015   3.763   6.578 -0.0060 -0.6579  0.0661
   18DOPE  H13S 2259  -0.185   3.804   6.537  1.6552  1.0963  0.9474
   18DOPE  C214 2260  -0.110   3.634   6.444 -0.0875 -0.4180 -0.0949
   18DOPE  H14R 2261  -0.058   3.696   6.368  1.1013  1.7107  2.2866
   18DOPE  H14S 2262  -0.215   3.607   6.418 -0.3395  1.3861 -1.1267
   18DOPE  C215 2263  -0.018   3.515   6.460  0.2652  0.3433 -0.2786
   18DOPE  H15R 2264  -0.047   3.456   6.550 -2.3630 -0.5306 -1.5882
   18DOPE  H15S 2265   0.084   3.553   6.482  0.3334  0.7040 -1.1912
   18DOPE  C216 2266  -0.025   3.429   6.336 -0.3682  0.0110 -0.1685
   18DOPE  H16R 2267   0.002   3.492   6.249  0.6427  1.5380  1.1966
   18DOPE  H16S 2268  -0.127   3.388   6.317  0.5909 -1.6835 -2.1945
   18DOPE  C217 2269   0.085   3.311   6.336  0.5095  0.3523  0.1253
   18DOPE  H17R 2270   0.077   3.246   6.246  0.4387 -0.5020  0.7377
   18DOPE  H17S 2271   0.074   3.249   6.427  1.2393  2.4403  1.7402
   18DOPE  C218 2272   0.226   3.355   6.337 -0.9021  0.3749  0.8186
   18DOPE  H18R 2273   0.242   3.417   6.246 -0.2380  0.8184  1.2250
   18DOPE  H18S 2274   0.302   3.274   6.327 -0.1240  1.0759  0.8757
   18DOPE  H18T 2275   0.257   3.410   6.428 -0.2442  1.2169  0.1104
   18DOPE   C33 2276  -0.214   3.223   7.661 -0.3908 -0.1654 -0.7688
   18DOPE   H3X 2277  -0.235   3.331   7.645 -2.1803 -0.2708  0.5583
   18DOPE   H3Y 2278  -0.286   3.178   7.732  1.0679 -1.0752  0.1794
   18DOPE   C34 2279  -0.253   3.145   7.536  0.6726 -0.2681 -0.8141
   18DOPE   H4X 2280  -0.232   3.039   7.561  2.3352  0.5133  1.4353
   18DOPE   H4Y 2281  -0.358   3.160   7.504  1.1029  2.3546 -1.2211
   18DOPE   C35 2282  -0.160   3.193   7.420  0.1397 -0.2418 -0.2681
   18DOPE   H5X 2283  -0.163   3.110   7.346 -0.3272 -0.1437 -0.3594
   18DOPE   H5Y 2284  -0.052   3.201   7.448  0.6369 -2.2647 -1.4206
   18DOPE   C36 2285  -0.210   3.317   7.358  0.2756  0.0979 -0.4432
   18DOPE   H6X 2286  -0.216   3.396   7.436 -0.1597 -1.9911  1.7614
   18DOPE   H6Y 2287  -0.311   3.308   7.311 -1.4043 -2.1186  3.1090
   18DOPE   C37 2288  -0.121   3.369   7.246  0.0655  0.2008  0.1208
   18DOPE   H7X 2289  -0.156   3.470   7.215  0.4360 -0.2712 -2.0216
   18DOPE   H7Y 2290  -0.016   3.381   7.278 -0.2868 -1.4483  2.1218
   18DOPE   C38 2291  -0.106   3.279   7.118  0.3077 -0.4130  0.3451
   18DOPE   H8X 2292  -0.199   3.220   7.100  1.1059 -1.1507 -1.7500
   18DOPE   H8Y 2293  -0.029   3.202   7.142  1.4831  1.0318  1.3668
   18DOPE   C39 2294  -0.060   3.346   6.994  0.4163 -0.3133 -0.1679
   18DOPE   H9X 2295   0.007   3.431   7.012 -0.8344  0.6491  0.0784
   18DOPE  C310 2296  -0.079   3.301   6.865 -0.2138 -0.1658 -0.0590
   18DOPE  H10X 2297  -0.030   3.352   6.780 -0.0563 -0.3688 -0.0916
   18DOPE  C311 2298  -0.143   3.168   6.830  0.4911 -0.0629 -0.4889
   18DOPE  H11X 2299  -0.184   3.127   6.925  1.4068  0.5880  0.2036
   18DOPE  H11Y 2300  -0.233   3.191   6.769 -0.3079  3.5486  1.7431
   18DOPE  C312 2301  -0.052   3.071   6.759 -0.0836  0.4132 -0.2702
   18DOPE  H12X 2302  -0.092   2.975   6.799  0.2565  0.7979  1.0176
   18DOPE  H12Y 2303   0.053   3.084   6.793 -0.6570  0.2326  1.6577
   18DOPE  C313 2304  -0.062   3.069   6.606  0.2284 -0.1993  0.0057
   18DOPE  H13X 2305  -0.074   3.174   6.572 -2.0466 -0.8947 -1.5710
   18DOPE  H13Y 2306   0.033   3.032   6.563  1.8870  0.8118  2.5817
   18DOPE  C314 2307  -0.189   2.987   6.554 -0.1814 -0.5634  0.1588
   18DOPE  H14X 2308  -0.270   3.045   6.603  0.8972  2.6032 -1.5178
   18DOPE  H14Y 2309  -0.197   2.881   6.583  0.6193 -0.9561 -0.9733
   18DOPE  C315 2310  -0.212   3.002   6.401  0.5770 -0.3379 -0.2011
   18DOPE  H15X 2311  -0.239   3.106   6.372 -1.2296 -1.1118 -1.5044
   18DOPE  H15Y 2312  -0.303   2.943   6.379 -0.5632  1.3016 -0.0430
   18DOPE  C316 2313  -0.098   2.947   6.309  0.4056  0.6103 -0.8081
   18DOPE  H16X 2314  -0.063   2.843   6.326  0.4303  0.3431 -2.3509
   18DOPE  H16Y 2315  -0.013   3.014   6.333  0.5371 -0.0772  0.7461
   18DOPE  C317 2316  -0.129   2.968   6.159 -0.1407  0.8593 -0.5788
   18DOPE  H17X 2317  -0.184   2.876   6.128 -1.2587  1.4995 -0.5564
   18DOPE  H17Y 2318  -0.188   3.061   6.145 -0.1564  1.2409  1.5981
   18DOPE  C318 2319  -0.003   2.973   6.071  0.2965 -0.0372  0.6312
   18DOPE  H18X 2320   0.059   2.882   6.089  1.9618  0.8245 -0.4794
   18DOPE  H18Y 2321  -0.033   2.989   5.966  1.1074 -1.2652  0.1957
   18DOPE  H18Z 2322   0.056   3.064   6.098 -1.0145  1.1954 -0.4894
   19DOPE     N 2323   6.057   4.307   8.477 -0.1071 -0.2479 -0.5106
   19DOPE   HN1 2324   6.103   4.375   8.413 -0.4207  0.5510  0.0931
   19DOPE   HN2 2325   6.059   4.209   8.442  0.6677 -0.4665  0.1052
   19DOPE   HN3 2326   5.961   4.340   8.497  0.2686  0.1259  0.7853
   19DOPE   C12 2327   6.133   4.317   8.607  0.0186 -0.3742 -0.6538
   19DOPE  H12A 2328   6.102   4.229   8.668 -0.6977  0.2193 -0.1422
   19DOPE  H12B 2329   6.097   4.410   8.656 -0.9368 -1.7586  1.4280
   19DOPE   C11 2330   6.286   4.293   8.592 -0.2909 -0.1076 -0.5602
   19DOPE  H11A 2331   6.340   4.310   8.688  0.2827 -2.4115 -0.4286
   19DOPE  H11B 2332   6.326   4.368   8.520 -0.6566  1.2335  0.5822
   19DOPE     P 2333   6.458   4.122   8.507  0.0321 -0.1015  0.0879
   19DOPE   O13 2334   6.474   3.986   8.451  0.3889  0.0067 -0.2499
   19DOPE   O14 2335   6.552   4.165   8.613 -0.0996  0.1097  0.0268
   19DOPE   O11 2336   6.485   4.221   8.379  0.1181  0.4703 -0.4172
   19DOPE   O12 2337   6.305   4.159   8.551 -0.3987 -0.1191  0.5894
   19DOPE    C1 2338   6.376   4.238   8.282 -0.4079  0.3442 -0.0622
   19DOPE    HA 2339   6.349   4.345   8.266  0.1255  0.2087 -2.1423
   19DOPE    HB 2340   6.278   4.205   8.323 -1.1751  0.5630 -1.6452
   19DOPE    C2 2341   6.398   4.179   8.148 -0.1940  0.8536  0.1617
   19DOPE    HS 2342   6.411   4.069   8.162  2.0657  1.1815  1.1923
   19DOPE   O21 2343   6.526   4.227   8.102  0.0452 -0.1079  0.4538
   19DOPE   C21 2344   6.607   4.153   8.036 -0.3859  0.0402  0.7123
   19DOPE   O22 2345   6.578   4.046   7.982  0.0922 -0.1757 -0.0068
   19DOPE   C22 2346   6.739   4.241   8.026  0.0313  0.3957 -0.1767
   19DOPE   H2R 2347   6.788   4.250   8.125 -0.0387 -0.3725 -0.0686
   19DOPE   H2S 2348   6.719   4.344   7.988  2.4595  2.0725  2.6768
   19DOPE    C3 2349   6.286   4.208   8.044  0.3594 -0.2235  0.0041
   19DOPE    HX 2350   6.284   4.318   8.031  4.3552  0.4045  2.7533
   19DOPE    HY 2351   6.190   4.171   8.087  0.3408 -0.8452 -0.5617
   19DOPE   O31 2352   6.323   4.157   7.913 -0.6571 -0.4903 -0.1093
   19DOPE   C31 2353   6.227   4.086   7.846 -0.7160  0.4191 -0.2466
   19DOPE   O32 2354   6.120   4.058   7.889  0.5522  0.1987 -0.5833
   19DOPE   C32 2355   6.277   4.038   7.710  0.1915  0.0113  0.4980
   19DOPE   H2X 2356   6.334   4.122   7.665  1.5732 -0.4052  1.3801
   19DOPE   H2Y 2357   6.349   3.954   7.727 -0.0345  0.2068  2.6852
   19DOPE   C23 2358   6.845   4.181   7.936  0.1438 -0.5904  0.2139
   19DOPE   H3R 2359   6.862   4.076   7.969  0.8787 -0.9643 -1.2891
   19DOPE   H3S 2360   6.942   4.233   7.953  0.3719 -0.4888 -1.3405
   19DOPE   C24 2361   6.810   4.181   7.789  1.0062 -0.2091  0.3885
   19DOPE   H4R 2362   6.822   4.282   7.745  1.8398 -1.3325 -2.1448
   19DOPE   H4S 2363   6.708   4.147   7.762  2.1176 -0.3184 -4.4914
   19DOPE   C25 2364   6.908   4.086   7.715 -0.6056 -0.6331 -0.5475
   19DOPE   H5R 2365   6.886   3.980   7.740 -0.9002 -0.5168 -0.3142
   19DOPE   H5S 2366   7.004   4.101   7.770 -1.6927 -0.4660  1.3837
   19DOPE   C26 2367   6.927   4.105   7.568  0.1542 -0.3594 -0.3018
   19DOPE   H6R 2368   6.838   4.071   7.512  1.2220 -2.3186 -0.8981
   19DOPE   H6S 2369   6.995   4.021   7.543  1.3954  0.3116  0.6822
   19DOPE   C27 2370   6.983   4.234   7.501 -0.1987 -0.4156 -0.4025
   19DOPE   H7R 2371   7.088   4.240   7.538 -1.2152 -2.2839  3.2839
   19DOPE   H7S 2372   6.933   4.322   7.546  2.1145  0.4965  0.5368
   19DOPE   C28 2373   6.974   4.244   7.345  0.2367  0.0308 -0.7308
   19DOPE   H8R 2374   7.018   4.346   7.332 -1.1442  0.8758  0.8190
   19DOPE   H8S 2375   6.865   4.243   7.323  0.2706  0.9512 -1.0079
   19DOPE   C29 2376   7.055   4.150   7.265  0.3124  1.5792  0.6089
   19DOPE   H9R 2377   7.108   4.070   7.319 -0.5543  0.3734 -0.2866
   19DOPE  C210 2378   7.072   4.152   7.133 -0.0356 -0.8964  0.7284
   19DOPE  H10R 2379   7.122   4.068   7.082  0.8318  0.0112  0.0511
   19DOPE  C211 2380   7.031   4.264   7.034  0.3519  0.5347  0.2706
   19DOPE  H11R 2381   7.122   4.297   6.979  2.3318 -1.1069  2.3508
   19DOPE  H11S 2382   6.988   4.353   7.086 -2.1520 -1.1600  1.3133
   19DOPE  C212 2383   6.919   4.234   6.936  0.3382  0.2513  0.1570
   19DOPE  H12R 2384   6.896   4.322   6.872  1.1417  0.4646  0.1486
   19DOPE  H12S 2385   6.832   4.220   7.004  0.1659 -4.1795 -0.7077
   19DOPE  C213 2386   6.935   4.103   6.859 -0.2563  0.3236  0.2766
   19DOPE  H13R 2387   6.928   4.023   6.935 -0.0605 -0.4539 -0.5100
   19DOPE  H13S 2388   7.035   4.092   6.810 -0.2311 -0.2241  0.4469
   19DOPE  C214 2389   6.821   4.084   6.761  0.3431  0.3758  0.5386
   19DOPE  H14R 2390   6.720   4.081   6.806 -0.3909 -0.3177 -1.0600
   19DOPE  H14S 2391   6.845   3.984   6.719  0.0110  0.0250  1.1732
   19DOPE  C215 2392   6.809   4.183   6.646  0.1861  0.5410  0.2814
   19DOPE  H15R 2393   6.916   4.179   6.615 -0.1897 -1.8102 -0.9351
   19DOPE  H15S 2394   6.771   4.281   6.683 -1.0679 -0.0793  0.7087
   19DOPE  C216 2395   6.723   4.142   6.525 -0.1409 -0.2004  0.0762
   19DOPE  H16R 2396   6.622   4.119   6.564 -0.0732 -1.1923 -0.3255
   19DOPE  H16S 2397   6.765   4.043   6.499 -2.0098 -0.0711 -4.2139
   19DOPE  C217 2398   6.732   4.230   6.403  0.3919 -0.5924  0.4695
   19DOPE  H17R 2399   6.669   4.186   6.323  1.3287  2.0466 -1.8736
   19DOPE  H17S 2400   6.839   4.231   6.370 -0.1448 -0.1527 -1.4002
   19DOPE  C218 2401   6.688   4.376   6.434 -0.4869  0.0510 -1.2223
   19DOPE  H18R 2402   6.761   4.412   6.510  1.5483 -3.9105 -1.0215
   19DOPE  H18S 2403   6.586   4.378   6.478 -0.4225  1.6601 -1.1046
   19DOPE  H18T 2404   6.682   4.443   6.346 -1.1257 -1.4608 -2.3865
   19DOPE   C33 2405   6.162   3.981   7.629  0.0677 -0.1714  0.0538
   19DOPE   H3X 2406   6.105   4.067   7.589 -0.0046 -0.8587 -1.3754
   19DOPE   H3Y 2407   6.100   3.903   7.678 -3.5925  2.8024  0.6664
   19DOPE   C34 2408   6.213   3.908   7.508 -0.3005 -0.6742 -0.1879
   19DOPE   H4X 2409   6.263   3.972   7.431 -1.2665 -0.4910 -0.6768
   19DOPE   H4Y 2410   6.277   3.826   7.548  0.5518  0.2629  0.4328
   19DOPE   C35 2411   6.099   3.849   7.420 -0.1528  0.2264  0.0692
   19DOPE   H5X 2412   6.032   3.794   7.489 -0.1765 -1.1373 -0.9980
   19DOPE   H5Y 2413   6.155   3.781   7.352 -1.2021 -1.2032  0.5840
   19DOPE   C36 2414   6.026   3.959   7.337  0.3592  0.9058  0.3330
   19DOPE   H6X 2415   6.095   4.031   7.289  0.2381  0.4462 -0.5492
   19DOPE   H6Y 2416   5.970   4.027   7.405 -1.0941 -2.2333  2.5123
   19DOPE   C37 2417   5.923   3.892   7.243 -0.3478 -0.4476 -0.1439
   19DOPE   H7X 2418   5.963   3.805   7.187  1.4377  0.7859 -0.8899
   19DOPE   H7Y 2419   5.833   3.865   7.303  0.9866  1.8185  3.1303
   19DOPE   C38 2420   5.878   3.990   7.134 -0.1369  0.1088  0.3696
   19DOPE   H8X 2421   5.965   4.029   7.078  0.8208 -1.6427  0.5743
   19DOPE   H8Y 2422   5.836   4.083   7.178  2.8357  1.8837 -0.2972
   19DOPE   C39 2423   5.760   3.942   7.054 -0.0381  0.5997 -0.2033
   19DOPE   H9X 2424   5.659   3.936   7.096 -0.5230 -0.7538 -1.4928
   19DOPE  C310 2425   5.779   3.887   6.931  0.5371 -0.5987  0.0403
   19DOPE  H10X 2426   5.689   3.847   6.882  0.0638 -1.5800  1.6147
   19DOPE  C311 2427   5.901   3.871   6.854  0.1598 -0.3535  1.0720
   19DOPE  H11X 2428   5.990   3.873   6.922  0.5516 -2.1650  0.6554
   19DOPE  H11Y 2429   5.902   3.779   6.793  0.4084  0.2675  0.1149
   19DOPE  C312 2430   5.913   3.987   6.749  0.0423 -0.0966 -1.0672
   19DOPE  H12X 2431   6.000   3.963   6.683  2.0384  0.0297  1.3737
   19DOPE  H12Y 2432   5.949   4.078   6.801  3.1165 -2.3478  1.1263
   19DOPE  C313 2433   5.778   4.005   6.674  0.5418 -0.8095  0.2427
   19DOPE  H13X 2434   5.767   3.902   6.636 -2.0411 -0.8110  0.7829
   19DOPE  H13Y 2435   5.682   4.022   6.728 -0.4060  0.8166 -1.7932
   19DOPE  C314 2436   5.776   4.106   6.559  0.0123  0.3111 -0.1788
   19DOPE  H14X 2437   5.868   4.089   6.499 -0.7966 -2.6799 -0.6940
   19DOPE  H14Y 2438   5.770   4.206   6.607 -0.8043  1.5931 -2.7931
   19DOPE  C315 2439   5.657   4.076   6.464  0.5703 -0.0991  0.3334
   19DOPE  H15X 2440   5.558   4.072   6.514  0.5450  2.2027  0.6188
   19DOPE  H15Y 2441   5.662   3.977   6.416 -1.0429  0.0525 -0.2047
   19DOPE  C316 2442   5.647   4.188   6.351  0.4063 -0.2000 -0.1062
   19DOPE  H16X 2443   5.661   4.288   6.399  0.9926 -1.0067  1.4632
   19DOPE  H16Y 2444   5.541   4.178   6.319 -0.5709  2.7067  1.7444
   19DOPE  C317 2445   5.747   4.166   6.237  0.5676  0.0315 -0.3041
   19DOPE  H17X 2446   5.846   4.191   6.280 -0.3378  1.0444  1.2676
   19DOPE  H17Y 2447   5.737   4.060   6.205  0.4475  0.1585 -0.6934
   19DOPE  C318 2448   5.728   4.260   6.115 -0.4403  0.4259  0.4212
   19DOPE  H18X 2449   5.654   4.214   6.046  1.1509 -0.9007 -0.4729
   19DOPE  H18Y 2450   5.696   4.362   6.147  0.1783 -0.2603  3.5474
   19DOPE  H18Z 2451   5.826   4.261   6.062  0.1302  2.0910  1.4375
   20DOPE     N 2452   5.129   6.104   8.176 -0.2459 -0.3074  0.1043
   20DOPE   HN1 2453   5.172   6.198   8.178  0.8491 -0.8013  2.3360
   20DOPE   HN2 2454   5.198   6.031   8.202 -0.8850 -0.5573  1.1618
   20DOPE   HN3 2455   5.101   6.095   8.076 -2.7573 -1.8427  0.8569
   20DOPE   C12 2456   5.011   6.088   8.273 -0.4965 -0.2000  0.0077
   20DOPE  H12A 2457   4.969   5.988   8.248 -2.3699  1.0234 -2.0957
   20DOPE  H12B 2458   4.932   6.151   8.227 -1.6506  0.2449  2.4672
   20DOPE   C11 2459   5.031   6.110   8.418 -0.5849  0.5827 -0.1108
   20DOPE  H11A 2460   5.109   6.038   8.452 -0.1264  0.7606 -0.7559
   20DOPE  H11B 2461   4.940   6.093   8.479 -0.3922  0.0934  0.0462
   20DOPE     P 2462   5.016   6.354   8.493  0.0289 -0.0951 -0.3387
   20DOPE   O13 2463   5.102   6.422   8.595 -0.9621 -0.3557  0.0507
   20DOPE   O14 2464   4.881   6.308   8.531 -0.4899  0.3090  0.4280
   20DOPE   O11 2465   5.014   6.449   8.367 -0.1996  0.2197  0.3618
   20DOPE   O12 2466   5.098   6.231   8.438  0.0764  0.0796  0.1982
   20DOPE    C1 2467   4.944   6.574   8.376 -0.1147  0.6706 -0.3971
   20DOPE    HA 2468   4.990   6.646   8.446  0.3737  0.3253 -0.3596
   20DOPE    HB 2469   4.834   6.567   8.391 -0.1140  2.4596  0.7291
   20DOPE    C2 2470   4.965   6.656   8.251 -0.3897 -0.2623 -0.2649
   20DOPE    HS 2471   4.888   6.736   8.244 -0.0637  0.0424 -0.4136
   20DOPE   O21 2472   4.951   6.565   8.144 -0.2405  0.2644 -0.0054
   20DOPE   C21 2473   4.829   6.539   8.107 -0.4038  0.6966 -0.3555
   20DOPE   O22 2474   4.726   6.575   8.161  0.0990  0.3211 -0.2321
   20DOPE   C22 2475   4.837   6.450   7.988 -0.1529 -0.1954 -0.0332
   20DOPE   H2R 2476   4.786   6.360   8.029 -1.1357  1.2321  2.0230
   20DOPE   H2S 2477   4.945   6.430   7.969  0.9561  1.1463  3.9254
   20DOPE    C3 2478   5.106   6.714   8.244 -0.3823  0.2270  0.1315
   20DOPE    HX 2479   5.183   6.638   8.273  0.0964  0.0038 -1.6040
   20DOPE    HY 2480   5.119   6.798   8.315 -2.2140  1.0092 -0.4152
   20DOPE   O31 2481   5.132   6.766   8.120 -0.2178  0.0327  0.1432
   20DOPE   C31 2482   5.186   6.694   8.029  0.6449 -0.0157 -0.3226
   20DOPE   O32 2483   5.224   6.576   8.041 -0.1940  0.1705 -0.1254
   20DOPE   C32 2484   5.183   6.773   7.893  0.1415 -0.2190 -0.2914
   20DOPE   H2X 2485   5.090   6.834   7.891 -0.6801 -1.3349  1.0233
   20DOPE   H2Y 2486   5.277   6.831   7.889  0.0677  0.0124  0.8370
   20DOPE   C23 2487   4.767   6.501   7.865 -0.9100 -0.2799 -0.0411
   20DOPE   H3R 2488   4.794   6.607   7.848  0.6174 -0.1671  2.4868
   20DOPE   H3S 2489   4.658   6.485   7.879 -0.9573  0.2826  0.2634
   20DOPE   C24 2490   4.802   6.404   7.749 -0.1861 -0.2198  0.7656
   20DOPE   H4R 2491   4.757   6.309   7.783  1.3026 -1.3990 -0.4284
   20DOPE   H4S 2492   4.911   6.383   7.740 -0.4517 -1.0735 -1.0472
   20DOPE   C25 2493   4.734   6.451   7.623  0.5050 -0.1472  0.1928
   20DOPE   H5R 2494   4.765   6.555   7.597 -2.7866  1.2766  1.3514
   20DOPE   H5S 2495   4.624   6.445   7.639  0.6248 -0.4300  0.9642
   20DOPE   C26 2496   4.758   6.363   7.503 -0.4922  0.5534 -0.7498
   20DOPE   H6R 2497   4.752   6.253   7.515 -0.4588  0.7517  1.4488
   20DOPE   H6S 2498   4.857   6.391   7.460  2.1039 -1.6976  3.1934
   20DOPE   C27 2499   4.650   6.376   7.400 -0.5219 -0.2981  0.1624
   20DOPE   H7R 2500   4.641   6.486   7.381  0.6482 -0.4882 -1.7344
   20DOPE   H7S 2501   4.554   6.345   7.445 -1.3590  2.6026  0.6290
   20DOPE   C28 2502   4.669   6.284   7.282  0.4335 -0.0970  0.3832
   20DOPE   H8R 2503   4.685   6.181   7.321 -0.5308 -0.5010 -0.2416
   20DOPE   H8S 2504   4.762   6.307   7.226  0.2802  1.9525  0.8931
   20DOPE   C29 2505   4.551   6.284   7.187  0.4104 -0.2024 -0.5139
   20DOPE   H9R 2506   4.463   6.224   7.217  0.3976 -0.3915 -0.9272
   20DOPE  C210 2507   4.548   6.334   7.064  0.1248  0.0901 -0.1410
   20DOPE  H10R 2508   4.459   6.319   7.001 -0.5358  0.1739  0.7442
   20DOPE  C211 2509   4.654   6.418   6.995  0.6196 -0.0931  0.4104
   20DOPE  H11R 2510   4.741   6.427   7.064  0.4308  1.6806  0.4523
   20DOPE  H11S 2511   4.617   6.520   6.970  0.3066 -0.4020 -0.4270
   20DOPE  C212 2512   4.709   6.350   6.863  0.0938  0.1378  0.2706
   20DOPE  H12R 2513   4.740   6.249   6.897 -0.3787  0.3786  1.4788
   20DOPE  H12S 2514   4.801   6.402   6.828  0.1877  0.7850  1.3973
   20DOPE  C213 2515   4.608   6.342   6.745  0.3384 -0.4356 -0.9283
   20DOPE  H13R 2516   4.582   6.442   6.705 -0.8260  0.5524  2.0009
   20DOPE  H13S 2517   4.518   6.299   6.793 -0.0706  1.9466  0.5795
   20DOPE  C214 2518   4.644   6.245   6.636 -0.0085  0.0030  0.4123
   20DOPE  H14R 2519   4.643   6.139   6.672 -2.8411  0.6698  2.6915
   20DOPE  H14S 2520   4.751   6.262   6.611  0.1331 -0.6363  0.5628
   20DOPE  C215 2521   4.566   6.254   6.501  0.2334  0.0726 -0.5863
   20DOPE  H15R 2522   4.586   6.353   6.454 -2.0327  1.1822  0.6274
   20DOPE  H15S 2523   4.458   6.258   6.525  0.9295  0.6981  2.9142
   20DOPE  C216 2524   4.578   6.139   6.402  0.3301 -0.1699 -0.4506
   20DOPE  H16R 2525   4.683   6.123   6.368  0.1036 -1.9624 -0.3608
   20DOPE  H16S 2526   4.527   6.163   6.306 -2.1244  0.4465  0.9356
   20DOPE  C217 2527   4.514   6.004   6.447  0.6274 -0.3750 -0.5206
   20DOPE  H17R 2528   4.427   6.036   6.509  1.7379  0.9589  0.4047
   20DOPE  H17S 2529   4.576   5.939   6.512  0.9908  0.6034  0.1351
   20DOPE  C218 2530   4.462   5.931   6.323  0.1323  0.0196 -0.0266
   20DOPE  H18R 2531   4.435   5.827   6.351 -0.0653  0.1469  0.2636
   20DOPE  H18S 2532   4.538   5.936   6.242  0.9801 -1.6615  0.6133
   20DOPE  H18T 2533   4.374   5.979   6.276 -0.9439 -2.6438 -0.9023
   20DOPE   C33 2534   5.189   6.665   7.782  0.0278 -0.5652  0.9082
   20DOPE   H3X 2535   5.092   6.611   7.788 -1.5440  2.0221  0.4319
   20DOPE   H3Y 2536   5.279   6.608   7.813 -0.0952  0.0678  2.5305
   20DOPE   C34 2537   5.212   6.726   7.643  0.0727  0.1297  0.0282
   20DOPE   H4X 2538   5.180   6.831   7.631  0.9894  0.3021 -1.1909
   20DOPE   H4Y 2539   5.322   6.739   7.630 -0.2047  1.9001 -0.8739
   20DOPE   C35 2540   5.149   6.651   7.525  0.4548  0.1117  0.2443
   20DOPE   H5X 2541   5.041   6.670   7.511  0.6645  1.3982  0.2462
   20DOPE   H5Y 2542   5.159   6.541   7.539 -0.2987  0.1039  0.7670
   20DOPE   C36 2543   5.234   6.672   7.399 -0.1462  0.0556  0.5416
   20DOPE   H6X 2544   5.333   6.623   7.401  0.1684  0.4695 -1.6405
   20DOPE   H6Y 2545   5.254   6.781   7.391 -0.3781 -0.0224 -2.0785
   20DOPE   C37 2546   5.166   6.634   7.272  0.5946  0.2641  0.4081
   20DOPE   H7X 2547   5.159   6.523   7.264  0.6681  0.2369  0.6884
   20DOPE   H7Y 2548   5.064   6.676   7.272  0.2397 -0.5688 -0.0788
   20DOPE   C38 2549   5.246   6.676   7.142  0.1463  0.1541 -0.2939
   20DOPE   H8X 2550   5.267   6.783   7.162  0.7351  0.1888 -1.0524
   20DOPE   H8Y 2551   5.190   6.670   7.046  0.0705  2.5587 -0.4640
   20DOPE   C39 2552   5.383   6.615   7.125  0.2365 -0.5116  0.5560
   20DOPE   H9X 2553   5.424   6.582   7.221 -0.5756  1.5733  1.6873
   20DOPE  C310 2554   5.459   6.610   7.012 -0.1577  0.1220 -0.7573
   20DOPE  H10X 2555   5.550   6.549   7.021 -1.8751 -2.4753  0.1021
   20DOPE  C311 2556   5.427   6.667   6.878 -0.2337 -0.0763 -0.1904
   20DOPE  H11X 2557   5.322   6.697   6.860 -0.1176  0.8523  0.6557
   20DOPE  H11Y 2558   5.490   6.756   6.857 -0.6029 -0.0732 -1.3815
   20DOPE  C312 2559   5.452   6.555   6.773  0.4608 -0.4634  0.3898
   20DOPE  H12X 2560   5.431   6.593   6.671  2.7361 -3.3282 -1.3037
   20DOPE  H12Y 2561   5.389   6.465   6.783  1.6595 -1.7540 -2.5779
   20DOPE  C313 2562   5.603   6.510   6.773  0.8307 -0.4589 -0.3721
   20DOPE  H13X 2563   5.653   6.590   6.833 -0.7140 -0.2218  0.6730
   20DOPE  H13Y 2564   5.625   6.413   6.824 -1.4694 -1.7822 -1.7327
   20DOPE  C314 2565   5.653   6.514   6.625 -0.1268 -0.2107 -0.2213
   20DOPE  H14X 2566   5.655   6.616   6.582  2.5434  0.6432  1.6732
   20DOPE  H14Y 2567   5.585   6.460   6.556 -0.9765  0.6104 -0.0502
   20DOPE  C315 2568   5.797   6.461   6.611 -0.3707  0.5921 -0.6633
   20DOPE  H15X 2569   5.800   6.355   6.644  0.0706  0.8025 -0.0043
   20DOPE  H15Y 2570   5.869   6.510   6.680 -0.6324  1.0805 -0.7287
   20DOPE  C316 2571   5.853   6.485   6.472  0.3035 -0.2519  0.0280
   20DOPE  H16X 2572   5.831   6.588   6.437 -2.7911  0.0961  2.5658
   20DOPE  H16Y 2573   5.799   6.417   6.403 -0.0461 -0.6157  0.6524
   20DOPE  C317 2574   6.001   6.443   6.458  0.3002 -0.8738  0.3802
   20DOPE  H17X 2575   6.017   6.340   6.498 -0.8944 -1.4840 -0.6418
   20DOPE  H17Y 2576   6.027   6.442   6.350  2.4131 -1.9042  0.8420
   20DOPE  C318 2577   6.109   6.535   6.529 -0.1710  0.5467 -0.4238
   20DOPE  H18X 2578   6.086   6.558   6.635  0.1831 -0.2857 -0.1564
   20DOPE  H18Y 2579   6.209   6.487   6.528 -0.4749 -0.1023  0.1609
   20DOPE  H18Z 2580   6.123   6.632   6.476  1.7598  0.6221  0.1405
   21DOPE     N 2581   3.323   6.551   8.451  0.3985  0.9179  0.0432
   21DOPE   HN1 2582   3.329   6.617   8.531  0.6353 -0.6820  1.3791
   21DOPE   HN2 2583   3.246   6.484   8.470  1.7894 -1.3178 -1.6514
   21DOPE   HN3 2584   3.411   6.496   8.445 -0.0412  0.0557  1.1210
   21DOPE   C12 2585   3.276   6.629   8.326 -0.1764 -0.2493 -0.6817
   21DOPE  H12A 2586   3.282   6.567   8.234 -0.5297  0.5362 -1.2420
   21DOPE  H12B 2587   3.354   6.707   8.314  0.3041  0.4342  4.6970
   21DOPE   C11 2588   3.140   6.701   8.344 -0.0270 -0.5632  0.3711
   21DOPE  H11A 2589   3.145   6.771   8.258  1.6960 -2.2092 -0.9522
   21DOPE  H11B 2590   3.142   6.766   8.435 -1.4561 -0.1320  0.1270
   21DOPE     P 2591   2.962   6.548   8.452 -0.2821 -0.0547  0.1592
   21DOPE   O13 2592   2.912   6.666   8.522  0.0596  0.2700  0.1042
   21DOPE   O14 2593   3.066   6.458   8.516  0.6822  0.5408  0.1480
   21DOPE   O11 2594   2.852   6.467   8.394 -0.5737 -0.2163  0.6860
   21DOPE   O12 2595   3.035   6.606   8.325  0.1165  0.2748 -0.2924
   21DOPE    C1 2596   2.874   6.354   8.310 -0.1400  0.5155 -0.0228
   21DOPE    HA 2597   2.806   6.278   8.354  0.4972  1.0694  2.0231
   21DOPE    HB 2598   2.981   6.324   8.302  0.1032  1.6439 -1.5096
   21DOPE    C2 2599   2.824   6.368   8.160  1.3855  0.4229 -0.0164
   21DOPE    HS 2600   2.826   6.262   8.126  1.1968 -0.5138  2.6780
   21DOPE   O21 2601   2.902   6.444   8.067  0.5971  0.1741  0.2136
   21DOPE   C21 2602   3.021   6.407   8.050  0.2402  0.3235 -0.2245
   21DOPE   O22 2603   3.078   6.305   8.084  0.3678 -0.0794 -0.4900
   21DOPE   C22 2604   3.094   6.520   7.976 -0.1897  0.1386 -0.3408
   21DOPE   H2R 2605   3.194   6.513   8.025 -0.9570 -1.5318  1.0863
   21DOPE   H2S 2606   3.052   6.622   7.987 -0.4474 -0.0457  0.4352
   21DOPE    C3 2607   2.677   6.413   8.159  0.6762 -0.1061  0.6271
   21DOPE    HX 2608   2.682   6.507   8.219 -3.5623  1.5548 -1.2323
   21DOPE    HY 2609   2.622   6.341   8.222  0.0202  0.2095  0.4260
   21DOPE   O31 2610   2.617   6.413   8.032  0.1332  0.1592  0.4660
   21DOPE   C31 2611   2.630   6.532   7.961 -0.3534 -0.2058  0.0585
   21DOPE   O32 2612   2.690   6.628   8.001 -0.2957 -0.1550 -0.3967
   21DOPE   C32 2613   2.557   6.532   7.826  0.1217  0.4275 -0.8624
   21DOPE   H2X 2614   2.569   6.424   7.804  0.3100  0.0135  1.0823
   21DOPE   H2Y 2615   2.450   6.561   7.840 -0.1240 -0.9084  0.3014
   21DOPE   C23 2616   3.105   6.486   7.826 -0.5901 -0.6630  0.6507
   21DOPE   H3R 2617   3.152   6.386   7.817  1.2966  0.1900  0.5952
   21DOPE   H3S 2618   3.167   6.565   7.777 -0.6616 -1.4833 -0.8051
   21DOPE   C24 2619   2.966   6.493   7.756 -0.5132 -0.0314 -0.4738
   21DOPE   H4R 2620   2.917   6.591   7.772  1.1086  1.4560 -3.6463
   21DOPE   H4S 2621   2.903   6.419   7.810 -1.5473  0.9178 -0.3407
   21DOPE   C25 2622   2.956   6.480   7.598  1.1747 -0.3503 -0.5492
   21DOPE   H5R 2623   3.001   6.568   7.548  0.2543  1.2718  1.3482
   21DOPE   H5S 2624   2.849   6.463   7.573  1.4960 -2.1562 -0.8906
   21DOPE   C26 2625   3.031   6.356   7.541  0.7825  0.0812 -0.0102
   21DOPE   H6R 2626   3.138   6.381   7.527  0.4511  1.2455 -0.5689
   21DOPE   H6S 2627   2.993   6.347   7.438 -1.0062  2.9630  0.2881
   21DOPE   C27 2628   3.012   6.231   7.616 -0.0237  0.7157  0.0840
   21DOPE   H7R 2629   2.910   6.215   7.657  0.6440  1.5542  2.2469
   21DOPE   H7S 2630   3.063   6.220   7.715 -0.6312  0.2305  0.3485
   21DOPE   C28 2631   3.048   6.108   7.530  0.7417  0.1994 -0.4504
   21DOPE   H8R 2632   3.062   6.024   7.601 -0.1987 -0.8635 -1.4838
   21DOPE   H8S 2633   3.147   6.132   7.485  0.3199  4.0585  0.2959
   21DOPE   C29 2634   2.945   6.092   7.414 -0.6102  0.9965 -0.6536
   21DOPE   H9R 2635   2.850   6.148   7.425 -1.1473  0.6649 -3.0462
   21DOPE  C210 2636   2.970   6.040   7.292 -0.3419 -0.5113  0.5772
   21DOPE  H10R 2637   2.886   6.039   7.221  1.1884 -1.4982 -1.3325
   21DOPE  C211 2638   3.095   5.972   7.235  0.2565  0.1349 -0.0946
   21DOPE  H11R 2639   3.059   5.874   7.196  0.3240 -0.0350  0.2572
   21DOPE  H11S 2640   3.175   5.952   7.310 -0.8173  0.5547  1.1916
   21DOPE  C212 2641   3.163   6.061   7.127 -0.7281 -0.0739 -0.3694
   21DOPE  H12R 2642   3.250   5.994   7.111  0.6222  0.8419  2.5333
   21DOPE  H12S 2643   3.204   6.152   7.175 -2.1933  0.5884 -0.3195
   21DOPE  C213 2644   3.078   6.087   7.006 -0.9943 -0.3805 -0.3313
   21DOPE  H13R 2645   3.034   6.188   6.992 -0.9476 -0.4308 -0.8591
   21DOPE  H13S 2646   2.995   6.013   7.001 -3.1621  1.9395 -0.4012
   21DOPE  C214 2647   3.145   6.044   6.872 -0.0880  0.5630 -0.3155
   21DOPE  H14R 2648   3.179   5.939   6.863 -0.5770  0.4974 -1.7010
   21DOPE  H14S 2649   3.240   6.098   6.850  0.2532  1.0320  2.0677
   21DOPE  C215 2650   3.049   6.078   6.753 -0.0606  0.4852 -1.0112
   21DOPE  H15R 2651   3.010   6.181   6.766 -1.1693  0.3032 -2.6629
   21DOPE  H15S 2652   2.960   6.015   6.776 -2.1441  3.9778  1.5201
   21DOPE  C216 2653   3.103   6.046   6.608 -0.0466  0.3190 -0.5828
   21DOPE  H16R 2654   3.135   5.940   6.612  2.6330  1.0548 -0.7252
   21DOPE  H16S 2655   3.194   6.104   6.581  0.6842 -0.4192  0.2150
   21DOPE  C217 2656   3.004   6.055   6.496  0.7659  0.1515 -0.3053
   21DOPE  H17R 2657   2.974   6.162   6.499 -1.6178 -0.4554  0.0483
   21DOPE  H17S 2658   2.920   5.983   6.509  1.8095 -0.9262  0.6861
   21DOPE  C218 2659   3.071   6.018   6.361 -0.0628 -0.0049  0.2986
   21DOPE  H18R 2660   3.165   6.074   6.346  0.3143 -0.5361  0.6626
   21DOPE  H18S 2661   2.995   6.023   6.280 -1.9413 -2.0186  1.8112
   21DOPE  H18T 2662   3.092   5.909   6.354  0.7832  0.2417 -1.5368
   21DOPE   C33 2663   2.609   6.628   7.717  0.0784  0.2981 -0.3387
   21DOPE   H3X 2664   2.716   6.623   7.687 -0.3431  1.0788 -2.0961
   21DOPE   H3Y 2665   2.583   6.735   7.732  0.7393  0.3156  0.8079
   21DOPE   C34 2666   2.551   6.584   7.580  0.2533  0.3174  0.5950
   21DOPE   H4X 2667   2.602   6.486   7.574  0.9402  0.5629  2.0340
   21DOPE   H4Y 2668   2.444   6.565   7.600  0.2880  0.1909  0.6657
   21DOPE   C35 2669   2.583   6.686   7.465  0.0811 -0.6885 -0.1958
   21DOPE   H5X 2670   2.686   6.726   7.450 -0.7261  2.2060  1.3179
   21DOPE   H5Y 2671   2.525   6.777   7.488 -0.2267 -0.3317 -2.1996
   21DOPE   C36 2672   2.522   6.638   7.323  0.3712 -0.1800  0.6934
   21DOPE   H6X 2673   2.413   6.630   7.344  0.0771  0.7431 -0.3800
   21DOPE   H6Y 2674   2.558   6.535   7.304 -0.5837 -0.9607  2.7721
   21DOPE   C37 2675   2.562   6.733   7.210  0.5800  0.4302 -0.2073
   21DOPE   H7X 2676   2.672   6.750   7.209  0.4736  2.3537  3.5917
   21DOPE   H7Y 2677   2.551   6.678   7.114  1.5053 -0.3155  0.1013
   21DOPE   C38 2678   2.485   6.868   7.213  0.3760 -0.3259  1.2242
   21DOPE   H8X 2679   2.501   6.917   7.311 -4.0121  2.5078  0.8175
   21DOPE   H8Y 2680   2.376   6.859   7.193  0.7147  0.6315 -1.5413
   21DOPE   C39 2681   2.544   6.955   7.102 -0.1632 -0.0067 -0.4835
   21DOPE   H9X 2682   2.636   7.003   7.141  0.0432  1.2517 -2.4036
   21DOPE  C310 2683   2.494   6.992   6.982 -0.7798 -0.4632 -0.1688
   21DOPE  H10X 2684   2.559   7.047   6.912  0.9809  0.0661  1.7850
   21DOPE  C311 2685   2.364   6.942   6.920 -0.3900 -0.0067  0.1565
   21DOPE  H11X 2686   2.320   6.859   6.980 -0.0691 -0.9871 -0.9165
   21DOPE  H11Y 2687   2.298   7.031   6.931  1.5564  1.3238  2.0619
   21DOPE  C312 2688   2.348   6.918   6.770 -0.0035 -0.0383  0.2990
   21DOPE  H12X 2689   2.247   6.888   6.735  0.0654 -0.5060  0.4974
   21DOPE  H12Y 2690   2.419   6.841   6.733 -1.2568 -1.5341  0.9179
   21DOPE  C313 2691   2.380   7.048   6.692 -0.1008  0.3214  0.0579
   21DOPE  H13X 2692   2.322   7.137   6.724 -0.3459 -0.5375  2.1406
   21DOPE  H13Y 2693   2.485   7.078   6.713  0.2598  0.0621 -1.3189
   21DOPE  C314 2694   2.372   7.023   6.547  0.5160 -0.2383  0.1203
   21DOPE  H14X 2695   2.370   7.110   6.479  0.0881 -2.2023 -2.5476
   21DOPE  H14Y 2696   2.278   6.974   6.515  0.0895  0.6900 -0.0579
   21DOPE  C315 2697   2.475   6.926   6.494 -0.3307 -0.0617 -1.2005
   21DOPE  H15X 2698   2.448   6.820   6.514 -0.4993  0.3223  0.9106
   21DOPE  H15Y 2699   2.568   6.957   6.547 -1.2967  0.8632  0.0393
   21DOPE  C316 2700   2.507   6.928   6.339  0.3596  0.8580 -0.3705
   21DOPE  H16X 2701   2.422   6.888   6.279 -0.6379  1.4608  0.5948
   21DOPE  H16Y 2702   2.578   6.843   6.327 -0.8587 -0.4030  0.9134
   21DOPE  C317 2703   2.573   7.049   6.287 -0.7451 -0.5648  0.2348
   21DOPE  H17X 2704   2.516   7.144   6.296 -0.6331 -0.3258 -1.4108
   21DOPE  H17Y 2705   2.664   7.057   6.350  0.2297  1.9888 -1.3599
   21DOPE  C318 2706   2.628   7.049   6.145  0.7942  0.0462  0.4804
   21DOPE  H18X 2707   2.556   6.998   6.078 -0.1497  2.4994 -0.5152
   21DOPE  H18Y 2708   2.640   7.153   6.108  1.6898 -0.6968 -1.4369
   21DOPE  H18Z 2709   2.728   7.001   6.143  0.2836 -1.0017 -0.9853
   22DOPE     N 2710   6.682   4.403   8.643 -0.2196 -0.2160 -0.2558
   22DOPE   HN1 2711   6.753   4.408   8.567  1.0987  1.2323  0.9899
   22DOPE   HN2 2712   6.641   4.308   8.636  1.0832 -0.8415  0.1473
   22DOPE   HN3 2713   6.611   4.478   8.631 -0.0622 -0.4413 -3.7892
   22DOPE   C12 2714   6.759   4.440   8.771  0.4201  1.2192 -0.4806
   22DOPE  H12A 2715   6.796   4.345   8.815 -0.7543  0.6560 -0.6831
   22DOPE  H12B 2716   6.693   4.487   8.848  0.5430 -0.8480  0.9540
   22DOPE   C11 2717   6.867   4.543   8.739  0.6404  0.5243  0.1282
   22DOPE  H11A 2718   6.899   4.573   8.841 -1.7224 -1.5338  1.5996
   22DOPE  H11B 2719   6.814   4.629   8.694 -0.6251 -0.8770 -1.1923
   22DOPE     P 2720   7.090   4.580   8.620 -0.3176 -0.0950 -0.0609
   22DOPE   O13 2721   7.174   4.513   8.514  0.3332 -0.0526 -0.2528
   22DOPE   O14 2722   7.161   4.611   8.745  0.1297 -0.6185  0.0817
   22DOPE   O11 2723   7.019   4.703   8.561  0.2338  0.5723  0.3534
   22DOPE   O12 2724   6.967   4.489   8.656 -0.4393 -0.1768  0.2834
   22DOPE    C1 2725   6.929   4.681   8.447  0.0202 -0.2794 -0.3392
   22DOPE    HA 2726   6.870   4.775   8.441 -1.4916 -1.2425 -1.0383
   22DOPE    HB 2727   6.859   4.595   8.458 -1.0509  0.7677  1.7121
   22DOPE    C2 2728   6.998   4.674   8.307  0.0842 -0.4030 -0.3670
   22DOPE    HS 2729   7.058   4.580   8.303  0.4380 -0.3013  1.5358
   22DOPE   O21 2730   7.087   4.789   8.292  0.3151 -0.0725  0.0882
   22DOPE   C21 2731   7.210   4.765   8.242  0.4481  0.5378  0.0142
   22DOPE   O22 2732   7.252   4.653   8.208  0.0878 -0.3805  0.1842
   22DOPE   C22 2733   7.282   4.905   8.244 -0.8043 -0.3915 -0.3334
   22DOPE   H2R 2734   7.391   4.881   8.242 -1.1935 -2.2644 -2.3130
   22DOPE   H2S 2735   7.265   4.953   8.343  0.6319  0.0069 -0.2496
   22DOPE    C3 2736   6.886   4.680   8.198  0.5576  0.4312 -0.7696
   22DOPE    HX 2737   6.824   4.768   8.225  0.5225  0.5160 -1.1232
   22DOPE    HY 2738   6.826   4.586   8.204  1.0288 -0.0773 -3.0741
   22DOPE   O31 2739   6.945   4.697   8.066  0.3108 -0.4116 -0.4404
   22DOPE   C31 2740   6.961   4.584   7.997  0.1374  0.5941  0.0210
   22DOPE   O32 2741   6.935   4.471   8.041  0.1187 -0.3079 -0.4824
   22DOPE   C32 2742   7.020   4.609   7.860 -0.2597  0.1111  0.7553
   22DOPE   H2X 2743   6.977   4.551   7.776  1.9778  0.3832 -0.6418
   22DOPE   H2Y 2744   7.000   4.714   7.829  1.0539  0.1248 -0.0967
   22DOPE   C23 2745   7.228   5.001   8.128  0.2447 -0.0506  1.0014
   22DOPE   H3R 2746   7.270   5.102   8.145  0.2406  0.5232 -1.9378
   22DOPE   H3S 2747   7.118   5.007   8.142  0.0278 -0.8829 -0.1924
   22DOPE   C24 2748   7.269   4.949   7.988 -1.3521 -0.1243  0.5870
   22DOPE   H4R 2749   7.196   4.867   7.970 -0.5786 -0.7049  0.0462
   22DOPE   H4S 2750   7.377   4.926   7.996 -1.3773  0.2455  2.6242
   22DOPE   C25 2751   7.242   5.056   7.878  0.3387  0.2363 -0.5015
   22DOPE   H5R 2752   7.309   5.143   7.894  1.2203 -0.8369  2.2070
   22DOPE   H5S 2753   7.140   5.101   7.881  0.9265  1.7638 -1.9631
   22DOPE   C26 2754   7.273   5.000   7.743 -0.2375  0.2765  0.0610
   22DOPE   H6R 2755   7.201   4.928   7.701 -0.4313  1.3722 -1.6020
   22DOPE   H6S 2756   7.378   4.963   7.744 -0.4899 -0.4571 -0.1779
   22DOPE   C27 2757   7.282   5.110   7.630  0.3168  0.2909 -0.3668
   22DOPE   H7R 2758   7.320   5.056   7.541  0.3285 -4.4923  2.1618
   22DOPE   H7S 2759   7.361   5.182   7.660  0.7799 -0.2514 -0.2686
   22DOPE   C28 2760   7.150   5.180   7.596 -0.1638  0.1300 -0.3525
   22DOPE   H8R 2761   7.108   5.234   7.683 -0.0976  1.2679 -1.0101
   22DOPE   H8S 2762   7.064   5.114   7.573  0.6545 -2.0726  2.3237
   22DOPE   C29 2763   7.165   5.283   7.485  0.5796 -0.2931 -0.3728
   22DOPE   H9R 2764   7.221   5.371   7.518 -2.6935  1.1016  2.0094
   22DOPE  C210 2765   7.144   5.265   7.345  0.1156 -0.4563  0.5924
   22DOPE  H10R 2766   7.159   5.351   7.278  1.8182  0.0227  1.5154
   22DOPE  C211 2767   7.094   5.145   7.267 -0.2500 -0.5575 -0.2370
   22DOPE  H11R 2768   7.012   5.182   7.202  0.2480 -1.6286 -1.5206
   22DOPE  H11S 2769   7.046   5.061   7.321  2.0723 -1.6136  0.3150
   22DOPE  C212 2770   7.205   5.084   7.178 -0.1238 -0.5403 -0.1367
   22DOPE  H12R 2771   7.158   4.987   7.150 -1.1758 -0.8213  2.3251
   22DOPE  H12S 2772   7.303   5.062   7.226 -1.1484 -1.3346  1.6963
   22DOPE  C213 2773   7.225   5.160   7.039  0.5734  0.2145  0.0518
   22DOPE  H13R 2774   7.325   5.127   7.001  1.3024 -0.3830  2.3371
   22DOPE  H13S 2775   7.225   5.270   7.053 -1.5430  0.5540 -2.0851
   22DOPE  C214 2776   7.115   5.140   6.933 -0.8117  0.2668 -0.4096
   22DOPE  H14R 2777   7.015   5.171   6.970 -1.0111  1.6052 -1.9750
   22DOPE  H14S 2778   7.121   5.034   6.900  0.6627 -0.1042  0.9274
   22DOPE  C215 2779   7.153   5.221   6.807 -0.1927  0.3450 -0.9172
   22DOPE  H15R 2780   7.262   5.208   6.791 -0.4453 -2.2129 -0.9801
   22DOPE  H15S 2781   7.132   5.329   6.819 -0.1627  0.0939  1.9020
   22DOPE  C216 2782   7.080   5.170   6.679  0.1763  0.1585  0.1884
   22DOPE  H16R 2783   6.975   5.195   6.703  0.6019  0.3460  2.0272
   22DOPE  H16S 2784   7.095   5.061   6.663 -1.5128  0.2814 -3.1874
   22DOPE  C217 2785   7.130   5.244   6.558 -0.1560 -0.1649 -0.1194
   22DOPE  H17R 2786   7.121   5.352   6.582 -0.5718 -0.0102 -0.9653
   22DOPE  H17S 2787   7.059   5.215   6.478 -0.1513  0.9319 -0.5354
   22DOPE  C218 2788   7.274   5.201   6.515  0.1437 -0.8535  0.1070
   22DOPE  H18R 2789   7.342   5.174   6.599 -0.2511 -0.9657  0.3992
   22DOPE  H18S 2790   7.322   5.273   6.447 -1.5559  0.7911  0.5650
   22DOPE  H18T 2791   7.270   5.106   6.458 -1.2378  0.4690 -2.1609
   22DOPE   C33 2792   7.172   4.605   7.874 -0.1562 -0.1548  0.5125
   22DOPE   H3X 2793   7.210   4.644   7.971 -0.5007 -1.6609  1.2738
   22DOPE   H3Y 2794   7.214   4.673   7.797  0.6169 -0.5715  0.5540
   22DOPE   C34 2795   7.232   4.471   7.849  0.1269 -0.3194  0.4114
   22DOPE   H4X 2796   7.341   4.482   7.869  0.3047 -0.0443 -0.6768
   22DOPE   H4Y 2797   7.187   4.395   7.917 -0.7009 -0.0133  0.2212
   22DOPE   C35 2798   7.206   4.425   7.708  0.1961 -0.3873  0.6726
   22DOPE   H5X 2799   7.102   4.448   7.679  0.0345 -0.4358  1.1996
   22DOPE   H5Y 2800   7.208   4.314   7.698 -0.9195 -0.4112  0.6245
   22DOPE   C36 2801   7.321   4.466   7.608  0.5736 -0.9371  0.3477
   22DOPE   H6X 2802   7.411   4.417   7.651  1.4594  0.7257  0.4717
   22DOPE   H6Y 2803   7.341   4.575   7.614 -1.4061 -0.6077  2.0580
   22DOPE   C37 2804   7.298   4.412   7.468 -0.4228  0.3764 -0.0296
   22DOPE   H7X 2805   7.301   4.301   7.482 -0.4293  0.1423 -1.7353
   22DOPE   H7Y 2806   7.193   4.439   7.444 -0.4520 -0.0785 -0.4202
   22DOPE   C38 2807   7.404   4.465   7.360  0.4563 -0.8085  0.5779
   22DOPE   H8X 2808   7.507   4.458   7.401 -0.2920 -2.4608  2.3526
   22DOPE   H8Y 2809   7.385   4.574   7.360  1.8895 -0.5299  0.9851
   22DOPE   C39 2810   7.389   4.396   7.235  0.5160 -0.3221 -0.0516
   22DOPE   H9X 2811   7.381   4.287   7.250 -0.6427 -0.6489 -2.4447
   22DOPE  C310 2812   7.397   4.449   7.112  0.2409 -0.0735  0.0470
   22DOPE  H10X 2813   7.384   4.379   7.028  0.2494  1.0820 -0.9333
   22DOPE  C311 2814   7.414   4.594   7.072 -0.5317 -0.4170 -0.1941
   22DOPE  H11X 2815   7.316   4.635   7.039 -0.2069 -1.2018 -2.2566
   22DOPE  H11Y 2816   7.446   4.658   7.158 -1.3316 -0.5198  0.1863
   22DOPE  C312 2817   7.508   4.613   6.950  0.1080 -0.2373 -0.4103
   22DOPE  H12X 2818   7.486   4.534   6.875  0.0678  0.1279 -0.7860
   22DOPE  H12Y 2819   7.611   4.584   6.981 -0.5121 -1.4463  0.6118
   22DOPE  C313 2820   7.503   4.756   6.891  0.0547 -0.8378 -0.1867
   22DOPE  H13X 2821   7.401   4.797   6.879 -0.2601 -1.5172  0.1123
   22DOPE  H13Y 2822   7.561   4.835   6.943  1.4010  0.1338 -2.9050
   22DOPE  C314 2823   7.573   4.748   6.750  0.2156  0.2676  0.3644
   22DOPE  H14X 2824   7.647   4.665   6.755 -1.8118 -1.5439  2.9392
   22DOPE  H14Y 2825   7.639   4.833   6.722  2.1257 -1.6764 -1.4657
   22DOPE  C315 2826   7.469   4.702   6.641  0.1371  0.5231 -0.4193
   22DOPE  H15X 2827   7.374   4.760   6.642 -1.6982 -2.3036  0.2347
   22DOPE  H15Y 2828   7.426   4.603   6.664  1.8488 -0.1746 -0.0377
   22DOPE  C316 2829   7.539   4.687   6.506  0.4258  0.4087  0.6671
   22DOPE  H16X 2830   7.603   4.597   6.513  0.5247  0.6202  4.5556
   22DOPE  H16Y 2831   7.602   4.776   6.484  1.0083 -1.0405 -5.0172
   22DOPE  C317 2832   7.452   4.670   6.378  0.4368 -0.2055  0.1204
   22DOPE  H17X 2833   7.522   4.654   6.293 -0.6299 -0.9646 -0.6521
   22DOPE  H17Y 2834   7.408   4.571   6.399  1.3955 -0.4789  0.8693
   22DOPE  C318 2835   7.354   4.785   6.346  0.2303 -0.3359 -0.0033
   22DOPE  H18X 2836   7.269   4.761   6.277 -0.5344  2.8016 -0.2803
   22DOPE  H18Y 2837   7.319   4.839   6.436  1.4533 -2.0041  1.5533
   22DOPE  H18Z 2838   7.416   4.852   6.284  0.9170 -1.8652 -1.0450
   23DOPE     N 2839   3.577   0.931   8.501  1.0197  0.3218 -0.2663
   23DOPE   HN1 2840   3.474   0.949   8.510  0.5455 -2.3808  0.7162
   23DOPE   HN2 2841   3.591   0.886   8.409 -1.0984  4.8380 -3.1520
   23DOPE   HN3 2842   3.613   0.867   8.575  1.0597 -1.8603 -2.1006
   23DOPE   C12 2843   3.663   1.050   8.527  0.2323  0.3851 -0.0016
   23DOPE  H12A 2844   3.640   1.087   8.630  0.0777  1.2793 -0.3500
   23DOPE  H12B 2845   3.632   1.128   8.455  1.2870  0.6707 -0.1605
   23DOPE   C11 2846   3.811   1.016   8.491  0.0043  1.1863 -0.1016
   23DOPE  H11A 2847   3.864   1.113   8.484 -0.2928  1.3215 -0.4965
   23DOPE  H11B 2848   3.799   0.979   8.387  0.9409 -0.2660  0.2770
   23DOPE     P 2849   4.020   0.925   8.597  0.3482  0.4298 -0.1101
   23DOPE   O13 2850   4.071   0.795   8.653  0.1557 -0.6278 -0.1937
   23DOPE   O14 2851   4.041   1.051   8.671 -0.1707 -0.3897  0.3588
   23DOPE   O11 2852   4.090   0.940   8.449 -0.3547 -0.4166  0.1590
   23DOPE   O12 2853   3.869   0.907   8.565  0.4536 -0.5323 -0.3811
   23DOPE    C1 2854   4.040   0.856   8.341 -0.2210 -0.0448 -0.5918
   23DOPE    HA 2855   3.936   0.818   8.351 -0.6292  1.4208  1.2088
   23DOPE    HB 2856   4.104   0.765   8.347 -0.5146 -0.2394 -0.3473
   23DOPE    C2 2857   4.060   0.925   8.203  0.2200 -0.5876 -0.6246
   23DOPE    HS 2858   3.966   0.979   8.179  1.4881  1.1097 -2.0867
   23DOPE   O21 2859   4.087   0.829   8.104  0.1418 -0.1066  0.0756
   23DOPE   C21 2860   3.987   0.756   8.059  0.0093 -0.1803 -0.3379
   23DOPE   O22 2861   3.874   0.762   8.105  0.1089  0.4286 -0.4071
   23DOPE   C22 2862   4.039   0.680   7.931  0.0397  0.4261  0.3088
   23DOPE   H2R 2863   4.134   0.624   7.943 -0.8957 -1.5035 -0.9863
   23DOPE   H2S 2864   4.068   0.761   7.860  1.7455 -1.1287 -0.8610
   23DOPE    C3 2865   4.174   1.027   8.193 -0.0296 -0.1686 -0.0401
   23DOPE    HX 2866   4.264   0.979   8.237  0.0727 -0.2470 -0.3319
   23DOPE    HY 2867   4.156   1.117   8.256  1.2720  0.5496 -0.6451
   23DOPE   O31 2868   4.200   1.082   8.055 -0.2916 -0.2575  0.1737
   23DOPE   C31 2869   4.297   1.023   7.986  0.9842  0.1213 -0.3012
   23DOPE   O32 2870   4.360   0.926   8.016  0.2899  0.4928 -0.0459
   23DOPE   C32 2871   4.325   1.101   7.853 -0.1980 -0.0543  0.2953
   23DOPE   H2X 2872   4.276   1.200   7.852  0.3122  0.2357 -1.8323
   23DOPE   H2Y 2873   4.436   1.107   7.851  0.0796 -3.4353 -1.2151
   23DOPE   C23 2874   3.933   0.587   7.878 -0.0634 -0.1412 -0.1201
   23DOPE   H3R 2875   3.836   0.640   7.869  1.1334  2.1612 -0.0945
   23DOPE   H3S 2876   3.921   0.493   7.936 -1.7159 -1.6654 -2.7124
   23DOPE   C24 2877   3.954   0.539   7.735 -0.8872  0.3480 -0.3065
   23DOPE   H4R 2878   3.866   0.482   7.698 -0.8594  2.2822 -3.8675
   23DOPE   H4S 2879   4.044   0.474   7.738 -0.0710  1.5020  0.3731
   23DOPE   C25 2880   3.972   0.655   7.629  0.4693  0.1285 -0.4373
   23DOPE   H5R 2881   4.074   0.697   7.634  1.1560 -1.4507 -0.5452
   23DOPE   H5S 2882   3.889   0.728   7.644  0.0554 -0.2064 -1.0334
   23DOPE   C26 2883   3.959   0.599   7.486 -0.2727  0.3722 -0.0427
   23DOPE   H6R 2884   3.856   0.563   7.465 -0.5267  1.5534 -0.9040
   23DOPE   H6S 2885   4.033   0.520   7.461 -0.1561  1.0161 -1.8780
   23DOPE   C27 2886   3.975   0.709   7.382  0.0371 -0.0981  0.2375
   23DOPE   H7R 2887   4.056   0.782   7.406  0.4783 -0.7619  0.8061
   23DOPE   H7S 2888   3.890   0.780   7.387  2.3244  2.7845  3.1847
   23DOPE   C28 2889   4.000   0.652   7.239  0.2344  0.3966 -0.8114
   23DOPE   H8R 2890   3.917   0.583   7.213  0.0284  1.0214 -1.8561
   23DOPE   H8S 2891   4.094   0.595   7.255  0.4019  0.9456  0.2161
   23DOPE   C29 2892   4.005   0.746   7.128 -0.3265 -0.1007  0.3158
   23DOPE   H9R 2893   3.971   0.849   7.149 -0.2147 -0.0576  0.2902
   23DOPE  C210 2894   4.050   0.714   7.004  0.1847 -0.5311 -0.6910
   23DOPE  H10R 2895   4.048   0.790   6.925  0.6810 -1.8438 -2.0090
   23DOPE  C211 2896   4.120   0.585   6.967 -0.3026 -0.3058  0.3963
   23DOPE  H11R 2897   4.133   0.511   7.049  2.2343 -1.1445 -0.6527
   23DOPE  H11S 2898   4.224   0.619   6.944 -0.3852  1.1619  1.9557
   23DOPE  C212 2899   4.066   0.507   6.847 -1.0132  0.5504 -0.6644
   23DOPE  H12R 2900   3.960   0.537   6.831 -1.1796  0.5863  0.4646
   23DOPE  H12S 2901   4.067   0.396   6.850  0.3916  0.5159 -1.5829
   23DOPE  C213 2902   4.132   0.549   6.712  0.6328 -0.8624 -0.6823
   23DOPE  H13R 2903   4.243   0.555   6.720  0.5273 -0.6848  1.1185
   23DOPE  H13S 2904   4.094   0.652   6.693  1.1889 -0.6690 -0.7679
   23DOPE  C214 2905   4.094   0.456   6.594 -0.3975 -0.7601  0.5459
   23DOPE  H14R 2906   3.987   0.428   6.603 -0.1054 -1.5646  1.6784
   23DOPE  H14S 2907   4.154   0.362   6.596 -1.7387 -1.6313  1.9880
   23DOPE  C215 2908   4.119   0.529   6.456 -0.4257 -0.3959  0.2223
   23DOPE  H15R 2909   4.060   0.622   6.448 -1.9024 -1.4035 -1.4478
   23DOPE  H15S 2910   4.093   0.453   6.379  1.2323  0.9299 -1.7533
   23DOPE  C216 2911   4.266   0.568   6.423 -0.4307  0.1177 -0.1071
   23DOPE  H16R 2912   4.325   0.474   6.422  0.5741  0.6960  1.4666
   23DOPE  H16S 2913   4.304   0.628   6.508 -0.4486 -0.7111  0.4984
   23DOPE  C217 2914   4.280   0.639   6.288 -0.5730  0.2496  0.0983
   23DOPE  H17R 2915   4.287   0.748   6.310  1.9055 -0.0059  1.0206
   23DOPE  H17S 2916   4.200   0.620   6.214  1.7936  0.0711 -2.6007
   23DOPE  C218 2917   4.409   0.596   6.215  0.6475  0.0423  0.3141
   23DOPE  H18R 2918   4.405   0.485   6.204  0.9605  0.0864 -0.2772
   23DOPE  H18S 2919   4.494   0.630   6.278 -1.2846  0.3118  2.9721
   23DOPE  H18T 2920   4.405   0.635   6.111  0.5304  0.5293  0.4983
   23DOPE   C33 2921   4.276   1.031   7.720 -0.5057 -0.1838 -0.9305
   23DOPE   H3X 2922   4.166   1.035   7.713 -0.4045  1.9660 -2.0490
   23DOPE   H3Y 2923   4.318   0.927   7.723 -1.3048 -0.4844  0.6328
   23DOPE   C34 2924   4.330   1.109   7.600  0.1572 -0.0405  0.0339
   23DOPE   H4X 2925   4.273   1.204   7.606  0.9884  0.4707  0.1068
   23DOPE   H4Y 2926   4.439   1.129   7.614 -0.2704  2.0275  0.8262
   23DOPE   C35 2927   4.297   1.043   7.468 -0.3005  0.6246 -0.0165
   23DOPE   H5X 2928   4.187   1.030   7.466 -0.2572 -0.6456  2.2570
   23DOPE   H5Y 2929   4.340   0.940   7.469 -1.2591  0.1971 -1.2139
   23DOPE   C36 2930   4.324   1.121   7.341  0.7659 -0.7525  0.0144
   23DOPE   H6X 2931   4.414   1.184   7.357 -0.0601  0.3891  0.3772
   23DOPE   H6Y 2932   4.239   1.190   7.320  1.6202 -0.1261 -1.4897
   23DOPE   C37 2933   4.341   1.027   7.222 -0.4702  0.8773 -0.5469
   23DOPE   H7X 2934   4.418   0.949   7.239 -0.9767  0.3925 -0.4490
   23DOPE   H7Y 2935   4.247   0.971   7.201  0.1620 -1.1787  1.7279
   23DOPE   C38 2936   4.372   1.103   7.096  0.2534  0.0937 -0.0604
   23DOPE   H8X 2937   4.482   1.120   7.101  0.4676 -1.0822 -0.5734
   23DOPE   H8Y 2938   4.334   1.208   7.094  0.1106  0.0363 -1.9486
   23DOPE   C39 2939   4.319   1.050   6.970 -0.2039  0.0424  0.0738
   23DOPE   H9X 2940   4.225   1.092   6.934  0.3261  1.0179 -0.1919
   23DOPE  C310 2941   4.368   0.950   6.891  0.0288 -0.1859  0.3231
   23DOPE  H10X 2942   4.313   0.922   6.800 -0.5986  0.2272  0.5644
   23DOPE  C311 2943   4.496   0.879   6.931  0.1847  0.5756 -0.0569
   23DOPE  H11X 2944   4.523   0.889   7.038 -2.8663 -1.2618  1.0054
   23DOPE  H11Y 2945   4.483   0.770   6.914  0.0015  0.5392  0.3037
   23DOPE  C312 2946   4.607   0.926   6.834 -0.2726 -0.1402  0.4972
   23DOPE  H12X 2947   4.700   0.875   6.866 -0.7795 -1.4347 -0.0363
   23DOPE  H12Y 2948   4.608   1.035   6.858  3.6215  0.3434 -1.1529
   23DOPE  C313 2949   4.573   0.882   6.692 -0.0569  0.5035  0.6042
   23DOPE  H13X 2950   4.533   0.780   6.680  0.1680  0.6665 -2.0107
   23DOPE  H13Y 2951   4.505   0.959   6.649  2.8440  1.7165 -2.2697
   23DOPE  C314 2952   4.696   0.890   6.593  0.3569  0.6802  0.5723
   23DOPE  H14X 2953   4.772   0.810   6.604 -0.9846 -0.4019  2.6476
   23DOPE  H14Y 2954   4.732   0.991   6.622 -1.1075  1.3800  0.0929
   23DOPE  C315 2955   4.652   0.910   6.447 -0.4043 -0.4628 -0.3024
   23DOPE  H15X 2956   4.564   0.978   6.439 -0.6840 -0.3963  2.3760
   23DOPE  H15Y 2957   4.611   0.816   6.404 -0.1495 -0.3842 -0.7275
   23DOPE  C316 2958   4.777   0.949   6.356 -0.1139  0.6582  0.1512
   23DOPE  H16X 2959   4.770   0.882   6.267  0.0745  0.9165 -0.0598
   23DOPE  H16Y 2960   4.868   0.915   6.410 -1.8407  0.5947  3.2072
   23DOPE  C317 2961   4.795   1.094   6.318 -0.5050 -0.6745  0.5159
   23DOPE  H17X 2962   4.696   1.141   6.302 -0.6484 -0.5737  1.5890
   23DOPE  H17Y 2963   4.825   1.138   6.416  2.1265 -1.9430  0.3724
   23DOPE  C318 2964   4.890   1.125   6.204 -0.3061 -0.4849 -1.0162
   23DOPE  H18X 2965   4.908   1.233   6.186  1.2482 -0.6830 -0.7323
   23DOPE  H18Y 2966   4.988   1.086   6.239 -1.2416 -1.3874  0.7772
   23DOPE  H18Z 2967   4.856   1.078   6.109  1.6656 -0.4419 -1.7753
   24DOPE     N 2968   5.611   5.481   8.558  0.2392 -1.1713 -0.1437
   24DOPE   HN1 2969   5.600   5.483   8.662 -2.6154 -1.3532 -0.3734
   24DOPE   HN2 2970   5.528   5.533   8.523 -1.9317 -3.5256  1.1459
   24DOPE   HN3 2971   5.600   5.389   8.512  2.6761 -0.6678 -1.9542
   24DOPE   C12 2972   5.730   5.555   8.498 -0.0566  0.1810  0.2749
   24DOPE  H12A 2973   5.703   5.557   8.390  0.7125 -2.6307 -0.0456
   24DOPE  H12B 2974   5.819   5.492   8.519 -0.4187 -0.0874  1.0102
   24DOPE   C11 2975   5.766   5.701   8.549  0.6277  0.2569  0.1652
   24DOPE  H11A 2976   5.864   5.724   8.502 -1.0825 -0.0458 -3.9404
   24DOPE  H11B 2977   5.769   5.697   8.660  2.1102  0.2511  0.1381
   24DOPE     P 2978   5.681   5.943   8.533 -0.3494  0.3213 -0.3814
   24DOPE   O13 2979   5.805   5.991   8.470 -0.8730  0.2961 -0.2867
   24DOPE   O14 2980   5.683   5.944   8.684  0.0692  0.4187  0.2691
   24DOPE   O11 2981   5.561   6.026   8.470  0.1843  0.1039  0.7465
   24DOPE   O12 2982   5.665   5.793   8.500 -0.1513  0.1332  0.1673
   24DOPE    C1 2983   5.467   5.963   8.377  0.3706  0.2927  0.1200
   24DOPE    HA 2984   5.367   6.009   8.393  0.2876  0.8349 -1.7009
   24DOPE    HB 2985   5.454   5.857   8.407  3.5552 -0.1301  0.4169
   24DOPE    C2 2986   5.499   5.964   8.228  0.6059 -0.6557 -0.2990
   24DOPE    HS 2987   5.415   5.912   8.177 -0.3801  0.4782  0.1361
   24DOPE   O21 2988   5.624   5.914   8.203 -0.3230 -0.4841 -0.1896
   24DOPE   C21 2989   5.617   5.778   8.198  0.1962  0.5325  0.7261
   24DOPE   O22 2990   5.514   5.712   8.190 -0.0800 -0.0255 -0.0669
   24DOPE   C22 2991   5.762   5.730   8.194  0.1237  0.0826  0.2729
   24DOPE   H2R 2992   5.758   5.619   8.194  0.0790  0.0815 -0.3030
   24DOPE   H2S 2993   5.819   5.775   8.278  0.6593  1.4455 -0.7870
   24DOPE    C3 2994   5.502   6.114   8.180  0.0010  0.5143 -0.1595
   24DOPE    HX 2995   5.575   6.173   8.239 -0.3391 -1.2546  2.1942
   24DOPE    HY 2996   5.401   6.158   8.195 -0.0120  1.0837 -1.7409
   24DOPE   O31 2997   5.534   6.123   8.043  0.2583 -0.0737 -0.1371
   24DOPE   C31 2998   5.439   6.072   7.958 -0.2261  0.0777  0.1771
   24DOPE   O32 2999   5.329   6.030   7.993  0.1869 -0.8162  0.1243
   24DOPE   C32 3000   5.488   6.078   7.813  0.1111  0.4040 -1.2126
   24DOPE   H2X 3001   5.595   6.107   7.812  0.1707  0.2096 -0.7888
   24DOPE   H2Y 3002   5.464   5.979   7.767 -0.9083  1.0823 -2.2053
   24DOPE   C23 3003   5.834   5.780   8.063 -0.3015  0.0016  0.5375
   24DOPE   H3R 3004   5.942   5.764   8.079 -0.2694  0.6839  1.0517
   24DOPE   H3S 3005   5.814   5.888   8.047 -2.1634 -0.4681 -0.7339
   24DOPE   C24 3006   5.783   5.695   7.935 -0.3532 -0.5871 -0.6977
   24DOPE   H4R 3007   5.676   5.719   7.918 -1.3038 -2.9947  1.2769
   24DOPE   H4S 3008   5.779   5.586   7.958  0.1431 -0.3961  0.3710
   24DOPE   C25 3009   5.884   5.719   7.822 -0.2092 -0.1199 -0.1945
   24DOPE   H5R 3010   5.986   5.692   7.857  0.8163 -0.3956 -3.1452
   24DOPE   H5S 3011   5.878   5.825   7.790 -0.8141 -0.0173  0.2352
   24DOPE   C26 3012   5.852   5.629   7.699 -0.1932  0.0647 -0.4236
   24DOPE   H6R 3013   5.746   5.624   7.669  0.3851  0.4926 -2.7360
   24DOPE   H6S 3014   5.870   5.521   7.718 -1.5887 -0.9426 -4.0554
   24DOPE   C27 3015   5.945   5.666   7.577 -0.1069 -0.4211 -0.8891
   24DOPE   H7R 3016   6.047   5.657   7.619  1.1439  2.9338 -2.7921
   24DOPE   H7S 3017   5.932   5.776   7.562  0.0392 -0.0632  1.2484
   24DOPE   C28 3018   5.922   5.581   7.451 -0.4856 -0.1565 -0.0058
   24DOPE   H8R 3019   5.900   5.477   7.484 -1.5162  0.3330  0.9211
   24DOPE   H8S 3020   6.022   5.583   7.402 -0.1260 -0.6518  0.6837
   24DOPE   C29 3021   5.813   5.630   7.355  0.5173  0.0248 -0.7716
   24DOPE   H9R 3022   5.710   5.611   7.389  1.9010  0.3088  4.4467
   24DOPE  C210 3023   5.836   5.681   7.232 -0.1468  0.0540 -0.5089
   24DOPE  H10R 3024   5.741   5.707   7.182 -2.1708 -0.4710  2.7221
   24DOPE  C211 3025   5.958   5.707   7.149 -0.0679 -0.3985  0.1799
   24DOPE  H11R 3026   6.049   5.658   7.189 -0.3897 -0.8609  0.3451
   24DOPE  H11S 3027   5.975   5.817   7.146 -4.1689  0.3719 -2.2450
   24DOPE  C212 3028   5.953   5.648   7.006 -0.1701  0.3788  0.0765
   24DOPE  H12R 3029   5.908   5.546   7.003 -0.8839  0.6208  1.5493
   24DOPE  H12S 3030   6.057   5.655   6.969  0.1733 -1.3224  0.6172
   24DOPE  C213 3031   5.869   5.725   6.902  0.2756 -0.5673 -0.2939
   24DOPE  H13R 3032   5.913   5.826   6.915  0.9352 -0.9914  1.0056
   24DOPE  H13S 3033   5.762   5.718   6.929  0.2550 -1.0438 -0.4768
   24DOPE  C214 3034   5.891   5.679   6.756  0.7167  0.2199 -0.1199
   24DOPE  H14R 3035   5.835   5.586   6.737  0.9708  0.2705 -1.1811
   24DOPE  H14S 3036   6.000   5.664   6.736  0.8683  0.2368  0.6474
   24DOPE  C215 3037   5.840   5.781   6.653  0.0346 -0.0306 -0.6175
   24DOPE  H15R 3038   5.889   5.881   6.647 -2.5648  1.2959 -0.9346
   24DOPE  H15S 3039   5.734   5.797   6.682  0.2518 -1.5676  1.2093
   24DOPE  C216 3040   5.838   5.717   6.512  0.8587 -0.1070 -0.1508
   24DOPE  H16R 3041   5.751   5.761   6.460 -0.1479 -0.2373  1.3517
   24DOPE  H16S 3042   5.823   5.607   6.521 -0.8976  0.1455  0.2027
   24DOPE  C217 3043   5.964   5.740   6.434 -0.0847  0.0959 -0.2199
   24DOPE  H17R 3044   6.051   5.688   6.480 -0.2607 -0.8346 -0.9054
   24DOPE  H17S 3045   5.989   5.847   6.418  0.1824  0.0743  0.0458
   24DOPE  C218 3046   5.948   5.679   6.297 -1.0148 -0.0056  0.4060
   24DOPE  H18R 3047   5.892   5.742   6.224 -0.0492 -1.6881 -1.9083
   24DOPE  H18S 3048   5.901   5.578   6.293  0.9402 -0.9366 -0.1242
   24DOPE  H18T 3049   6.044   5.665   6.243 -0.4054 -2.5627  1.9934
   24DOPE   C33 3050   5.402   6.183   7.735 -0.1847 -0.0693 -0.1376
   24DOPE   H3X 3051   5.398   6.281   7.788 -0.1605  1.2413 -2.4403
   24DOPE   H3Y 3052   5.297   6.148   7.730 -0.0951 -0.4394  0.4869
   24DOPE   C34 3053   5.457   6.209   7.592  0.4904 -0.2691  0.5075
   24DOPE   H4X 3054   5.554   6.263   7.594  0.5463 -0.3466 -0.0014
   24DOPE   H4Y 3055   5.461   6.111   7.540  1.8491  0.3715 -0.6607
   24DOPE   C35 3056   5.362   6.298   7.508  0.0878  0.0324  0.4053
   24DOPE   H5X 3057   5.343   6.394   7.559  1.1352 -0.4355  1.7295
   24DOPE   H5Y 3058   5.261   6.252   7.497 -0.1979  0.6294  0.4818
   24DOPE   C36 3059   5.422   6.320   7.361  0.8081 -0.0284 -0.4833
   24DOPE   H6X 3060   5.520   6.372   7.361 -0.5197  2.6545  0.8881
   24DOPE   H6Y 3061   5.346   6.375   7.301 -1.1328 -1.6369  0.3428
   24DOPE   C37 3062   5.438   6.186   7.289  0.5413 -0.4170 -0.7228
   24DOPE   H7X 3063   5.519   6.119   7.325  0.5066 -0.0716  0.0066
   24DOPE   H7Y 3064   5.339   6.135   7.299 -1.0995  2.4370 -1.3315
   24DOPE   C38 3065   5.473   6.204   7.138  0.0725  0.0311  0.2748
   24DOPE   H8X 3066   5.398   6.271   7.091  2.4583  1.1864 -2.2284
   24DOPE   H8Y 3067   5.468   6.102   7.096  0.2144  0.2087 -0.1791
   24DOPE   C39 3068   5.611   6.275   7.119  0.5958  0.4677 -0.0022
   24DOPE   H9X 3069   5.622   6.369   7.174 -1.3015 -0.0931  1.4479
   24DOPE  C310 3070   5.716   6.238   7.047 -0.0146 -0.5668 -0.2679
   24DOPE  H10X 3071   5.807   6.297   7.060 -1.2835  2.5051 -3.6112
   24DOPE  C311 3072   5.731   6.109   6.968  0.4436  0.7163 -0.0034
   24DOPE  H11X 3073   5.831   6.067   6.995  0.2751  1.0995  1.2978
   24DOPE  H11Y 3074   5.664   6.028   7.002  1.5001 -0.6597 -1.0693
   24DOPE  C312 3075   5.718   6.113   6.819  0.4776  0.2140  0.2305
   24DOPE  H12X 3076   5.777   6.025   6.783  0.6214  0.2421  0.3933
   24DOPE  H12Y 3077   5.762   6.203   6.770 -0.7917 -0.8386 -3.0970
   24DOPE  C313 3078   5.574   6.098   6.781  0.6060  0.9150  0.0035
   24DOPE  H13X 3079   5.552   5.996   6.819  3.3156 -0.0814 -0.8927
   24DOPE  H13Y 3080   5.514   6.175   6.834  1.1012  0.7724  0.7828
   24DOPE  C314 3081   5.550   6.117   6.625 -0.3531 -0.4092  0.1261
   24DOPE  H14X 3082   5.592   6.212   6.585  0.0591 -0.6047  0.0867
   24DOPE  H14Y 3083   5.441   6.123   6.601 -1.0370 -0.1523  3.0012
   24DOPE  C315 3084   5.620   6.010   6.542 -0.3919  0.4103 -0.6943
   24DOPE  H15X 3085   5.587   5.909   6.573  1.8725  0.1102  0.9551
   24DOPE  H15Y 3086   5.729   6.015   6.565 -0.6626 -0.0599  0.7682
   24DOPE  C316 3087   5.617   6.038   6.386  0.9255  0.7307  1.1456
   24DOPE  H16X 3088   5.684   5.963   6.338 -0.2091  0.9122 -0.8157
   24DOPE  H16Y 3089   5.666   6.137   6.372  2.4834 -0.0915  0.5177
   24DOPE  C317 3090   5.481   6.013   6.320 -0.5670 -0.2283  0.1334
   24DOPE  H17X 3091   5.497   6.007   6.210  2.5156  0.1642  0.4681
   24DOPE  H17Y 3092   5.431   5.923   6.361  1.1436 -0.6206  1.4525
   24DOPE  C318 3093   5.380   6.127   6.344 -0.9694 -0.6511 -0.1690
   24DOPE  H18X 3094   5.292   6.082   6.394  0.0655 -0.2414  2.1790
   24DOPE  H18Y 3095   5.424   6.199   6.416 -0.0335 -0.5871 -0.7872
   24DOPE  H18Z 3096   5.356   6.168   6.244  0.6012 -3.3912 -1.7977
   25DOPE     N 3097   0.608   5.054   8.696 -0.4078 -0.1419 -0.0207
   25DOPE   HN1 3098   0.631   4.967   8.643 -0.9495 -1.3528  1.6385
   25DOPE   HN2 3099   0.671   5.127   8.659  0.2224 -0.6069  0.1182
   25DOPE   HN3 3100   0.627   5.039   8.797 -1.0661 -1.4404 -0.0622
   25DOPE   C12 3101   0.466   5.085   8.678 -0.1592  0.2922  0.1361
   25DOPE  H12A 3102   0.408   4.996   8.713  1.6040 -1.0280 -0.1583
   25DOPE  H12B 3103   0.445   5.097   8.570  3.3261  0.0953 -0.6773
   25DOPE   C11 3104   0.424   5.208   8.761  0.3307  0.4465 -0.1597
   25DOPE  H11A 3105   0.507   5.281   8.751  0.4410  0.2629 -0.6148
   25DOPE  H11B 3106   0.413   5.178   8.867  0.9505  0.2403 -0.1506
   25DOPE     P 3107   0.250   5.411   8.740 -0.1635  0.3227  0.0990
   25DOPE   O13 3108   0.356   5.518   8.736  0.3764  0.0368  0.3824
   25DOPE   O14 3109   0.160   5.404   8.856 -0.5356 -0.0158  0.6322
   25DOPE   O11 3110   0.150   5.440   8.619 -1.3248 -0.6411 -0.8505
   25DOPE   O12 3111   0.312   5.272   8.704  0.4932  0.0812 -0.1378
   25DOPE    C1 3112   0.085   5.334   8.550 -0.0064 -0.4282  0.2309
   25DOPE    HA 3113  -0.021   5.347   8.580 -0.3132 -1.7739 -0.1853
   25DOPE    HB 3114   0.129   5.234   8.568  1.3049  0.2014  0.6767
   25DOPE    C2 3115   0.110   5.347   8.397 -0.8481 -1.3143 -0.3941
   25DOPE    HS 3116   0.081   5.454   8.391 -1.4324 -1.4373  0.1480
   25DOPE   O21 3117   0.025   5.253   8.343 -0.0038  0.0859 -0.7082
   25DOPE   C21 3118  -0.019   5.286   8.218 -0.2477  0.9741  0.3363
   25DOPE   O22 3119  -0.013   5.398   8.175 -0.1666 -0.3454  0.7681
   25DOPE   C22 3120  -0.079   5.164   8.137  0.0591 -0.9872  0.0162
   25DOPE   H2R 3121  -0.189   5.178   8.144  0.4006  1.8569  0.8852
   25DOPE   H2S 3122  -0.059   5.068   8.190  0.9938 -0.4885  0.5855
   25DOPE    C3 3123   0.261   5.319   8.367  0.3440  0.0717 -0.1464
   25DOPE    HX 3124   0.271   5.213   8.397  3.3002  0.5628  0.9606
   25DOPE    HY 3125   0.326   5.376   8.437  1.3235 -0.2301 -0.7814
   25DOPE   O31 3126   0.291   5.338   8.226  0.2364 -0.5472 -0.4152
   25DOPE   C31 3127   0.337   5.460   8.195 -0.4526  0.2829  0.2706
   25DOPE   O32 3128   0.358   5.548   8.275  0.2621  0.1638 -0.2109
   25DOPE   C32 3129   0.358   5.477   8.048 -0.5989  0.1132 -0.2511
   25DOPE   H2X 3130   0.307   5.390   8.001 -0.0076 -0.2971 -0.1453
   25DOPE   H2Y 3131   0.315   5.574   8.016  1.1825  0.4316 -1.8564
   25DOPE   C23 3132  -0.017   5.157   7.996  0.1328  1.0117 -0.1505
   25DOPE   H3R 3133   0.092   5.175   8.007  0.1794  0.6975 -0.1128
   25DOPE   H3S 3134  -0.046   5.248   7.937 -1.3736  2.9339  3.2405
   25DOPE   C24 3135  -0.057   5.031   7.926  1.2120  0.0884 -0.6183
   25DOPE   H4R 3136  -0.157   4.989   7.948  1.6531 -1.2105 -1.0114
   25DOPE   H4S 3137   0.023   4.962   7.963  0.5481  1.0616  3.0458
   25DOPE   C25 3138  -0.034   5.038   7.772 -0.2604 -0.4428 -0.5833
   25DOPE   H5R 3139   0.076   5.050   7.765 -0.2146 -0.6815 -0.3179
   25DOPE   H5S 3140  -0.102   5.114   7.727 -0.1379 -0.4246 -0.7379
   25DOPE   C26 3141  -0.079   4.910   7.703  0.3661 -0.0900 -0.3532
   25DOPE   H6R 3142  -0.188   4.907   7.722  0.4061  0.4838 -0.0202
   25DOPE   H6S 3143  -0.037   4.821   7.754 -0.2653 -0.6131 -0.7268
   25DOPE   C27 3144  -0.046   4.910   7.560  0.0295 -0.1085  0.3878
   25DOPE   H7R 3145   0.057   4.939   7.533  0.1145 -2.6553 -2.5819
   25DOPE   H7S 3146  -0.105   4.990   7.510  1.9033  0.7771 -0.4840
   25DOPE   C28 3147  -0.082   4.770   7.499  0.2954 -0.0090 -0.1516
   25DOPE   H8R 3148  -0.087   4.779   7.388  4.1756  0.5560 -0.4102
   25DOPE   H8S 3149  -0.182   4.745   7.542  1.3963 -0.8582  2.0517
   25DOPE   C29 3150   0.027   4.674   7.534  0.0983  0.1229 -0.2001
   25DOPE   H9R 3151  -0.002   4.588   7.595 -1.1059 -2.3553 -3.9196
   25DOPE  C210 3152   0.152   4.678   7.483 -0.1149  0.4175 -0.4335
   25DOPE  H10R 3153   0.224   4.609   7.529  0.1063 -0.8569 -2.5878
   25DOPE  C211 3154   0.225   4.767   7.384  0.1363 -0.8707  0.5643
   25DOPE  H11R 3155   0.329   4.785   7.419  0.6476  0.2410 -1.3824
   25DOPE  H11S 3156   0.176   4.866   7.380 -0.9510 -1.4234 -0.3521
   25DOPE  C212 3157   0.230   4.707   7.246 -0.0877  0.6341  0.5075
   25DOPE  H12R 3158   0.236   4.597   7.247  2.6994  0.7170 -0.6140
   25DOPE  H12S 3159   0.328   4.735   7.202  0.5955  0.3962  1.8311
   25DOPE  C213 3160   0.105   4.744   7.161  0.4616 -0.7692 -0.0621
   25DOPE  H13R 3161   0.077   4.851   7.173 -1.5379 -1.1594 -0.7854
   25DOPE  H13S 3162   0.012   4.693   7.195  0.2722  0.2057  0.9231
   25DOPE  C214 3163   0.135   4.718   7.012  0.5430 -0.5403  0.0298
   25DOPE  H14R 3164   0.171   4.613   7.003 -0.2456 -0.7504 -0.9021
   25DOPE  H14S 3165   0.216   4.790   6.988 -1.3906  2.2824  1.4582
   25DOPE  C215 3166   0.018   4.737   6.922  0.5548 -0.3703 -0.4070
   25DOPE  H15R 3167  -0.046   4.815   6.967  1.6747  0.1330  0.3712
   25DOPE  H15S 3168  -0.041   4.647   6.899  1.8962 -2.0243  2.1913
   25DOPE  C216 3169   0.068   4.802   6.785 -0.4192  0.2885 -0.6648
   25DOPE  H16R 3170   0.144   4.741   6.732 -0.5236 -0.6218  0.2011
   25DOPE  H16S 3171   0.121   4.897   6.807 -1.3070  0.6835 -0.1648
   25DOPE  C217 3172  -0.036   4.825   6.673  0.2844  0.0310  0.6365
   25DOPE  H17R 3173   0.021   4.845   6.580  1.0926 -2.9402  0.3914
   25DOPE  H17S 3174  -0.086   4.921   6.697  2.0644  0.8592  1.1295
   25DOPE  C218 3175  -0.137   4.712   6.653 -0.6833 -0.5376  0.6257
   25DOPE  H18R 3176  -0.169   4.720   6.547 -3.4576  0.3217  1.4494
   25DOPE  H18S 3177  -0.221   4.697   6.725 -2.1510 -2.3744 -1.3270
   25DOPE  H18T 3178  -0.076   4.621   6.671  0.4084  0.0844  0.1344
   25DOPE   C33 3179   0.504   5.476   8.003 -0.3575 -0.7148 -0.2489
   25DOPE   H3X 3180   0.563   5.385   8.027 -0.9772 -1.0649 -0.0121
   25DOPE   H3Y 3181   0.552   5.571   8.034 -0.2448 -1.5590  2.4494
   25DOPE   C34 3182   0.511   5.485   7.851  0.1068  0.1762  0.2083
   25DOPE   H4X 3183   0.454   5.403   7.803 -0.1036 -0.1974  1.0606
   25DOPE   H4Y 3184   0.470   5.578   7.806 -2.8442 -2.1279 -2.2664
   25DOPE   C35 3185   0.655   5.469   7.794 -0.1707 -0.1668 -0.3182
   25DOPE   H5X 3186   0.704   5.391   7.855 -1.1556 -0.6143 -0.0671
   25DOPE   H5Y 3187   0.706   5.565   7.816  0.6478 -1.0710  1.9350
   25DOPE   C36 3188   0.657   5.447   7.645  0.0059 -0.5982 -0.1817
   25DOPE   H6X 3189   0.589   5.363   7.620  2.4406 -3.2738  1.3938
   25DOPE   H6Y 3190   0.758   5.412   7.613 -0.6971 -2.1795 -0.7822
   25DOPE   C37 3191   0.615   5.578   7.575  0.3452  0.6712  0.3826
   25DOPE   H7X 3192   0.512   5.608   7.605 -0.1549  0.5870 -1.1805
   25DOPE   H7Y 3193   0.685   5.657   7.611  0.0490  0.5702  1.2089
   25DOPE   C38 3194   0.606   5.572   7.425 -0.1782  0.3896  0.4993
   25DOPE   H8X 3195   0.529   5.501   7.389 -0.3461  0.2854  1.0552
   25DOPE   H8Y 3196   0.704   5.528   7.397 -0.1329  0.2747  0.8353
   25DOPE   C39 3197   0.607   5.706   7.355 -0.0723  0.1401  0.1984
   25DOPE   H9X 3198   0.650   5.791   7.412 -0.2328 -1.1687  2.3725
   25DOPE  C310 3199   0.548   5.737   7.239 -0.3012 -0.3096 -0.4477
   25DOPE  H10X 3200   0.573   5.836   7.198 -0.6612 -0.0508 -0.0503
   25DOPE  C311 3201   0.480   5.633   7.146 -0.0375  0.1031 -0.0510
   25DOPE  H11X 3202   0.510   5.528   7.167  0.2318  0.3210  0.6690
   25DOPE  H11Y 3203   0.373   5.632   7.176 -0.3130  0.8158 -0.9471
   25DOPE  C312 3204   0.525   5.673   7.006  0.2087 -0.7692 -0.8705
   25DOPE  H12X 3205   0.633   5.652   6.998  0.6288  1.2031 -1.0073
   25DOPE  H12Y 3206   0.519   5.784   6.997  0.1220 -0.5086  1.6765
   25DOPE  C313 3207   0.454   5.612   6.886  0.1212  0.0196  0.6772
   25DOPE  H13X 3208   0.445   5.502   6.894  0.7733 -0.0284  0.8413
   25DOPE  H13Y 3209   0.352   5.655   6.879 -0.3354 -1.1078  0.3636
   25DOPE  C314 3210   0.531   5.642   6.751 -0.0531  0.2178  0.8817
   25DOPE  H14X 3211   0.550   5.751   6.745  0.7073  0.0489 -0.0199
   25DOPE  H14Y 3212   0.448   5.617   6.682 -0.6786  0.0995  1.6586
   25DOPE  C315 3213   0.655   5.551   6.745 -0.3451  1.0553  0.2867
   25DOPE  H15X 3214   0.644   5.449   6.788  0.7975  1.3513  1.3519
   25DOPE  H15Y 3215   0.740   5.598   6.799  0.5282  0.2500 -0.3476
   25DOPE  C316 3216   0.706   5.537   6.600 -0.4152  0.2020 -0.4011
   25DOPE  H16X 3217   0.626   5.506   6.529  1.1857 -0.0005 -2.1933
   25DOPE  H16Y 3218   0.782   5.456   6.606 -0.9008 -0.1847  1.4621
   25DOPE  C317 3219   0.754   5.672   6.546 -0.2519  0.2939 -0.5721
   25DOPE  H17X 3220   0.664   5.737   6.552 -0.3491  0.1140 -0.1355
   25DOPE  H17Y 3221   0.834   5.713   6.611  0.4006 -2.3168  0.3795
   25DOPE  C318 3222   0.799   5.670   6.402 -0.2629 -0.2639 -0.3951
   25DOPE  H18X 3223   0.778   5.768   6.355 -0.1476 -0.6349 -1.2231
   25DOPE  H18Y 3224   0.908   5.650   6.396 -0.0681 -0.1761  1.8736
   25DOPE  H18Z 3225   0.749   5.589   6.344  3.0906 -0.7975 -2.8053
   26DOPE     N 3226   1.130   5.652   8.457 -0.2193  0.7842 -0.9492
   26DOPE   HN1 3227   1.216   5.594   8.451 -1.0304 -0.3671 -2.1225
   26DOPE   HN2 3228   1.065   5.649   8.376 -1.8848 -0.7297  0.3724
   26DOPE   HN3 3229   1.157   5.751   8.477 -1.5512  1.4376 -2.1990
   26DOPE   C12 3230   1.051   5.613   8.582 -0.6791 -0.4524  0.0011
   26DOPE  H12A 3231   0.957   5.672   8.576  0.4100  1.4691  0.7396
   26DOPE  H12B 3232   1.112   5.637   8.672 -1.6513  1.6710  0.1644
   26DOPE   C11 3233   1.016   5.463   8.579 -0.2250 -1.1283  0.9249
   26DOPE  H11A 3234   1.109   5.405   8.563  2.0579  2.3500  0.5233
   26DOPE  H11B 3235   0.950   5.452   8.490 -1.4903 -1.5540  1.8819
   26DOPE     P 3236   0.798   5.399   8.714  0.0921  0.0506  0.4771
   26DOPE   O13 3237   0.750   5.439   8.849  0.2274  0.1573  0.2251
   26DOPE   O14 3238   0.766   5.266   8.672  0.6423  0.3651  0.1929
   26DOPE   O11 3239   0.723   5.501   8.621  0.6022 -0.7254 -0.1439
   26DOPE   O12 3240   0.952   5.419   8.701 -0.0780  0.5464  0.3736
   26DOPE    C1 3241   0.621   5.472   8.535 -1.0829 -0.1321  0.1350
   26DOPE    HA 3242   0.546   5.554   8.529 -1.5771 -0.6036 -0.2473
   26DOPE    HB 3243   0.562   5.380   8.559 -2.0071  0.4181  0.0276
   26DOPE    C2 3244   0.670   5.466   8.386  0.5162 -0.2425  0.0611
   26DOPE    HS 3245   0.583   5.447   8.319 -0.9063  2.3068  1.0175
   26DOPE   O21 3246   0.768   5.359   8.363  0.0164  0.5355  0.0514
   26DOPE   C21 3247   0.721   5.237   8.378  0.2149 -0.4254 -0.8315
   26DOPE   O22 3248   0.606   5.204   8.398  0.1790 -0.4300  0.5023
   26DOPE   C22 3249   0.835   5.139   8.355 -0.2069 -0.2427 -0.0912
   26DOPE   H2R 3250   0.788   5.041   8.333  1.9110 -1.9088  2.2214
   26DOPE   H2S 3251   0.893   5.121   8.448 -0.7219  0.5959  0.4015
   26DOPE    C3 3252   0.717   5.608   8.342 -0.3245  0.0787  0.1578
   26DOPE    HX 3253   0.797   5.630   8.415 -1.3944 -1.2751  1.8069
   26DOPE    HY 3254   0.631   5.676   8.364  0.0055  1.0797 -1.4691
   26DOPE   O31 3255   0.756   5.614   8.198 -0.0715  0.3790  0.0331
   26DOPE   C31 3256   0.884   5.619   8.168 -0.5811  0.2913 -0.8574
   26DOPE   O32 3257   0.977   5.602   8.247 -0.4322 -0.2187  0.3864
   26DOPE   C32 3258   0.888   5.635   8.020 -0.1069  0.4288 -0.1441
   26DOPE   H2X 3259   0.880   5.534   7.976 -0.2229  0.9274 -1.2952
   26DOPE   H2Y 3260   0.802   5.701   7.994 -0.9646 -0.4165  0.4795
   26DOPE   C23 3261   0.931   5.166   8.234  0.6933  0.0315  0.2755
   26DOPE   H3R 3262   1.007   5.086   8.247 -0.3437 -0.9798  0.3460
   26DOPE   H3S 3263   0.967   5.271   8.230  1.3392 -0.2178 -0.7548
   26DOPE   C24 3264   0.867   5.140   8.096 -0.0349 -0.2405  0.1782
   26DOPE   H4R 3265   0.762   5.175   8.091 -0.3678 -0.9324  1.8462
   26DOPE   H4S 3266   0.850   5.033   8.071  0.7495 -0.1578 -0.8142
   26DOPE   C25 3267   0.936   5.197   7.977 -0.2976 -0.2330  0.2142
   26DOPE   H5R 3268   1.045   5.177   7.977 -0.1563  0.4854 -0.5595
   26DOPE   H5S 3269   0.927   5.308   7.973  1.4711 -0.0786 -0.5234
   26DOPE   C26 3270   0.884   5.145   7.844 -0.2468 -0.5510 -0.0602
   26DOPE   H6R 3271   0.773   5.147   7.835 -0.3211 -2.3968  0.1400
   26DOPE   H6S 3272   0.913   5.040   7.825 -0.1831 -0.4765 -0.3798
   26DOPE   C27 3273   0.946   5.221   7.726 -0.0499 -0.1591 -0.1973
   26DOPE   H7R 3274   1.051   5.248   7.752  0.2013 -1.2890  0.0625
   26DOPE   H7S 3275   0.889   5.316   7.732 -2.8218 -1.7565  1.9329
   26DOPE   C28 3276   0.921   5.142   7.600 -0.5730 -0.4579 -0.4361
   26DOPE   H8R 3277   0.810   5.139   7.589 -0.7384 -0.3421  1.0149
   26DOPE   H8S 3278   0.967   5.041   7.597 -0.2099 -0.2749 -1.5427
   26DOPE   C29 3279   0.977   5.210   7.483  0.1824  0.3074 -0.0455
   26DOPE   H9R 3280   1.086   5.221   7.485  0.3199 -0.8625 -0.4531
   26DOPE  C210 3281   0.911   5.262   7.378  0.7488  0.7285  0.7467
   26DOPE  H10R 3282   0.971   5.307   7.297 -1.4792  1.0529 -0.8076
   26DOPE  C211 3283   0.761   5.240   7.347 -0.2473  0.4124  0.7455
   26DOPE  H11R 3284   0.702   5.308   7.414  0.0996  2.0929 -0.6001
   26DOPE  H11S 3285   0.728   5.134   7.356 -3.3220  1.0488 -1.2458
   26DOPE  C212 3286   0.718   5.279   7.205 -0.3413  0.2825  0.4998
   26DOPE  H12R 3287   0.755   5.381   7.185  2.5642 -0.6205  0.7891
   26DOPE  H12S 3288   0.610   5.283   7.179 -0.5247  2.3739  1.4193
   26DOPE  C213 3289   0.784   5.192   7.094 -0.0286  0.7962  0.4243
   26DOPE  H13R 3290   0.716   5.107   7.072  3.5483 -1.7156 -2.1545
   26DOPE  H13S 3291   0.883   5.160   7.132  0.9385 -0.5990 -2.9131
   26DOPE  C214 3292   0.791   5.265   6.957 -0.0721  0.0326  0.3091
   26DOPE  H14R 3293   0.888   5.316   6.973 -0.3958  0.1177  2.3500
   26DOPE  H14S 3294   0.716   5.346   6.944  1.5586  1.6608  0.7683
   26DOPE  C215 3295   0.792   5.161   6.844 -0.4973  0.3315 -0.1946
   26DOPE  H15R 3296   0.687   5.128   6.826 -0.9608  1.5067  0.2750
   26DOPE  H15S 3297   0.858   5.079   6.882  0.3482  2.0085  2.1736
   26DOPE  C216 3298   0.843   5.208   6.703 -0.7537 -0.2324  0.8664
   26DOPE  H16R 3299   0.770   5.266   6.643  1.2605 -0.0537 -1.5219
   26DOPE  H16S 3300   0.862   5.113   6.649  1.2778 -0.1797  1.4036
   26DOPE  C217 3301   0.986   5.269   6.720  0.3035 -0.1839  0.2591
   26DOPE  H17R 3302   1.055   5.210   6.784  0.9090  0.3228  0.0729
   26DOPE  H17S 3303   0.985   5.364   6.778  0.7038 -0.4367  0.6871
   26DOPE  C218 3304   1.055   5.298   6.591 -0.0818  0.4635  0.7217
   26DOPE  H18R 3305   1.156   5.339   6.613 -0.0592 -0.2618  2.0616
   26DOPE  H18S 3306   1.009   5.379   6.530  2.2147  0.2208 -1.5142
   26DOPE  H18T 3307   1.073   5.205   6.533  2.5274  1.2510  0.1210
   26DOPE   C33 3308   1.021   5.690   7.967  0.1359  0.3813 -0.1354
   26DOPE   H3X 3309   1.096   5.608   7.967 -1.5695 -1.2378 -0.9962
   26DOPE   H3Y 3310   1.049   5.780   8.027  0.9149 -0.2306  0.4518
   26DOPE   C34 3311   1.011   5.748   7.821  0.0323 -0.4339 -0.6587
   26DOPE   H4X 3312   0.926   5.819   7.818  0.4678  0.1206 -0.1270
   26DOPE   H4Y 3313   1.097   5.814   7.796  1.9056 -1.5437  2.3436
   26DOPE   C35 3314   1.015   5.641   7.703 -0.0044  0.6932 -0.4113
   26DOPE   H5X 3315   0.948   5.555   7.725 -2.0788  2.1731 -0.6438
   26DOPE   H5Y 3316   1.117   5.598   7.710  0.0740  0.6752 -1.5860
   26DOPE   C36 3317   0.999   5.703   7.565 -1.2297 -0.0850 -0.0627
   26DOPE   H6X 3318   1.082   5.776   7.552 -0.6721 -0.8309 -0.8042
   26DOPE   H6Y 3319   0.908   5.767   7.557 -1.0432  0.1803 -0.0906
   26DOPE   C37 3320   0.992   5.601   7.455  0.1097  0.7790 -0.2228
   26DOPE   H7X 3321   1.074   5.527   7.450 -0.4861  0.1682 -1.2624
   26DOPE   H7Y 3322   0.904   5.544   7.492  0.6237 -0.3782 -0.7695
   26DOPE   C38 3323   0.965   5.658   7.312 -0.5184 -0.1750  0.2295
   26DOPE   H8X 3324   0.873   5.720   7.303 -0.2983  0.4724  2.0010
   26DOPE   H8Y 3325   0.940   5.568   7.252 -1.6764  0.9334 -1.0179
   26DOPE   C39 3326   1.086   5.731   7.243  0.2632  0.4453  0.0610
   26DOPE   H9X 3327   1.155   5.765   7.322 -2.4738  1.6423  2.0967
   26DOPE  C310 3328   1.101   5.743   7.107 -0.0365  0.1240 -0.6716
   26DOPE  H10X 3329   1.189   5.797   7.067 -0.0282 -0.0510 -0.8903
   26DOPE  C311 3330   1.006   5.701   7.000  0.4696 -0.4659 -0.5510
   26DOPE  H11X 3331   0.954   5.608   7.031 -0.3399 -0.1039 -0.7737
   26DOPE  H11Y 3332   0.935   5.786   6.992 -1.7408 -2.0048  1.3118
   26DOPE  C312 3333   1.058   5.667   6.861 -0.4394  0.4259  0.1662
   26DOPE  H12X 3334   0.965   5.641   6.806 -0.5536  0.1208  0.5062
   26DOPE  H12Y 3335   1.128   5.580   6.863 -1.7373 -0.6748 -0.7039
   26DOPE  C313 3336   1.108   5.784   6.782  0.5924  0.3788  0.4923
   26DOPE  H13X 3337   1.027   5.860   6.796  1.9993  2.3156 -1.3371
   26DOPE  H13Y 3338   1.194   5.834   6.830 -0.1123  1.3525  0.7756
   26DOPE  C314 3339   1.150   5.743   6.632 -0.5612 -0.1276 -0.3259
   26DOPE  H14X 3340   1.082   5.670   6.583  0.4706  0.3506 -2.5972
   26DOPE  H14Y 3341   1.242   5.686   6.655 -0.5148  0.5124  1.1922
   26DOPE  C315 3342   1.162   5.872   6.556  0.1120  0.0748 -0.6866
   26DOPE  H15X 3343   1.238   5.939   6.602 -2.5922  0.6576  3.5130
   26DOPE  H15Y 3344   1.070   5.933   6.556  0.7813  1.1026 -0.8955
   26DOPE  C316 3345   1.191   5.844   6.410  0.6210 -0.3856 -0.0346
   26DOPE  H16X 3346   1.164   5.941   6.365 -0.2785 -1.1701 -1.2557
   26DOPE  H16Y 3347   1.119   5.776   6.359  0.0141  0.4050 -0.2502
   26DOPE  C317 3348   1.334   5.809   6.379 -0.0431  0.0121 -0.0673
   26DOPE  H17X 3349   1.403   5.872   6.439  2.2494 -0.1322 -2.3987
   26DOPE  H17Y 3350   1.360   5.705   6.406  1.2739  0.1368 -0.7692
   26DOPE  C318 3351   1.381   5.828   6.236  0.1898 -0.4030  0.1951
   26DOPE  H18X 3352   1.492   5.830   6.225  0.3465  1.5209  1.7101
   26DOPE  H18Y 3353   1.337   5.750   6.171 -0.1319  0.4125 -0.5953
   26DOPE  H18Z 3354   1.351   5.929   6.202  0.3170 -0.0940  0.9853
   27DOPE     N 3355   4.988   1.026   8.600 -0.0696  0.3275 -0.0619
   27DOPE   HN1 3356   4.980   1.083   8.513 -3.0171  1.3689  0.7610
   27DOPE   HN2 3357   4.898   0.975   8.611 -0.0158  0.1544 -0.3988
   27DOPE   HN3 3358   5.001   1.094   8.677  0.0136 -0.0512  0.2566
   27DOPE   C12 3359   5.092   0.926   8.588  0.1147 -0.1409  0.6262
   27DOPE  H12A 3360   5.056   0.840   8.647 -2.3011  0.9759  0.9013
   27DOPE  H12B 3361   5.193   0.963   8.615  1.5738 -3.4171  0.0762
   27DOPE   C11 3362   5.087   0.897   8.435  0.9323  0.1855 -0.0939
   27DOPE  H11A 3363   5.174   0.841   8.395  2.9028  1.0794  2.6354
   27DOPE  H11B 3364   5.096   0.991   8.376  0.0068  1.4257  1.6350
   27DOPE     P 3365   4.906   0.804   8.268  0.7894  0.1649 -0.2034
   27DOPE   O13 3366   4.810   0.917   8.236  0.0155  0.6894  0.3098
   27DOPE   O14 3367   4.844   0.669   8.268  0.0272  0.3820 -0.0322
   27DOPE   O11 3368   5.028   0.798   8.170 -0.0524 -0.0661 -0.1370
   27DOPE   O12 3369   4.964   0.827   8.407  0.2914  0.4699 -1.2213
   27DOPE    C1 3370   5.122   0.683   8.190 -0.0629 -0.7967  0.0850
   27DOPE    HA 3371   5.089   0.610   8.267 -0.0365 -1.7611 -0.7930
   27DOPE    HB 3372   5.221   0.722   8.223 -0.2969 -0.7780  0.7966
   27DOPE    C2 3373   5.138   0.601   8.064  0.5228  0.3692 -0.5910
   27DOPE    HS 3374   5.198   0.510   8.086  1.0190  1.0739  1.1631
   27DOPE   O21 3375   5.194   0.687   7.958  0.2886  0.1199 -0.6457
   27DOPE   C21 3376   5.329   0.690   7.952  0.0454 -0.2452 -0.4229
   27DOPE   O22 3377   5.414   0.632   8.020 -0.2375  0.7042  0.7124
   27DOPE   C22 3378   5.366   0.781   7.835 -0.3031  0.8534 -0.6076
   27DOPE   H2R 3379   5.448   0.853   7.858  2.6718 -1.9282 -1.7058
   27DOPE   H2S 3380   5.283   0.845   7.798 -0.7566 -0.3908 -1.8111
   27DOPE    C3 3381   4.997   0.551   8.026 -0.1897  0.0194  0.3275
   27DOPE    HX 3382   4.948   0.649   8.003  0.6084  0.5648  0.8951
   27DOPE    HY 3383   4.950   0.502   8.114  1.3939  0.8698  1.7074
   27DOPE   O31 3384   4.995   0.469   7.909 -0.1046 -0.1783 -0.0405
   27DOPE   C31 3385   5.046   0.348   7.913 -0.1191  0.2410 -0.2559
   27DOPE   O32 3386   5.083   0.288   8.015  0.4162 -0.0682  0.2167
   27DOPE   C32 3387   5.073   0.304   7.771 -0.0893  0.7680  0.8194
   27DOPE   H2X 3388   5.122   0.386   7.715 -0.0684  0.6977  0.7344
   27DOPE   H2Y 3389   5.152   0.226   7.778 -1.1108 -0.2684  0.9576
   27DOPE   C23 3390   5.426   0.695   7.720 -0.0114 -0.3602  0.7003
   27DOPE   H3R 3391   5.489   0.617   7.768  0.0497 -0.8123 -0.0987
   27DOPE   H3S 3392   5.489   0.756   7.652 -1.6775 -0.7629 -1.3101
   27DOPE   C24 3393   5.332   0.615   7.634 -0.4401  0.0372 -0.2626
   27DOPE   H4R 3394   5.244   0.595   7.699 -0.7755  3.0349  0.3305
   27DOPE   H4S 3395   5.387   0.522   7.607 -0.4591 -0.1196  0.2300
   27DOPE   C25 3396   5.274   0.694   7.516 -0.5061  0.1584  0.4902
   27DOPE   H5R 3397   5.361   0.739   7.465  0.6691  0.1629  2.3979
   27DOPE   H5S 3398   5.208   0.780   7.542 -0.3901  0.3170  0.2659
   27DOPE   C26 3399   5.199   0.618   7.400 -0.4109  0.6066 -0.7214
   27DOPE   H6R 3400   5.149   0.690   7.332 -1.6810  0.6187  0.1989
   27DOPE   H6S 3401   5.119   0.549   7.437 -2.0755  1.8236 -1.9144
   27DOPE   C27 3402   5.303   0.533   7.322  0.0604 -0.2203  0.5500
   27DOPE   H7R 3403   5.335   0.439   7.370 -0.6432  0.5080  2.5257
   27DOPE   H7S 3404   5.396   0.593   7.311 -2.1625  3.6572  0.8229
   27DOPE   C28 3405   5.246   0.514   7.179 -0.0939  0.1058 -0.9146
   27DOPE   H8R 3406   5.139   0.490   7.198  0.3777 -0.8455  0.8639
   27DOPE   H8S 3407   5.282   0.422   7.128 -1.3243 -1.4588  0.9029
   27DOPE   C29 3408   5.265   0.636   7.097 -0.1292 -0.2162  0.3840
   27DOPE   H9R 3409   5.356   0.697   7.107 -1.2206  1.3986  0.8832
   27DOPE  C210 3410   5.169   0.684   7.011 -0.0548  0.3992 -0.3311
   27DOPE  H10R 3411   5.187   0.769   6.943  0.3656 -0.5415 -1.4313
   27DOPE  C211 3412   5.026   0.633   7.004 -0.3069 -0.1699  0.9530
   27DOPE  H11R 3413   4.958   0.682   7.078 -2.2167 -1.6112  0.2384
   27DOPE  H11S 3414   5.011   0.526   7.029 -0.6490  0.0272  1.6350
   27DOPE  C212 3415   4.957   0.665   6.864  0.3079  0.1030 -0.7629
   27DOPE  H12R 3416   4.955   0.776   6.862 -1.5789  0.2819  2.5641
   27DOPE  H12S 3417   4.852   0.634   6.881  0.1353  1.3940  0.8693
   27DOPE  C213 3418   5.017   0.605   6.737  0.3310 -0.6378 -0.7029
   27DOPE  H13R 3419   5.120   0.646   6.745  0.1368 -0.4579  4.2947
   27DOPE  H13S 3420   4.961   0.642   6.649 -1.5690 -3.0871 -0.6488
   27DOPE  C214 3421   5.018   0.452   6.734 -1.4491  0.2701  0.8922
   27DOPE  H14R 3422   4.929   0.412   6.679 -1.4710  1.9987 -0.4107
   27DOPE  H14S 3423   5.019   0.399   6.831  1.0242  0.2909  0.9204
   27DOPE  C215 3424   5.146   0.387   6.667  0.0535 -0.3291  0.4449
   27DOPE  H15R 3425   5.223   0.455   6.708 -1.9408  1.8756  0.7954
   27DOPE  H15S 3426   5.156   0.414   6.559 -0.1224  3.5084  1.2489
   27DOPE  C216 3427   5.157   0.234   6.701  0.0639 -0.1322  0.7033
   27DOPE  H16R 3428   5.056   0.191   6.686 -0.0690 -1.0187  3.5811
   27DOPE  H16S 3429   5.182   0.227   6.809  1.9712  3.6551  0.6649
   27DOPE  C217 3430   5.269   0.166   6.627  0.4217  0.7493 -0.3684
   27DOPE  H17R 3431   5.367   0.195   6.670  0.2866  0.7915 -0.0872
   27DOPE  H17S 3432   5.268   0.188   6.518  1.3522 -0.1478 -0.5726
   27DOPE  C218 3433   5.250   0.010   6.639  0.2508 -0.0387 -0.3969
   27DOPE  H18R 3434   5.238  -0.005   6.749  2.0509  0.5052 -0.0890
   27DOPE  H18S 3435   5.332  -0.058   6.605  0.2253 -0.0425 -0.4518
   27DOPE  H18T 3436   5.156  -0.018   6.587 -2.3912  0.9346  3.4250
   27DOPE   C33 3437   4.960   0.259   7.682 -0.3996  0.8238 -0.1950
   27DOPE   H3X 3438   4.883   0.340   7.681  0.6893  1.8868 -0.6730
   27DOPE   H3Y 3439   4.908   0.167   7.715 -3.0055  1.7659 -1.3267
   27DOPE   C34 3440   5.014   0.226   7.541  0.4901 -0.1238  1.2133
   27DOPE   H4X 3441   5.099   0.293   7.519  1.9323 -1.9668  0.9384
   27DOPE   H4Y 3442   5.067   0.128   7.547 -1.2007 -1.3747 -2.0953
   27DOPE   C35 3443   4.907   0.218   7.422  0.1375  0.3492 -0.8788
   27DOPE   H5X 3444   4.819   0.286   7.433 -0.6555 -0.6945 -0.5470
   27DOPE   H5Y 3445   4.858   0.120   7.436  1.1357 -0.1170 -0.5642
   27DOPE   C36 3446   4.962   0.209   7.282  0.2635 -0.2438 -0.0570
   27DOPE   H6X 3447   5.054   0.149   7.262  1.1654  0.8572  0.6821
   27DOPE   H6Y 3448   5.003   0.309   7.255  2.5640 -1.2350 -0.5260
   27DOPE   C37 3449   4.867   0.155   7.176 -0.0736  0.2193  0.0926
   27DOPE   H7X 3450   4.842   0.049   7.198  2.9661 -0.5511  0.2854
   27DOPE   H7Y 3451   4.776   0.219   7.177 -1.5271 -1.7092 -1.2111
   27DOPE   C38 3452   4.923   0.152   7.027  0.1915  0.2902  0.6074
   27DOPE   H8X 3453   4.969   0.251   7.010  3.6928 -1.4538 -0.9079
   27DOPE   H8Y 3454   4.835   0.147   6.960  1.2558 -4.6725 -0.7817
   27DOPE   C39 3455   5.010   0.040   6.986 -0.1182 -0.0364  0.2359
   27DOPE   H9X 3456   5.114   0.059   7.014 -0.7126  0.3956  2.3351
   27DOPE  C310 3457   4.976  -0.062   6.910  0.4816 -0.5914  0.1200
   27DOPE  H10X 3458   5.052  -0.138   6.886  1.0424  0.4785 -1.7214
   27DOPE  C311 3459   4.842  -0.107   6.859 -0.5649 -0.8071 -0.3732
   27DOPE  H11X 3460   4.824  -0.215   6.878 -0.6994 -0.7814 -0.3506
   27DOPE  H11Y 3461   4.765  -0.043   6.909  1.2928  0.7626  0.5957
   27DOPE  C312 3462   4.828  -0.072   6.709  0.2929 -0.1065 -0.8576
   27DOPE  H12X 3463   4.925  -0.079   6.655  1.2367  0.2013  0.7220
   27DOPE  H12Y 3464   4.805   0.036   6.704 -0.5479 -0.2386 -0.1394
   27DOPE  C313 3465   4.734  -0.161   6.632 -0.3992  0.2923 -0.0649
   27DOPE  H13X 3466   4.763  -0.268   6.619 -0.2810  0.5147 -1.9765
   27DOPE  H13Y 3467   4.638  -0.176   6.685  0.0624 -0.9766  0.4605
   27DOPE  C314 3468   4.694  -0.104   6.494 -0.9918  0.3873  0.3293
   27DOPE  H14X 3469   4.759  -0.144   6.414 -2.2280 -2.2919  0.5639
   27DOPE  H14Y 3470   4.706   0.007   6.501  0.8701  0.3305 -1.2578
   27DOPE  C315 3471   4.546  -0.140   6.459 -0.1276  0.3412 -0.3555
   27DOPE  H15X 3472   4.469  -0.115   6.535 -2.3780 -2.6687 -1.4374
   27DOPE  H15Y 3473   4.541  -0.251   6.452 -1.6800  0.2407  1.4431
   27DOPE  C316 3474   4.507  -0.070   6.326  0.3925  0.2607 -0.0902
   27DOPE  H16X 3475   4.593  -0.090   6.258  1.3241 -1.8991  1.6131
   27DOPE  H16Y 3476   4.509   0.039   6.350 -2.7418  0.4904 -0.4343
   27DOPE  C317 3477   4.380  -0.113   6.258  0.0768 -0.1351  0.4492
   27DOPE  H17X 3478   4.365  -0.050   6.167  1.3336 -0.8506 -0.2877
   27DOPE  H17Y 3479   4.393  -0.215   6.216  2.4765  0.4374 -0.3934
   27DOPE  C318 3480   4.257  -0.086   6.340 -0.4663  0.0060 -0.8350
   27DOPE  H18X 3481   4.246   0.018   6.379 -0.4495 -0.5908  0.8847
   27DOPE  H18Y 3482   4.171  -0.106   6.274  1.4629  0.9707 -3.8332
   27DOPE  H18Z 3483   4.249  -0.153   6.429 -1.8860  0.2680 -0.7375
   28DOPE     N 3484   0.039   5.679   8.633  0.0429  0.0798 -0.1093
   28DOPE   HN1 3485  -0.062   5.658   8.645  0.2998 -0.1743  2.0800
   28DOPE   HN2 3486   0.092   5.591   8.617  0.9029  0.8725 -1.9333
   28DOPE   HN3 3487   0.069   5.726   8.721  0.3764  0.5787 -0.4795
   28DOPE   C12 3488   0.060   5.775   8.524 -0.1870  0.0313 -0.4601
   28DOPE  H12A 3489   0.133   5.741   8.447  0.9993  1.5209 -0.0353
   28DOPE  H12B 3490   0.092   5.868   8.576 -1.8220  0.9220 -0.9744
   28DOPE   C11 3491  -0.066   5.814   8.448  1.1066  0.6592  1.0266
   28DOPE  H11A 3492  -0.091   5.729   8.380 -1.0364  0.8853  1.4519
   28DOPE  H11B 3493  -0.047   5.911   8.397  0.0339  1.4144  2.0002
   28DOPE     P 3494  -0.298   5.896   8.508  0.1786 -0.1388 -0.5402
   28DOPE   O13 3495  -0.264   6.027   8.452 -0.0976  0.3064  0.9452
   28DOPE   O14 3496  -0.390   5.890   8.622 -0.4473 -0.2864  0.1687
   28DOPE   O11 3497  -0.364   5.807   8.391  0.2368  0.1646  0.0711
   28DOPE   O12 3498  -0.173   5.821   8.541  0.2715  0.0228  0.0156
   28DOPE    C1 3499  -0.479   5.860   8.324 -0.1049 -0.0484 -0.8611
   28DOPE    HA 3500  -0.510   5.965   8.343  1.9256  0.5056 -0.3941
   28DOPE    HB 3501  -0.559   5.791   8.358 -0.3306  1.7525  2.6367
   28DOPE    C2 3502  -0.457   5.855   8.174 -0.3002 -0.0786 -0.0625
   28DOPE    HS 3503  -0.439   5.747   8.159 -0.1777 -0.2620  1.2839
   28DOPE   O21 3504  -0.351   5.944   8.137 -0.0593  0.2056  0.1134
   28DOPE   C21 3505  -0.235   5.885   8.133 -0.4377  0.8731 -0.2134
   28DOPE   O22 3506  -0.215   5.766   8.141  0.5111  0.2647 -0.1180
   28DOPE   C22 3507  -0.127   5.977   8.114 -0.5040 -0.2825  0.7856
   28DOPE   H2R 3508  -0.028   5.930   8.095 -0.6587  0.3293 -1.9381
   28DOPE   H2S 3509  -0.119   6.031   8.211 -4.1488  2.3195 -0.1582
   28DOPE    C3 3510  -0.580   5.885   8.081  0.2273 -0.0109 -0.2584
   28DOPE    HX 3511  -0.608   5.991   8.100 -0.4022  0.1322 -1.8892
   28DOPE    HY 3512  -0.668   5.830   8.120  0.9507 -1.5427 -0.7329
   28DOPE   O31 3513  -0.556   5.875   7.941 -0.1383 -0.3705  0.1102
   28DOPE   C31 3514  -0.568   5.760   7.886  0.1340  0.1767 -0.2330
   28DOPE   O32 3515  -0.600   5.655   7.949  0.1618  0.4376 -0.3626
   28DOPE   C32 3516  -0.550   5.769   7.737 -0.1693 -0.0166  0.2838
   28DOPE   H2X 3517  -0.570   5.667   7.698  1.2286 -0.5214  0.8299
   28DOPE   H2Y 3518  -0.634   5.835   7.703  1.2918  1.9811  0.3957
   28DOPE   C23 3519  -0.160   6.072   7.993 -0.6381 -0.4791  0.2518
   28DOPE   H3R 3520  -0.229   6.153   8.024 -1.9610 -0.3627 -2.6190
   28DOPE   H3S 3521  -0.208   6.011   7.913 -0.5992  0.7900 -0.7852
   28DOPE   C24 3522  -0.028   6.129   7.933  0.7733  0.8104 -0.3750
   28DOPE   H4R 3523   0.030   6.045   7.890 -1.8029 -1.1351 -0.2694
   28DOPE   H4S 3524   0.030   6.165   8.021 -0.9227 -0.4238  1.3459
   28DOPE   C25 3525  -0.040   6.227   7.815  0.3130 -0.8798  0.4949
   28DOPE   H5R 3526   0.058   6.275   7.791 -1.1295  0.8943 -2.3368
   28DOPE   H5S 3527  -0.098   6.313   7.853 -0.0910 -1.6707  1.7306
   28DOPE   C26 3528  -0.096   6.160   7.691  0.3514  0.4134 -0.1574
   28DOPE   H6R 3529  -0.206   6.146   7.703  0.1885  2.1977  0.6400
   28DOPE   H6S 3530  -0.050   6.061   7.672 -3.6256 -1.3387 -1.9843
   28DOPE   C27 3531  -0.074   6.236   7.560  0.0264  0.0658  0.3659
   28DOPE   H7R 3532   0.031   6.272   7.552 -0.3856  1.1987 -0.1981
   28DOPE   H7S 3533  -0.143   6.323   7.549  0.2418  0.2371  0.3513
   28DOPE   C28 3534  -0.109   6.148   7.434 -0.3259 -0.1746 -0.2681
   28DOPE   H8R 3535  -0.216   6.122   7.446 -0.1624  0.0246  2.0424
   28DOPE   H8S 3536  -0.062   6.047   7.433 -2.7118 -1.4355  2.2887
   28DOPE   C29 3537  -0.079   6.227   7.306  0.6355 -0.0563  0.2420
   28DOPE   H9R 3538  -0.126   6.326   7.308 -1.2789 -0.8693 -1.4179
   28DOPE  C210 3539  -0.023   6.182   7.194  0.4212 -0.4782 -0.4590
   28DOPE  H10R 3540  -0.003   6.251   7.110  4.3311  0.0746  0.7214
   28DOPE  C211 3541   0.040   6.047   7.179 -0.0477 -0.4865 -0.4005
   28DOPE  H11R 3542  -0.037   5.991   7.123 -0.7269 -0.4081  0.4371
   28DOPE  H11S 3543   0.056   5.999   7.278 -1.9398 -0.0531  0.1586
   28DOPE  C212 3544   0.164   6.046   7.083  0.8259  0.2875 -0.4528
   28DOPE  H12R 3545   0.224   5.968   7.133 -0.8151 -0.2302  0.7875
   28DOPE  H12S 3546   0.207   6.149   7.088 -2.2316  1.6513  4.1179
   28DOPE  C213 3547   0.122   6.007   6.944 -0.0135 -0.7073  0.0333
   28DOPE  H13R 3548   0.055   6.088   6.906  1.0745  1.0020  1.5625
   28DOPE  H13S 3549   0.076   5.907   6.939  0.3107 -0.8022 -1.9693
   28DOPE  C214 3550   0.243   6.016   6.850 -0.0112 -0.2162 -0.2969
   28DOPE  H14R 3551   0.320   5.950   6.895  1.0618  1.4614  0.4587
   28DOPE  H14S 3552   0.298   6.113   6.859  0.7486 -0.8298  3.7465
   28DOPE  C215 3553   0.208   5.984   6.703  0.2831  0.3861  0.6071
   28DOPE  H15R 3554   0.201   6.066   6.629 -0.5985 -1.6569 -1.7033
   28DOPE  H15S 3555   0.103   5.950   6.697  0.8241 -1.1581 -0.9479
   28DOPE  C216 3556   0.299   5.876   6.640  0.0380 -0.3237  0.7352
   28DOPE  H16R 3557   0.284   5.781   6.697 -0.4549 -0.9146 -0.3645
   28DOPE  H16S 3558   0.402   5.918   6.646 -0.4713  1.1229 -0.1738
   28DOPE  C217 3559   0.278   5.856   6.482  0.0328 -0.2345 -0.6870
   28DOPE  H17R 3560   0.174   5.857   6.443  0.4391  2.4456 -1.9441
   28DOPE  H17S 3561   0.331   5.761   6.462  2.3551  0.0109  3.1920
   28DOPE  C218 3562   0.338   5.967   6.389  0.0899  0.2275 -0.7412
   28DOPE  H18R 3563   0.269   6.054   6.396 -0.1343  0.1083 -1.3913
   28DOPE  H18S 3564   0.324   5.925   6.287 -1.2227  0.4651 -0.6720
   28DOPE  H18T 3565   0.442   5.999   6.414 -0.7982  1.5652  1.6096
   28DOPE   C33 3566  -0.415   5.836   7.697 -0.0914  0.1327 -0.0052
   28DOPE   H3X 3567  -0.345   5.832   7.783  0.1468 -2.8951 -0.2196
   28DOPE   H3Y 3568  -0.432   5.944   7.678  1.4777  0.7937  1.9814
   28DOPE   C34 3569  -0.355   5.787   7.562 -0.0925 -0.1759 -0.4436
   28DOPE   H4X 3570  -0.272   5.856   7.534  1.1187 -1.4872 -0.1867
   28DOPE   H4Y 3571  -0.313   5.684   7.563 -0.9085 -0.5153 -0.7618
   28DOPE   C35 3572  -0.457   5.773   7.450  0.2785 -1.2195 -0.0843
   28DOPE   H5X 3573  -0.492   5.872   7.413  3.6813  0.6805  1.2345
   28DOPE   H5Y 3574  -0.538   5.709   7.491 -1.9996  0.3648 -1.8492
   28DOPE   C36 3575  -0.401   5.696   7.333  0.1248 -0.0382  0.2497
   28DOPE   H6X 3576  -0.387   5.590   7.363  0.2482 -0.5087 -1.3672
   28DOPE   H6Y 3577  -0.303   5.740   7.303  0.6548 -0.8230  0.8173
   28DOPE   C37 3578  -0.504   5.706   7.225  0.3584  0.6993  0.5207
   28DOPE   H7X 3579  -0.578   5.629   7.255  0.8793  0.1294  0.3712
   28DOPE   H7Y 3580  -0.552   5.806   7.226 -0.6296  0.2404  0.2745
   28DOPE   C38 3581  -0.447   5.665   7.084  0.6526 -0.2912 -0.1861
   28DOPE   H8X 3582  -0.529   5.656   7.010 -0.3636  1.3904  0.6689
   28DOPE   H8Y 3583  -0.399   5.568   7.108  0.3595  0.2060  2.6856
   28DOPE   C39 3584  -0.352   5.773   7.036 -0.0149 -1.2892  0.7891
   28DOPE   H9X 3585  -0.402   5.867   7.009  1.3440 -0.8738 -0.4663
   28DOPE  C310 3586  -0.217   5.773   7.030 -0.4814  0.6228  0.2820
   28DOPE  H10X 3587  -0.158   5.842   6.968 -1.4087  0.4732 -0.7947
   28DOPE  C311 3588  -0.131   5.657   7.070 -0.3218 -0.0285  0.7075
   28DOPE  H11X 3589  -0.183   5.564   7.102 -1.0712  0.1324 -0.0165
   28DOPE  H11Y 3590  -0.069   5.626   6.983  1.3419  0.0836  1.7965
   28DOPE  C312 3591  -0.030   5.698   7.179 -0.0905 -0.6342 -0.8909
   28DOPE  H12X 3592  -0.097   5.707   7.267 -0.2338 -1.3656 -0.9186
   28DOPE  H12Y 3593   0.024   5.792   7.156  0.5180 -1.3783 -2.6847
   28DOPE  C313 3594   0.080   5.590   7.207  0.0867  0.0243 -0.3675
   28DOPE  H13X 3595   0.030   5.491   7.218  0.1157  0.1542  1.2263
   28DOPE  H13Y 3596   0.162   5.582   7.134  2.1985 -0.1163  1.8823
   28DOPE  C314 3597   0.160   5.628   7.333 -0.3368 -0.0141  0.2446
   28DOPE  H14X 3598   0.204   5.730   7.339  0.4642 -0.4312  3.2254
   28DOPE  H14Y 3599   0.233   5.546   7.353 -0.3451  0.0173  0.4047
   28DOPE  C315 3600   0.078   5.621   7.460  0.2555  0.8552 -0.6657
   28DOPE  H15X 3601   0.019   5.527   7.464  2.2047 -0.4346 -0.6756
   28DOPE  H15Y 3602   0.013   5.709   7.477  0.3353  0.6835  0.6680
   28DOPE  C316 3603   0.171   5.612   7.584  0.3234  0.1535 -0.2101
   28DOPE  H16X 3604   0.221   5.711   7.581 -3.3168  2.1565 -0.0780
   28DOPE  H16Y 3605   0.246   5.530   7.575 -0.6198 -0.9837  1.6160
   28DOPE  C317 3606   0.093   5.586   7.717  0.0301 -0.2151  0.1347
   28DOPE  H17X 3607   0.040   5.489   7.714 -0.3351 -0.0514  1.0005
   28DOPE  H17Y 3608   0.175   5.584   7.792  1.9304  1.3900 -1.7490
   28DOPE  C318 3609  -0.008   5.694   7.747 -0.7366  0.2446 -0.0039
   28DOPE  H18X 3610   0.044   5.792   7.745  3.3417 -1.7590 -0.3996
   28DOPE  H18Y 3611  -0.091   5.691   7.673 -1.1301  0.9300  0.3884
   28DOPE  H18Z 3612  -0.052   5.672   7.847  1.4479  0.1704  0.9908
   29DOPE     N 3613   0.231   6.817   9.109  1.0391 -0.2513 -0.8801
   29DOPE   HN1 3614   0.272   6.730   9.149 -0.0868 -1.0465 -1.4273
   29DOPE   HN2 3615   0.274   6.829   9.016  0.1567 -0.8152 -1.3745
   29DOPE   HN3 3616   0.241   6.904   9.166 -1.2413 -1.3469  1.4294
   29DOPE   C12 3617   0.085   6.787   9.081 -0.0766 -0.4911 -0.0198
   29DOPE  H12A 3618   0.077   6.845   8.987  1.4804  0.6812  0.5327
   29DOPE  H12B 3619   0.015   6.832   9.154 -3.4794 -2.1803 -2.0039
   29DOPE   C11 3620   0.067   6.638   9.064  0.6429 -0.5967 -0.4124
   29DOPE  H11A 3621  -0.037   6.610   9.040  0.2732  0.5967 -0.2754
   29DOPE  H11B 3622   0.093   6.580   9.155  1.4060  0.6408  0.1787
   29DOPE     P 3623   0.178   6.457   8.915 -0.0094 -0.4975  0.0735
   29DOPE   O13 3624   0.059   6.372   8.943  0.6273  0.3239  0.2919
   29DOPE   O14 3625   0.310   6.406   8.949  0.2095 -0.1271  0.3114
   29DOPE   O11 3626   0.173   6.475   8.759 -0.2890 -0.3410  0.4265
   29DOPE   O12 3627   0.154   6.604   8.959 -0.2109  0.3635  0.3129
   29DOPE    C1 3628   0.046   6.456   8.687 -0.0948 -0.4897  0.1735
   29DOPE    HA 3629  -0.041   6.502   8.739 -0.0972  0.5482 -0.6995
   29DOPE    HB 3630   0.018   6.351   8.667  0.3899 -0.4079 -1.0294
   29DOPE    C2 3631   0.060   6.520   8.541 -0.6351  0.0934  0.0614
   29DOPE    HS 3632   0.159   6.488   8.502 -1.5056 -1.7126 -0.8224
   29DOPE   O21 3633   0.040   6.660   8.557 -0.2741 -0.3346  0.1956
   29DOPE   C21 3634   0.157   6.730   8.579 -0.2039  0.6710  0.3297
   29DOPE   O22 3635   0.267   6.682   8.586  0.3373  0.0631  0.2857
   29DOPE   C22 3636   0.123   6.881   8.589  0.0843  0.2489  0.0387
   29DOPE   H2R 3637   0.186   6.923   8.670  1.8146  0.4772 -1.3641
   29DOPE   H2S 3638   0.020   6.888   8.631  0.4781  1.9585  0.7950
   29DOPE    C3 3639  -0.057   6.454   8.456  0.0827  0.1592  0.2110
   29DOPE    HX 3640  -0.142   6.442   8.526 -0.8648  0.7659 -0.7839
   29DOPE    HY 3641  -0.020   6.354   8.425 -0.6118  0.2973 -1.1328
   29DOPE   O31 3642  -0.093   6.538   8.338 -0.5762 -0.0607 -0.1930
   29DOPE   C31 3643  -0.219   6.529   8.305 -0.1424 -0.2486  0.0519
   29DOPE   O32 3644  -0.305   6.451   8.344 -0.7273 -0.4139  0.1659
   29DOPE   C32 3645  -0.231   6.625   8.188  0.6582  0.4179 -0.8253
   29DOPE   H2X 3646  -0.336   6.608   8.158  0.3141  0.4856  0.2749
   29DOPE   H2Y 3647  -0.216   6.730   8.220 -2.7366  0.5165  0.9066
   29DOPE   C23 3648   0.128   6.957   8.453  0.1861 -0.3118  0.1999
   29DOPE   H3R 3649   0.229   6.953   8.408  0.8353  1.6640  1.3178
   29DOPE   H3S 3650   0.109   7.064   8.479 -0.8268 -0.0085 -1.5645
   29DOPE   C24 3651   0.019   6.918   8.352  0.6470 -0.3132  0.2390
   29DOPE   H4R 3652  -0.080   6.943   8.396 -0.4276 -1.3073 -1.5087
   29DOPE   H4S 3653   0.022   6.808   8.335  0.3397 -0.5591  1.5983
   29DOPE   C25 3654   0.035   6.999   8.225  0.0163  0.1031 -0.4606
   29DOPE   H5R 3655   0.025   7.105   8.259 -2.7645 -0.0941 -0.3949
   29DOPE   H5S 3656  -0.059   6.991   8.165  0.4340  0.7271 -1.2151
   29DOPE   C26 3657   0.154   6.976   8.132 -0.5452  0.5425 -0.5418
   29DOPE   H6R 3658   0.160   6.872   8.095 -0.4502  0.5897 -0.6615
   29DOPE   H6S 3659   0.244   7.013   8.186 -0.3132  0.0974 -0.6184
   29DOPE   C27 3660   0.159   7.070   8.014 -0.2402  0.1803  0.1885
   29DOPE   H7R 3661   0.153   7.178   8.040 -3.0007 -0.4768  2.8416
   29DOPE   H7S 3662   0.071   7.063   7.947  0.1771  0.3048 -0.3833
   29DOPE   C28 3663   0.286   7.065   7.927  0.3301 -0.5489 -0.4031
   29DOPE   H8R 3664   0.369   7.089   7.997  0.4453 -2.6849  0.2772
   29DOPE   H8S 3665   0.279   7.155   7.863 -3.4484 -0.7227 -0.4779
   29DOPE   C29 3666   0.306   6.931   7.863  0.1504 -0.2577  0.2439
   29DOPE   H9R 3667   0.343   6.858   7.935  2.6302  0.7143  0.0400
   29DOPE  C210 3668   0.277   6.900   7.731  0.1848 -0.2674  0.1143
   29DOPE  H10R 3669   0.280   6.799   7.688  0.6242  0.0185 -0.5365
   29DOPE  C211 3670   0.219   7.007   7.641 -0.3204  0.6953  0.4506
   29DOPE  H11R 3671   0.258   7.109   7.657 -0.3322  0.6843  0.5544
   29DOPE  H11S 3672   0.109   7.021   7.651 -0.1203  3.3300 -0.4224
   29DOPE  C212 3673   0.246   6.970   7.492  0.2176 -0.0537  0.4186
   29DOPE  H12R 3674   0.206   6.868   7.473 -0.1411  0.1385  0.1337
   29DOPE  H12S 3675   0.355   6.956   7.479 -0.0163 -1.8807  0.1063
   29DOPE  C213 3676   0.182   7.066   7.396  0.1764 -0.4132 -0.4365
   29DOPE  H13R 3677   0.245   7.157   7.390  0.5950 -0.7223 -0.7823
   29DOPE  H13S 3678   0.082   7.097   7.432  1.1642 -0.3672  2.5553
   29DOPE  C214 3679   0.189   7.013   7.247  0.4235 -0.2201  0.3412
   29DOPE  H14R 3680   0.116   6.930   7.237 -0.0226  0.2919 -1.0072
   29DOPE  H14S 3681   0.292   6.971   7.237  0.7583  0.9812 -2.2928
   29DOPE  C215 3682   0.170   7.119   7.137  0.4309 -0.0627 -0.0372
   29DOPE  H15R 3683   0.228   7.211   7.156 -1.2206  0.7702  1.3332
   29DOPE  H15S 3684   0.064   7.152   7.145  0.5312  0.0652  0.9401
   29DOPE  C216 3685   0.199   7.063   7.001  0.3319  0.1209  0.9325
   29DOPE  H16R 3686   0.302   7.021   7.009  0.6430  0.8697  0.9084
   29DOPE  H16S 3687   0.200   7.144   6.926  2.3605 -0.1476  0.5979
   29DOPE  C217 3688   0.098   6.955   6.956  0.4852  0.9067 -0.2140
   29DOPE  H17R 3689   0.003   6.970   7.012  1.0500  0.8784  0.7737
   29DOPE  H17S 3690   0.148   6.859   6.983  1.3206  1.2110 -0.6354
   29DOPE  C218 3691   0.062   6.963   6.806 -0.0127  0.1858  0.0822
   29DOPE  H18R 3692   0.003   7.053   6.782  0.3349 -0.0638 -1.8465
   29DOPE  H18S 3693   0.004   6.873   6.775 -0.8451  0.7960 -0.1597
   29DOPE  H18T 3694   0.151   6.975   6.741  0.0897 -1.5935 -0.1599
   29DOPE   C33 3695  -0.129   6.592   8.072 -0.1442 -0.4458 -0.0446
   29DOPE   H3X 3696  -0.127   6.481   8.065 -2.0830 -0.5413  0.2761
   29DOPE   H3Y 3697  -0.025   6.621   8.098 -0.2918  2.0283 -1.9019
   29DOPE   C34 3698  -0.177   6.647   7.936 -0.6399 -0.0580 -0.3220
   29DOPE   H4X 3699  -0.260   6.580   7.905  0.2590 -0.5846 -1.6885
   29DOPE   H4Y 3700  -0.223   6.748   7.931 -1.5378 -0.2457  2.3522
   29DOPE   C35 3701  -0.069   6.641   7.833 -0.8505 -0.2302  0.1683
   29DOPE   H5X 3702  -0.035   6.537   7.813  0.7590  0.5910 -1.7502
   29DOPE   H5Y 3703   0.020   6.698   7.867  0.1666 -2.3076  1.1349
   29DOPE   C36 3704  -0.121   6.686   7.697 -0.5387  0.6333  0.3012
   29DOPE   H6X 3705  -0.143   6.794   7.704  0.3207  0.8770 -0.4778
   29DOPE   H6Y 3706  -0.212   6.629   7.667  0.3522  0.3756 -2.1623
   29DOPE   C37 3707  -0.022   6.654   7.584  0.5987  0.1831 -0.0065
   29DOPE   H7X 3708   0.067   6.720   7.600  0.9894 -0.3766  0.1494
   29DOPE   H7Y 3709   0.020   6.551   7.587  1.3258  0.3489 -2.2642
   29DOPE   C38 3710  -0.067   6.684   7.438  0.1704 -0.7779 -0.0007
   29DOPE   H8X 3711   0.024   6.690   7.375 -0.2861 -0.2262 -0.6342
   29DOPE   H8Y 3712  -0.108   6.787   7.442 -1.6077 -1.2976 -2.2743
   29DOPE   C39 3713  -0.178   6.597   7.376  0.6764 -0.0997 -0.3952
   29DOPE   H9X 3714  -0.234   6.526   7.437 -1.9643  0.2587 -2.2317
   29DOPE  C310 3715  -0.208   6.605   7.244 -0.1697  0.2688 -0.2948
   29DOPE  H10X 3716  -0.298   6.553   7.209  2.0456 -2.2476 -2.8202
   29DOPE  C311 3717  -0.135   6.685   7.136 -0.5207 -0.1730 -0.0280
   29DOPE  H11X 3718  -0.133   6.791   7.170 -2.2880 -0.6613  1.7869
   29DOPE  H11Y 3719  -0.031   6.650   7.119 -0.0713  1.1694 -0.1696
   29DOPE  C312 3720  -0.207   6.676   6.997  0.5170  1.1649  0.4239
   29DOPE  H12X 3721  -0.159   6.752   6.932 -0.7646 -0.6639 -2.8651
   29DOPE  H12Y 3722  -0.315   6.702   7.000  0.2693  0.2978 -0.2892
   29DOPE  C313 3723  -0.194   6.538   6.928 -0.3082 -0.4652 -0.2134
   29DOPE  H13X 3724  -0.091   6.504   6.903  0.2505  0.1649  1.1400
   29DOPE  H13Y 3725  -0.241   6.466   6.998  0.3019  0.1394  0.8534
   29DOPE  C314 3726  -0.285   6.557   6.800  0.2769  0.1077  0.4114
   29DOPE  H14X 3727  -0.386   6.594   6.826 -0.5195 -0.9167 -1.1066
   29DOPE  H14Y 3728  -0.303   6.461   6.747  0.1708  1.9913 -3.2620
   29DOPE  C315 3729  -0.218   6.648   6.693  0.2943  0.5784  0.1778
   29DOPE  H15X 3730  -0.114   6.613   6.676  0.3096  0.2570  0.8821
   29DOPE  H15Y 3731  -0.217   6.756   6.718  0.2265  0.4722  0.6444
   29DOPE  C316 3732  -0.289   6.653   6.553  0.3216  0.4068  0.0326
   29DOPE  H16X 3733  -0.237   6.722   6.484  0.1499  0.4780 -0.0255
   29DOPE  H16Y 3734  -0.390   6.696   6.569 -0.1154 -0.8656  0.8692
   29DOPE  C317 3735  -0.299   6.521   6.483 -0.4882  0.0074 -0.0571
   29DOPE  H17X 3736  -0.200   6.471   6.489 -0.8889 -0.7673  0.2201
   29DOPE  H17Y 3737  -0.378   6.450   6.515  1.5714 -1.4939  2.0314
   29DOPE  C318 3738  -0.326   6.547   6.327  0.2137 -0.5521 -0.2915
   29DOPE  H18X 3739  -0.352   6.443   6.296 -0.3006 -0.4347 -0.2603
   29DOPE  H18Y 3740  -0.408   6.618   6.305  0.6436  0.1256  0.2473
   29DOPE  H18Z 3741  -0.228   6.585   6.291  1.1869 -0.8663  1.8666
   30DOPE     N 3742   0.542   5.617   8.901  0.2656  0.5120 -0.2631
   30DOPE   HN1 3743   0.460   5.573   8.852 -1.1628  0.4571  2.0342
   30DOPE   HN2 3744   0.610   5.543   8.927 -1.3582 -0.6576  0.8294
   30DOPE   HN3 3745   0.500   5.659   8.986 -0.6409  0.2031 -0.5420
   30DOPE   C12 3746   0.592   5.731   8.820 -0.7224  0.2834 -0.0027
   30DOPE  H12A 3747   0.660   5.693   8.741 -0.2727 -0.8007  0.8730
   30DOPE  H12B 3748   0.652   5.802   8.881  1.1430  0.7102 -2.2050
   30DOPE   C11 3749   0.474   5.814   8.763  0.2897  0.2415  0.6164
   30DOPE  H11A 3750   0.412   5.749   8.698 -0.1190 -0.3547  1.5722
   30DOPE  H11B 3751   0.527   5.894   8.707  1.8060  0.3096  2.0616
   30DOPE     P 3752   0.256   5.928   8.842 -0.1105  0.3490  0.5024
   30DOPE   O13 3753   0.223   6.028   8.940 -0.2015  0.3514 -0.5312
   30DOPE   O14 3754   0.165   5.811   8.837  0.1467  0.0568  0.0794
   30DOPE   O11 3755   0.265   5.991   8.695 -0.2704 -0.3848  0.4747
   30DOPE   O12 3756   0.407   5.872   8.878 -0.4788 -0.7516  0.1753
   30DOPE    C1 3757   0.334   6.118   8.679  0.4636  0.4250 -0.0454
   30DOPE    HA 3758   0.444   6.113   8.695  0.2567  0.1905  1.4627
   30DOPE    HB 3759   0.293   6.197   8.746  0.8223  0.4774  0.1164
   30DOPE    C2 3760   0.311   6.178   8.543 -0.4294  0.2109 -0.0459
   30DOPE    HS 3761   0.202   6.197   8.528 -0.2111  3.2238  1.3999
   30DOPE   O21 3762   0.369   6.083   8.450  0.0494 -0.1944 -0.0091
   30DOPE   C21 3763   0.291   6.029   8.362 -0.0961  0.0072  0.5168
   30DOPE   O22 3764   0.171   6.042   8.355  0.6461  0.2635 -0.1251
   30DOPE   C22 3765   0.376   5.939   8.267  0.0016 -0.0830  0.3030
   30DOPE   H2R 3766   0.359   5.835   8.303 -0.8692  0.0306  0.2521
   30DOPE   H2S 3767   0.482   5.970   8.273  0.7653 -2.6660  1.5024
   30DOPE    C3 3768   0.379   6.318   8.519 -0.9213  0.7309  0.6080
   30DOPE    HX 3769   0.485   6.309   8.551 -1.1520  1.9482  1.8068
   30DOPE    HY 3770   0.339   6.387   8.596 -1.1111  0.2731  0.9259
   30DOPE   O31 3771   0.355   6.364   8.386  0.2742 -0.1207  0.6414
   30DOPE   C31 3772   0.470   6.355   8.305 -0.2688 -0.0855 -0.5133
   30DOPE   O32 3773   0.578   6.323   8.353 -0.2667  0.3578  0.1000
   30DOPE   C32 3774   0.436   6.395   8.159  0.3276 -0.4874 -0.0859
   30DOPE   H2X 3775   0.349   6.332   8.130 -1.2387  0.7096  1.7790
   30DOPE   H2Y 3776   0.397   6.499   8.166  1.6909  0.0491 -0.3090
   30DOPE   C23 3777   0.310   5.948   8.128 -0.6345 -0.8068  0.8480
   30DOPE   H3R 3778   0.295   6.050   8.086  0.6742 -1.3863 -1.1881
   30DOPE   H3S 3779   0.205   5.912   8.134 -1.9680  2.4149 -0.8095
   30DOPE   C24 3780   0.376   5.858   8.022  0.7248  0.2689  0.5805
   30DOPE   H4R 3781   0.390   5.756   8.063 -0.3825 -0.7995 -1.5410
   30DOPE   H4S 3782   0.479   5.889   7.992  0.6552 -1.4950 -1.7452
   30DOPE   C25 3783   0.286   5.843   7.895 -0.9086  1.0122 -0.1264
   30DOPE   H5R 3784   0.184   5.821   7.934 -0.8933  2.1890  0.6356
   30DOPE   H5S 3785   0.302   5.751   7.836 -0.5257  1.2322 -0.3749
   30DOPE   C26 3786   0.297   5.958   7.798 -1.3115 -0.6302  0.2082
   30DOPE   H6R 3787   0.253   6.051   7.841 -0.5209  0.5262 -1.4023
   30DOPE   H6S 3788   0.238   5.935   7.707 -1.3684  3.0276 -0.8288
   30DOPE   C27 3789   0.439   5.990   7.746 -0.5970 -0.5431  0.6394
   30DOPE   H7R 3790   0.484   5.899   7.700  1.2863  0.2965  0.7578
   30DOPE   H7S 3791   0.501   6.015   7.835  1.1349  0.6008 -0.8086
   30DOPE   C28 3792   0.448   6.120   7.653  1.0790  0.5399  0.1528
   30DOPE   H8R 3793   0.557   6.136   7.636  1.3595 -0.4248  0.9560
   30DOPE   H8S 3794   0.415   6.208   7.712 -2.4972 -1.2801  1.1318
   30DOPE   C29 3795   0.375   6.105   7.522  1.0328 -1.1313  0.0216
   30DOPE   H9R 3796   0.271   6.078   7.546  1.6728 -1.5737  2.5075
   30DOPE  C210 3797   0.418   6.111   7.397  0.2410 -0.4954  0.6707
   30DOPE  H10R 3798   0.345   6.079   7.321 -0.5776 -1.9480  2.0144
   30DOPE  C211 3799   0.564   6.137   7.364 -0.1751  0.1784  0.2210
   30DOPE  H11R 3800   0.619   6.043   7.385 -0.3758 -0.3653 -1.6059
   30DOPE  H11S 3801   0.606   6.215   7.432 -2.3692 -0.1078  2.0256
   30DOPE  C212 3802   0.590   6.170   7.212 -0.3082 -0.3270 -0.5477
   30DOPE  H12R 3803   0.541   6.267   7.193 -0.9306 -0.3073  0.9804
   30DOPE  H12S 3804   0.545   6.096   7.143 -0.3910 -0.8207  0.0249
   30DOPE  C213 3805   0.743   6.192   7.178 -0.3127 -0.2872  0.1330
   30DOPE  H13R 3806   0.792   6.093   7.169  0.9451  0.1599  1.5804
   30DOPE  H13S 3807   0.785   6.243   7.267  1.1981 -0.2667 -0.5678
   30DOPE  C214 3808   0.773   6.295   7.067  0.3826 -0.2544 -0.2421
   30DOPE  H14R 3809   0.881   6.322   7.067  0.5256 -0.7981 -1.0667
   30DOPE  H14S 3810   0.726   6.390   7.100 -4.0820 -2.5720  0.8431
   30DOPE  C215 3811   0.714   6.253   6.936  0.4273  0.1668  0.6793
   30DOPE  H15R 3812   0.739   6.332   6.863 -0.5073  0.7005  0.9177
   30DOPE  H15S 3813   0.603   6.246   6.937  0.2149  1.5476 -2.5535
   30DOPE  C216 3814   0.777   6.125   6.877  0.4976 -0.0408  0.1258
   30DOPE  H16R 3815   0.735   6.029   6.913 -0.7106 -0.1690 -1.5267
   30DOPE  H16S 3816   0.888   6.123   6.883  0.4126 -0.3758  3.3111
   30DOPE  C217 3817   0.740   6.116   6.728 -0.2382  0.5181  0.1377
   30DOPE  H17R 3818   0.809   6.186   6.677 -0.5051  0.2259 -0.6350
   30DOPE  H17S 3819   0.637   6.146   6.698  0.6078  1.6369 -1.8546
   30DOPE  C218 3820   0.756   5.972   6.682  0.4393  0.2418  0.3118
   30DOPE  H18R 3821   0.862   5.944   6.694 -0.0704 -1.6235  0.7361
   30DOPE  H18S 3822   0.726   5.946   6.578 -1.6660 -1.4676  1.2715
   30DOPE  H18T 3823   0.690   5.904   6.740  0.4627 -2.2477 -2.3411
   30DOPE   C33 3824   0.558   6.383   8.070 -0.4947 -0.2994 -0.0359
   30DOPE   H3X 3825   0.585   6.276   8.058  0.4763 -0.4531  2.7428
   30DOPE   H3Y 3826   0.638   6.424   8.135 -0.5533  0.9871 -0.7364
   30DOPE   C34 3827   0.559   6.461   7.936 -0.4588 -0.4831 -0.4852
   30DOPE   H4X 3828   0.582   6.563   7.974 -1.8208 -0.8314  1.4173
   30DOPE   H4Y 3829   0.638   6.432   7.864  0.4475  0.9378 -0.1109
   30DOPE   C35 3830   0.429   6.453   7.872 -0.0059 -0.9316  0.3922
   30DOPE   H5X 3831   0.356   6.500   7.941  0.8441  0.5290  0.3498
   30DOPE   H5Y 3832   0.407   6.347   7.847  0.4162 -1.2450  1.3025
   30DOPE   C36 3833   0.434   6.533   7.739 -0.0298 -0.1827 -0.2450
   30DOPE   H6X 3834   0.520   6.494   7.680  1.1723  1.6845  0.1708
   30DOPE   H6Y 3835   0.450   6.639   7.769  1.2754 -0.4965  0.2353
   30DOPE   C37 3836   0.318   6.498   7.641 -0.4059  0.6085  0.8449
   30DOPE   H7X 3837   0.338   6.389   7.629  3.4510  1.2945 -0.1191
   30DOPE   H7Y 3838   0.213   6.515   7.676 -2.1289 -1.5058 -2.7149
   30DOPE   C38 3839   0.343   6.565   7.495  0.0803 -0.1745 -0.4579
   30DOPE   H8X 3840   0.453   6.574   7.476 -0.2639  1.1142 -2.0619
   30DOPE   H8Y 3841   0.303   6.668   7.507  2.0837  0.6475 -0.3813
   30DOPE   C39 3842   0.263   6.483   7.395  0.0382  0.5121 -0.4578
   30DOPE   H9X 3843   0.192   6.408   7.432  0.9546  0.1217  0.5776
   30DOPE  C310 3844   0.268   6.509   7.261 -0.1716  0.5869 -0.3653
   30DOPE  H10X 3845   0.214   6.449   7.186  1.1820  0.9608 -1.7003
   30DOPE  C311 3846   0.342   6.625   7.194 -0.1436 -0.5827 -0.3212
   30DOPE  H11X 3847   0.275   6.698   7.144  0.2441  0.3921  0.5568
   30DOPE  H11Y 3848   0.400   6.681   7.271 -2.4372 -0.1759  1.1985
   30DOPE  C312 3849   0.432   6.583   7.076  0.1887 -0.7632 -0.3540
   30DOPE  H12X 3850   0.508   6.509   7.109  1.5582  0.7290 -0.0241
   30DOPE  H12Y 3851   0.498   6.661   7.032  4.4375 -3.2265  1.0319
   30DOPE  C313 3852   0.351   6.524   6.959 -0.2556 -0.1682 -0.2431
   30DOPE  H13X 3853   0.313   6.424   6.989  0.7781 -0.4461  0.1836
   30DOPE  H13Y 3854   0.270   6.595   6.933 -0.5716  0.5114  2.3632
   30DOPE  C314 3855   0.437   6.512   6.834 -0.3800  0.2981  0.6892
   30DOPE  H14X 3856   0.535   6.468   6.863  0.1469 -0.2867 -1.7347
   30DOPE  H14Y 3857   0.465   6.609   6.788  1.9998 -1.1504 -1.1421
   30DOPE  C315 3858   0.369   6.446   6.717  0.2342  0.1201 -0.3224
   30DOPE  H15X 3859   0.259   6.458   6.706 -0.2489 -2.7779  0.3427
   30DOPE  H15Y 3860   0.384   6.339   6.745  0.1627  0.6198  1.7420
   30DOPE  C316 3861   0.436   6.462   6.575 -0.4106  0.7293 -0.8044
   30DOPE  H16X 3862   0.542   6.445   6.604 -1.6315 -2.2843  2.7744
   30DOPE  H16Y 3863   0.420   6.565   6.536 -1.0605  0.9858  0.1048
   30DOPE  C317 3864   0.391   6.362   6.468  0.0088 -0.5073  0.2896
   30DOPE  H17X 3865   0.398   6.257   6.504 -0.1419 -0.7241 -0.3054
   30DOPE  H17Y 3866   0.284   6.369   6.437  0.1075 -0.7795 -0.1093
   30DOPE  C318 3867   0.479   6.382   6.351 -0.3691 -0.8267 -0.3377
   30DOPE  H18X 3868   0.440   6.350   6.252  1.6084 -0.0999 -1.4153
   30DOPE  H18Y 3869   0.496   6.489   6.325 -0.4348 -0.9673 -0.9717
   30DOPE  H18Z 3870   0.579   6.339   6.373 -0.7752 -0.9797  1.2735
   31DOPE     N 3871   1.483   3.374   3.628  0.0244  0.0880 -0.1265
   31DOPE   HN1 3872   1.397   3.403   3.679 -1.7631  1.4407 -3.6156
   31DOPE   HN2 3873   1.478   3.442   3.550 -1.7568  1.0396  0.7504
   31DOPE   HN3 3874   1.460   3.277   3.598 -0.6072 -0.5229  2.1637
   31DOPE   C12 3875   1.615   3.380   3.705 -0.1233  0.3145  0.3320
   31DOPE  H12A 3876   1.646   3.481   3.739 -0.7292  1.1036 -1.3279
   31DOPE  H12B 3877   1.698   3.349   3.638  1.1881 -1.0261  2.4515
   31DOPE   C11 3878   1.609   3.286   3.829 -0.3074 -0.6817 -0.2058
   31DOPE  H11A 3879   1.538   3.344   3.892 -1.4321  0.9938 -2.8395
   31DOPE  H11B 3880   1.710   3.272   3.873 -1.4005 -2.2655  1.9649
   31DOPE     P 3881   1.490   3.066   3.903 -0.0027  0.1712 -0.2721
   31DOPE   O13 3882   1.557   2.936   3.910 -0.1959  0.1929  0.0192
   31DOPE   O14 3883   1.344   3.069   3.893  0.0298  0.1487  0.5857
   31DOPE   O11 3884   1.528   3.143   4.037 -0.0320 -0.0178  0.1739
   31DOPE   O12 3885   1.557   3.159   3.790  0.0080 -0.1549 -0.3797
   31DOPE    C1 3886   1.453   3.248   4.106 -1.0220  0.1385 -0.7222
   31DOPE    HA 3887   1.358   3.273   4.055 -2.4698 -1.3486  1.1179
   31DOPE    HB 3888   1.511   3.341   4.122 -1.8173  0.7842 -1.4958
   31DOPE    C2 3889   1.416   3.199   4.242 -0.5625 -0.3719  0.1760
   31DOPE    HS 3890   1.380   3.292   4.291  2.2974  0.0936  1.5870
   31DOPE   O21 3891   1.543   3.160   4.301  0.2619  0.3600  0.2357
   31DOPE   C21 3892   1.538   3.182   4.436 -0.3971 -0.2286 -0.3534
   31DOPE   O22 3893   1.445   3.230   4.500  0.6101 -0.1499  0.1556
   31DOPE   C22 3894   1.671   3.119   4.500  0.1741 -0.3358  0.4584
   31DOPE   H2R 3895   1.750   3.164   4.436 -0.2160 -0.9003 -0.4337
   31DOPE   H2S 3896   1.671   3.009   4.489  0.6335 -0.3911  1.0058
   31DOPE    C3 3897   1.301   3.097   4.239 -0.2299 -0.2991 -0.8143
   31DOPE    HX 3898   1.335   3.004   4.189  0.7214  1.3732 -3.4830
   31DOPE    HY 3899   1.225   3.154   4.181  1.3607  1.4728 -1.2601
   31DOPE   O31 3900   1.245   3.066   4.372 -0.4664 -0.9403 -0.2897
   31DOPE   C31 3901   1.124   3.002   4.359 -0.4962  0.1659  0.2965
   31DOPE   O32 3902   1.079   2.974   4.248 -0.7071 -0.0222 -0.0548
   31DOPE   C32 3903   1.062   2.965   4.499 -0.6823  0.1810  0.3234
   31DOPE   H2X 3904   1.009   3.054   4.539 -0.5242  0.7364 -0.6603
   31DOPE   H2Y 3905   0.975   2.898   4.485  0.3016 -1.2446  0.8351
   31DOPE   C23 3906   1.678   3.145   4.645 -0.5161  0.2379 -0.4035
   31DOPE   H3R 3907   1.764   3.078   4.669  2.4343  2.6335 -3.2533
   31DOPE   H3S 3908   1.586   3.113   4.698  0.4875 -2.3834 -0.0891
   31DOPE   C24 3909   1.746   3.283   4.672  0.2445  0.1797  0.6576
   31DOPE   H4R 3910   1.666   3.359   4.662 -0.5357 -0.5313  1.3384
   31DOPE   H4S 3911   1.825   3.301   4.595  1.1431  1.5037  1.8225
   31DOPE   C25 3912   1.814   3.294   4.810 -0.2421  0.2702 -0.6335
   31DOPE   H5R 3913   1.854   3.398   4.815 -2.4493  1.2088 -1.1792
   31DOPE   H5S 3914   1.898   3.225   4.830  0.7312  2.0364  1.9647
   31DOPE   C26 3915   1.719   3.280   4.928  0.1638 -0.4414  0.4844
   31DOPE   H6R 3916   1.645   3.198   4.918  1.8709 -2.0877  0.7367
   31DOPE   H6S 3917   1.667   3.378   4.929  2.0832  0.6561 -0.1881
   31DOPE   C27 3918   1.797   3.256   5.052 -0.0658 -0.4289  0.0240
   31DOPE   H7R 3919   1.874   3.337   5.056  0.3460 -0.8042 -0.1871
   31DOPE   H7S 3920   1.851   3.159   5.045  1.3693  0.3332 -0.0064
   31DOPE   C28 3921   1.720   3.249   5.191 -0.3636  0.2019  0.1118
   31DOPE   H8R 3922   1.666   3.344   5.211 -2.1666 -0.2572 -2.1620
   31DOPE   H8S 3923   1.799   3.242   5.269  0.6218  0.9898 -0.7751
   31DOPE   C29 3924   1.623   3.134   5.206 -0.4054  0.4958  0.1805
   31DOPE   H9R 3925   1.549   3.126   5.125  0.5271  1.8081 -0.8438
   31DOPE  C210 3926   1.633   3.047   5.309  0.6856 -1.5572  0.1478
   31DOPE  H10R 3927   1.566   2.960   5.322  1.4589 -2.1925 -0.0294
   31DOPE  C211 3928   1.716   3.055   5.436 -0.3061 -0.3008  0.2675
   31DOPE  H11R 3929   1.793   3.136   5.430  0.0954 -0.7631 -1.1516
   31DOPE  H11S 3930   1.769   2.959   5.454  1.1170  0.7410  2.0155
   31DOPE  C212 3931   1.638   3.079   5.560 -0.8206  0.4198  0.6875
   31DOPE  H12R 3932   1.547   3.015   5.561 -0.2522 -0.4010  1.2558
   31DOPE  H12S 3933   1.612   3.186   5.573  3.0646  1.3714  1.7502
   31DOPE  C213 3934   1.713   3.035   5.691 -0.3680 -0.1665  0.5635
   31DOPE  H13R 3935   1.807   3.094   5.688 -0.5702  0.1274 -0.3250
   31DOPE  H13S 3936   1.738   2.928   5.677 -0.4912  0.0743 -2.0634
   31DOPE  C214 3937   1.643   3.071   5.823 -0.1367 -0.5840 -0.0232
   31DOPE  H14R 3938   1.662   3.178   5.846 -0.6822 -0.8461  1.7737
   31DOPE  H14S 3939   1.704   3.027   5.904 -0.3588 -0.4400  0.2237
   31DOPE  C215 3940   1.499   3.021   5.840 -0.1029 -0.1293  0.6642
   31DOPE  H15R 3941   1.488   2.916   5.803  0.1765  0.3551 -0.8648
   31DOPE  H15S 3942   1.426   3.065   5.769  0.9986  0.7851  0.0807
   31DOPE  C216 3943   1.441   3.031   5.979  0.2759 -0.1508  0.0933
   31DOPE  H16R 3944   1.348   2.969   5.980 -0.9777  1.6299  1.4585
   31DOPE  H16S 3945   1.415   3.134   6.011 -2.7521 -1.1424  1.2502
   31DOPE  C217 3946   1.525   2.970   6.093 -0.1672  0.2088  0.2195
   31DOPE  H17R 3947   1.608   3.036   6.125  1.6187 -1.2545 -1.1662
   31DOPE  H17S 3948   1.574   2.875   6.064 -0.6249 -0.9107  2.8535
   31DOPE  C218 3949   1.447   2.941   6.215 -0.1024  0.3040 -0.3054
   31DOPE  H18R 3950   1.433   3.020   6.293 -1.3041 -4.2718  4.6731
   31DOPE  H18S 3951   1.488   2.850   6.263 -1.0911 -0.2694 -0.5323
   31DOPE  H18T 3952   1.344   2.913   6.184  0.0563 -0.8867  0.2202
   31DOPE   C33 3953   1.159   2.897   4.599  0.1561 -0.3747  0.6270
   31DOPE   H3X 3954   1.239   2.973   4.609 -1.0803  0.9196  0.9653
   31DOPE   H3Y 3955   1.194   2.797   4.565  0.3029 -0.1449  0.1050
   31DOPE   C34 3956   1.100   2.866   4.736 -0.7132  0.0126  0.2350
   31DOPE   H4X 3957   1.094   2.967   4.781  0.7778  1.0418 -1.6881
   31DOPE   H4Y 3958   0.998   2.827   4.720 -0.1153 -1.7466  0.4801
   31DOPE   C35 3959   1.177   2.760   4.824 -0.9866 -0.4876  0.1604
   31DOPE   H5X 3960   1.282   2.741   4.793 -0.8508  0.9105 -0.3025
   31DOPE   H5Y 3961   1.126   2.665   4.852 -0.6360 -0.4919  0.8162
   31DOPE   C36 3962   1.196   2.828   4.963 -0.0994 -0.5589  0.5254
   31DOPE   H6X 3963   1.095   2.857   5.001 -1.0033 -0.4155 -1.8434
   31DOPE   H6Y 3964   1.246   2.925   4.945 -1.0228 -0.0324  0.7081
   31DOPE   C37 3965   1.277   2.744   5.062  0.0151  0.0582  0.3967
   31DOPE   H7X 3966   1.223   2.648   5.048 -0.1431  0.3248 -0.9363
   31DOPE   H7Y 3967   1.380   2.733   5.023 -0.5981 -0.1230 -1.2621
   31DOPE   C38 3968   1.287   2.786   5.207  0.6409 -0.5706 -0.4312
   31DOPE   H8X 3969   1.182   2.779   5.244  0.2276  2.7110 -0.6932
   31DOPE   H8Y 3970   1.313   2.894   5.212 -2.9055  0.4202 -0.9568
   31DOPE   C39 3971   1.375   2.700   5.293  0.1546 -0.1313  0.4783
   31DOPE   H9X 3972   1.451   2.632   5.250  0.0531  0.4555 -0.6482
   31DOPE  C310 3973   1.378   2.720   5.425  0.2515 -0.3825 -0.6531
   31DOPE  H10X 3974   1.447   2.662   5.488 -0.3365 -0.1392  0.2368
   31DOPE  C311 3975   1.287   2.800   5.516  0.2904 -0.2197  0.5853
   31DOPE  H11X 3976   1.352   2.862   5.581  1.7754  0.4382 -1.4334
   31DOPE  H11Y 3977   1.228   2.877   5.462 -1.3366 -1.3294  0.6988
   31DOPE  C312 3978   1.191   2.711   5.598 -0.5306  0.0242  0.1252
   31DOPE  H12X 3979   1.143   2.630   5.539  0.2987 -2.0783  2.1706
   31DOPE  H12Y 3980   1.117   2.777   5.647  0.7276 -0.3108  2.6746
   31DOPE  C313 3981   1.265   2.642   5.712 -0.5717 -0.6278  0.1281
   31DOPE  H13X 3982   1.309   2.548   5.672 -0.8011 -0.4218 -0.6220
   31DOPE  H13Y 3983   1.349   2.701   5.755 -0.9614 -0.8275  1.1781
   31DOPE  C314 3984   1.173   2.608   5.836  0.0959 -0.1665 -0.0584
   31DOPE  H14X 3985   1.099   2.538   5.791  1.2269  0.5704 -3.2875
   31DOPE  H14Y 3986   1.123   2.700   5.871 -0.0712 -0.4834  0.5629
   31DOPE  C315 3987   1.250   2.543   5.951  0.2006 -0.2619  0.6419
   31DOPE  H15X 3988   1.299   2.448   5.922  0.4862  0.5309 -1.6652
   31DOPE  H15Y 3989   1.173   2.508   6.022  0.8941  0.2239  1.6545
   31DOPE  C316 3990   1.334   2.636   6.034  0.7971 -0.9204 -0.2816
   31DOPE  H16X 3991   1.267   2.707   6.087  0.9056 -0.0540 -1.2621
   31DOPE  H16Y 3992   1.389   2.702   5.963 -0.7241  0.0932 -0.5745
   31DOPE  C317 3993   1.409   2.572   6.156 -0.3170  0.4400 -0.1052
   31DOPE  H17X 3994   1.464   2.487   6.110 -1.0220  0.1748 -0.4825
   31DOPE  H17Y 3995   1.485   2.640   6.201 -0.2522 -0.2069  0.7899
   31DOPE  C318 3996   1.323   2.506   6.265  1.1140 -0.2287  0.0736
   31DOPE  H18X 3997   1.272   2.419   6.217 -0.4157  0.7886 -0.2283
   31DOPE  H18Y 3998   1.383   2.460   6.346  0.6489 -1.2934 -0.1661
   31DOPE  H18Z 3999   1.253   2.581   6.305  0.6839  0.0485 -1.1420
   32DOPE     N 4000   4.782   2.018   3.694  0.7747 -0.1008  0.2118
   32DOPE   HN1 4001   4.740   2.078   3.620  0.6553 -0.8015 -0.2984
   32DOPE   HN2 4002   4.878   1.987   3.670 -0.1437 -1.2450 -2.3556
   32DOPE   HN3 4003   4.716   1.941   3.717  0.7811 -0.6294 -1.3836
   32DOPE   C12 4004   4.784   2.088   3.819  0.0415  0.9201 -0.0260
   32DOPE  H12A 4005   4.870   2.158   3.810  0.7428 -0.0806 -1.5357
   32DOPE  H12B 4006   4.808   2.020   3.904  1.2867  1.1359 -0.1750
   32DOPE   C11 4007   4.655   2.155   3.845 -0.4219  0.0317 -0.2839
   32DOPE  H11A 4008   4.667   2.217   3.936 -0.3422 -1.5803  0.8498
   32DOPE  H11B 4009   4.571   2.085   3.869 -1.3287  1.1769 -0.0230
   32DOPE     P 4010   4.671   2.375   3.698  0.2094  0.2895 -0.2954
   32DOPE   O13 4011   4.591   2.420   3.584  0.3784  0.6066  0.3877
   32DOPE   O14 4012   4.819   2.360   3.672  0.8204  0.0691  0.0172
   32DOPE   O11 4013   4.639   2.456   3.832  0.2711  0.6969 -0.0220
   32DOPE   O12 4014   4.615   2.230   3.729 -0.5413  0.2010 -0.0939
   32DOPE    C1 4015   4.533   2.556   3.832  0.5050  1.1335 -0.1953
   32DOPE    HA 4016   4.461   2.532   3.751  1.5124 -0.1009 -0.7651
   32DOPE    HB 4017   4.582   2.654   3.811 -0.8868  1.2054 -3.7862
   32DOPE    C2 4018   4.452   2.555   3.962 -0.0649 -0.1578 -0.4836
   32DOPE    HS 4019   4.368   2.628   3.965  0.0241 -0.0813  0.4714
   32DOPE   O21 4020   4.539   2.572   4.069  0.1201 -0.6997 -0.2134
   32DOPE   C21 4021   4.549   2.699   4.103  0.2392  0.2466  0.4718
   32DOPE   O22 4022   4.493   2.797   4.053 -0.7260  0.4059  0.2198
   32DOPE   C22 4023   4.666   2.717   4.210  0.6345  0.1222  0.6188
   32DOPE   H2R 4024   4.738   2.783   4.157  1.6358 -0.5741  1.0803
   32DOPE   H2S 4025   4.719   2.621   4.226 -0.2627 -0.3464  0.8314
   32DOPE    C3 4026   4.391   2.407   3.975  0.2179  0.4240  0.7139
   32DOPE    HX 4027   4.479   2.340   3.974 -0.4885 -0.5647  1.9852
   32DOPE    HY 4028   4.329   2.384   3.886  0.3876 -1.8726  1.1296
   32DOPE   O31 4029   4.318   2.399   4.096  0.0393 -0.6711  0.6223
   32DOPE   C31 4030   4.194   2.440   4.085  0.1671  0.2154 -0.9221
   32DOPE   O32 4031   4.129   2.465   3.985 -0.1493 -0.2041  0.1556
   32DOPE   C32 4032   4.148   2.450   4.227 -0.2821  1.1687 -0.5833
   32DOPE   H2X 4033   4.109   2.352   4.264  3.2862 -0.6293 -1.2021
   32DOPE   H2Y 4034   4.225   2.485   4.298  0.9221  0.6302 -1.5881
   32DOPE   C23 4035   4.607   2.767   4.338 -0.7752  0.2249  0.1379
   32DOPE   H3R 4036   4.537   2.851   4.321 -1.1692 -0.5734 -2.7111
   32DOPE   H3S 4037   4.697   2.790   4.399  1.0245 -1.9827 -1.4898
   32DOPE   C24 4038   4.539   2.651   4.407  0.9054 -0.2253 -0.0796
   32DOPE   H4R 4039   4.617   2.575   4.428  2.6468  1.4779 -0.1301
   32DOPE   H4S 4040   4.470   2.600   4.336  1.4890 -1.7523  0.3994
   32DOPE   C25 4041   4.461   2.696   4.535 -1.0104 -0.2989 -0.4180
   32DOPE   H5R 4042   4.378   2.762   4.502 -0.9347 -0.0565 -0.1372
   32DOPE   H5S 4043   4.536   2.754   4.592 -0.4918  0.4039 -1.7797
   32DOPE   C26 4044   4.400   2.582   4.619  0.3168 -1.2898  0.1541
   32DOPE   H6R 4045   4.485   2.515   4.646  1.4047 -0.4092 -0.9560
   32DOPE   H6S 4046   4.333   2.529   4.548 -0.2378  2.2190 -2.1786
   32DOPE   C27 4047   4.333   2.630   4.748 -0.6495 -0.0007 -1.0101
   32DOPE   H7R 4048   4.289   2.547   4.808 -3.0241  0.9823 -1.2917
   32DOPE   H7S 4049   4.245   2.692   4.720 -1.8055 -1.5694 -0.9941
   32DOPE   C28 4050   4.420   2.713   4.850 -0.6659 -0.2193  0.0289
   32DOPE   H8R 4051   4.354   2.767   4.921 -0.6330 -2.5541  1.9750
   32DOPE   H8S 4052   4.462   2.796   4.789  1.2317 -1.8725 -1.0844
   32DOPE   C29 4053   4.531   2.634   4.918  0.1739 -0.1444  0.2044
   32DOPE   H9R 4054   4.584   2.562   4.855  1.0400  0.4949  0.1836
   32DOPE  C210 4055   4.553   2.629   5.049  0.2511 -0.2570  0.5781
   32DOPE  H10R 4056   4.642   2.579   5.091  0.5982  1.5903  2.1999
   32DOPE  C211 4057   4.488   2.721   5.149  0.2099 -0.4756 -0.3956
   32DOPE  H11R 4058   4.380   2.737   5.126  0.7612  2.1799 -1.4718
   32DOPE  H11S 4059   4.528   2.824   5.149  0.4360 -0.5508  0.6590
   32DOPE  C212 4060   4.487   2.674   5.297  1.3240 -0.6512  0.3371
   32DOPE  H12R 4061   4.584   2.650   5.345  0.5212 -0.6785  2.0303
   32DOPE  H12S 4062   4.421   2.584   5.299 -0.0560  0.2997 -0.8697
   32DOPE  C213 4063   4.417   2.778   5.389 -1.0666  0.7000  0.1511
   32DOPE  H13R 4064   4.310   2.782   5.360 -0.8051 -1.7086 -1.4634
   32DOPE  H13S 4065   4.468   2.875   5.373  1.9663 -0.9623 -1.1839
   32DOPE  C214 4066   4.434   2.729   5.532 -0.2525  0.1835 -0.4688
   32DOPE  H14R 4067   4.537   2.729   5.573 -0.0544 -0.4580 -0.9506
   32DOPE  H14S 4068   4.398   2.624   5.537 -0.4684  0.3221  2.3646
   32DOPE  C215 4069   4.354   2.814   5.626 -0.3703  0.7162 -0.1706
   32DOPE  H15R 4070   4.251   2.841   5.595 -0.4986  1.8274  1.1380
   32DOPE  H15S 4071   4.410   2.909   5.626  1.0078 -0.0729  0.3620
   32DOPE  C216 4072   4.351   2.776   5.777 -1.1705 -0.4551  0.0941
   32DOPE  H16R 4073   4.455   2.757   5.809 -1.6997 -3.6792  0.2004
   32DOPE  H16S 4074   4.290   2.684   5.792 -0.8213 -0.8291 -0.7176
   32DOPE  C217 4075   4.299   2.889   5.866 -0.0065 -0.1302  0.2991
   32DOPE  H17R 4076   4.220   2.931   5.800  0.5114 -1.8043 -1.4884
   32DOPE  H17S 4077   4.369   2.975   5.866 -0.3539  0.4840 -5.1532
   32DOPE  C218 4078   4.237   2.852   6.000 -0.1300  0.0345 -0.2422
   32DOPE  H18R 4079   4.212   2.744   5.991 -0.8293  0.0736  1.0779
   32DOPE  H18S 4080   4.153   2.922   6.019 -0.2086 -0.1987  0.2918
   32DOPE  H18T 4081   4.309   2.868   6.083  0.0490 -1.3654 -0.0974
   32DOPE   C33 4082   4.039   2.552   4.235 -0.0041 -0.5719 -0.3993
   32DOPE   H3X 4083   3.943   2.497   4.227 -0.8276  0.5980  0.9107
   32DOPE   H3Y 4084   4.047   2.632   4.159  3.1074  0.0897  0.4729
   32DOPE   C34 4085   4.026   2.613   4.376 -0.1539 -0.1620 -0.2343
   32DOPE   H4X 4086   4.110   2.686   4.388  0.5566 -0.8990 -0.6300
   32DOPE   H4Y 4087   3.935   2.676   4.387 -0.7741 -1.2691  1.1518
   32DOPE   C35 4088   4.017   2.502   4.485 -0.2980 -0.4261  0.3932
   32DOPE   H5X 4089   4.122   2.469   4.498 -0.7913 -2.0046  0.6291
   32DOPE   H5Y 4090   3.961   2.417   4.440  0.3721 -0.7913  0.2417
   32DOPE   C36 4091   3.974   2.545   4.623 -0.0468  0.3338 -0.6185
   32DOPE   H6X 4092   3.866   2.570   4.629  0.2099  1.8439 -1.8084
   32DOPE   H6Y 4093   4.039   2.627   4.661  0.7081 -0.1010 -0.9477
   32DOPE   C37 4094   4.000   2.433   4.730  0.6412  0.2398 -0.4588
   32DOPE   H7X 4095   3.934   2.353   4.689 -1.5714  1.0909  1.2026
   32DOPE   H7Y 4096   4.106   2.400   4.733 -0.0215 -2.5228 -2.6262
   32DOPE   C38 4097   3.940   2.461   4.868 -0.0077 -0.0307 -0.1840
   32DOPE   H8X 4098   3.931   2.366   4.926  3.9912  0.0997  0.9551
   32DOPE   H8Y 4099   3.840   2.498   4.838  0.6354  2.0339  0.0558
   32DOPE   C39 4100   4.004   2.574   4.946 -0.5487 -0.0185  0.0874
   32DOPE   H9X 4101   4.016   2.674   4.901 -1.1456 -0.5118 -1.2066
   32DOPE  C310 4102   4.017   2.576   5.082 -0.3387  0.2939  0.6163
   32DOPE  H10X 4103   4.058   2.663   5.136 -0.2422 -0.9909  2.7659
   32DOPE  C311 4104   3.976   2.469   5.177  0.2509 -0.0293  0.2958
   32DOPE  H11X 4105   3.878   2.424   5.150 -0.5901  0.7945  1.8492
   32DOPE  H11Y 4106   4.051   2.387   5.177  3.1739  2.4007 -1.7952
   32DOPE  C312 4107   3.952   2.517   5.326  0.0035 -0.4129 -0.2289
   32DOPE  H12X 4108   3.898   2.438   5.382 -1.5306  0.4691 -0.4037
   32DOPE  H12Y 4109   3.880   2.601   5.317  1.4007  0.6328 -2.4230
   32DOPE  C313 4110   4.084   2.559   5.398  0.6077  0.3172 -0.7381
   32DOPE  H13X 4111   4.146   2.467   5.407 -0.5473 -0.4855 -0.8055
   32DOPE  H13Y 4112   4.143   2.629   5.335  1.7103 -0.6476 -0.8272
   32DOPE  C314 4113   4.043   2.620   5.543 -0.1535  0.0970  1.3327
   32DOPE  H14X 4114   3.949   2.678   5.531  1.1006  1.8597 -0.6456
   32DOPE  H14Y 4115   4.128   2.681   5.579 -0.7091  1.7820 -0.0538
   32DOPE  C315 4116   4.017   2.508   5.637  0.2602  0.0299 -0.4488
   32DOPE  H15X 4117   4.111   2.451   5.651  0.1198  0.1450  1.2081
   32DOPE  H15Y 4118   3.948   2.433   5.593  2.0117 -0.8415 -1.8157
   32DOPE  C316 4119   3.970   2.553   5.779  0.3705 -0.1571 -0.1300
   32DOPE  H16X 4120   3.859   2.564   5.774  0.3625 -0.4577 -0.7854
   32DOPE  H16Y 4121   4.019   2.646   5.814 -0.0125 -0.2130  0.5858
   32DOPE  C317 4122   3.998   2.445   5.884  0.0095  0.5668  0.2473
   32DOPE  H17X 4123   3.970   2.345   5.844 -1.1678  1.0063 -0.0733
   32DOPE  H17Y 4124   4.107   2.437   5.907 -0.0321 -0.8296  0.0471
   32DOPE  C318 4125   3.919   2.453   6.018 -0.5788 -0.6243  0.0283
   32DOPE  H18X 4126   3.813   2.426   6.002 -1.3862  2.6780 -0.9792
   32DOPE  H18Y 4127   3.962   2.385   6.095  0.0612  0.0669  0.3035
   32DOPE  H18Z 4128   3.911   2.558   6.056  1.6705 -0.2243 -0.4278
   33DOPE     N 4129   1.796   2.831   3.935 -0.2237  0.8352  0.2734
   33DOPE   HN1 4130   1.846   2.889   4.005  0.9889 -0.1425  0.2609
   33DOPE   HN2 4131   1.704   2.878   3.944 -0.2018  0.6589  1.5851
   33DOPE   HN3 4132   1.792   2.732   3.969 -0.4708  0.8966  0.4277
   33DOPE   C12 4133   1.855   2.848   3.798 -0.4249  0.1216  0.2227
   33DOPE  H12A 4134   1.850   2.955   3.770 -1.0184  0.1648  0.4796
   33DOPE  H12B 4135   1.798   2.789   3.722 -0.8088 -0.2147  0.7644
   33DOPE   C11 4136   2.000   2.800   3.802  0.0526 -0.0364 -0.5367
   33DOPE  H11A 4137   2.049   2.835   3.709  1.7672 -0.2117  0.2530
   33DOPE  H11B 4138   1.986   2.690   3.803 -0.9481  0.0779 -0.0663
   33DOPE     P 4139   2.217   2.859   3.926 -0.0568 -0.2074 -0.0120
   33DOPE   O13 4140   2.263   3.000   3.917 -0.5691 -0.4399  0.4653
   33DOPE   O14 4141   2.274   2.754   3.833 -0.2350  0.1692 -0.0266
   33DOPE   O11 4142   2.236   2.812   4.067 -0.5258  0.2897  0.1846
   33DOPE   O12 4143   2.064   2.849   3.920 -0.2556 -0.1398 -0.0416
   33DOPE    C1 4144   2.149   2.725   4.133 -0.0321 -0.3260 -0.0763
   33DOPE    HA 4145   2.209   2.643   4.178 -0.0522 -1.4039 -1.8897
   33DOPE    HB 4146   2.067   2.683   4.071  0.3033  0.5884 -1.1752
   33DOPE    C2 4147   2.059   2.794   4.240  0.0250 -0.7416 -0.3795
   33DOPE    HS 4148   1.993   2.855   4.175  1.1112  0.7184 -0.1779
   33DOPE   O21 4149   2.137   2.883   4.324  0.9615 -0.4840 -0.0523
   33DOPE   C21 4150   2.063   2.970   4.392 -0.3011  0.6424  0.3418
   33DOPE   O22 4151   1.952   3.007   4.360  0.1268 -0.3637 -0.4596
   33DOPE   C22 4152   2.147   3.035   4.503  0.1467 -0.6669 -0.3680
   33DOPE   H2R 4153   2.126   3.144   4.495  0.7317 -0.2191  2.8225
   33DOPE   H2S 4154   2.255   3.008   4.491  0.3927  0.4878 -0.9321
   33DOPE    C3 4155   1.976   2.698   4.336 -0.7385  0.9691  0.1811
   33DOPE    HX 4156   1.924   2.639   4.257 -3.3768  0.4211  2.1994
   33DOPE    HY 4157   1.903   2.752   4.400 -1.7837  1.6308 -1.5009
   33DOPE   O31 4158   2.068   2.624   4.419  0.7005  0.1968 -0.0847
   33DOPE   C31 4159   2.028   2.510   4.460  0.1088 -0.6992 -0.1630
   33DOPE   O32 4160   1.913   2.467   4.441  0.5014 -0.4041  0.4276
   33DOPE   C32 4161   2.139   2.432   4.531  1.0387 -0.9958 -0.4441
   33DOPE   H2X 4162   2.195   2.365   4.462 -0.0185 -0.5131 -1.8461
   33DOPE   H2Y 4163   2.209   2.515   4.555  0.6695 -0.6619 -0.5033
   33DOPE   C23 4164   2.093   3.013   4.642  0.4743  0.1576  0.1524
   33DOPE   H3R 4165   1.983   3.023   4.638  0.2219 -2.1736  0.3224
   33DOPE   H3S 4166   2.146   3.094   4.698  2.4481 -0.5469 -0.5955
   33DOPE   C24 4167   2.131   2.876   4.698 -0.3715 -0.1535 -0.4620
   33DOPE   H4R 4168   2.239   2.864   4.723 -0.4853  0.0894  0.1485
   33DOPE   H4S 4169   2.100   2.813   4.612  0.3721  1.2173 -1.7976
   33DOPE   C25 4170   2.056   2.841   4.823  0.6071  0.3058  0.3331
   33DOPE   H5R 4171   2.093   2.749   4.872  1.4990  1.0928  1.1883
   33DOPE   H5S 4172   1.948   2.824   4.803  1.0328 -0.4172 -1.5385
   33DOPE   C26 4173   2.057   2.957   4.920  0.5734 -0.8552  0.2607
   33DOPE   H6R 4174   2.000   2.906   5.001 -1.3919  1.4283  0.4373
   33DOPE   H6S 4175   2.003   3.046   4.882  1.5066 -0.9742 -1.4118
   33DOPE   C27 4176   2.198   3.014   4.964  0.4471 -0.0885  0.8172
   33DOPE   H7R 4177   2.252   3.057   4.877  2.2247 -0.6341  1.6248
   33DOPE   H7S 4178   2.259   2.933   5.007  0.5390 -0.4111  0.0829
   33DOPE   C28 4179   2.194   3.127   5.072 -0.5512 -0.3367 -0.1694
   33DOPE   H8R 4180   2.151   3.217   5.022 -1.1648  1.9445  4.0435
   33DOPE   H8S 4181   2.301   3.137   5.100 -0.5598 -0.9541  0.0873
   33DOPE   C29 4182   2.125   3.070   5.197 -0.3018 -1.3031 -0.0734
   33DOPE   H9R 4183   2.022   3.048   5.166 -0.3974 -0.2084 -0.5940
   33DOPE  C210 4184   2.161   3.067   5.325 -0.1608  0.3476 -0.2372
   33DOPE  H10R 4185   2.082   3.030   5.392 -0.0510  3.1259  1.5836
   33DOPE  C211 4186   2.285   3.116   5.387 -0.1143  0.0194  0.1071
   33DOPE  H11R 4187   2.359   3.146   5.310 -0.7518 -0.0209 -0.5307
   33DOPE  H11S 4188   2.328   3.033   5.446 -0.4484 -1.5030 -1.7164
   33DOPE  C212 4189   2.251   3.242   5.471  0.1040  0.4995 -0.2220
   33DOPE  H12R 4190   2.210   3.318   5.401  0.2800 -0.4032 -1.3358
   33DOPE  H12S 4191   2.337   3.288   5.525  0.4594 -2.0676  1.6045
   33DOPE  C213 4192   2.151   3.210   5.581  0.0270 -0.7866 -0.5939
   33DOPE  H13R 4193   2.213   3.157   5.656 -0.8400  0.1161  0.8101
   33DOPE  H13S 4194   2.059   3.156   5.549  0.0210 -2.1081  1.4460
   33DOPE  C214 4195   2.101   3.339   5.647 -0.1064  0.1211 -0.2083
   33DOPE  H14R 4196   2.024   3.389   5.583 -0.6052 -2.9021 -2.1615
   33DOPE  H14S 4197   2.188   3.408   5.657  0.8772 -1.1494  0.2549
   33DOPE  C215 4198   2.037   3.305   5.782 -0.5163 -0.4455  0.8821
   33DOPE  H15R 4199   2.110   3.252   5.846 -0.5410 -1.9096 -0.2500
   33DOPE  H15S 4200   1.948   3.243   5.761 -0.6920  0.3236 -0.8199
   33DOPE  C216 4201   1.978   3.417   5.866 -0.2372  0.0739 -0.8350
   33DOPE  H16R 4202   1.896   3.464   5.807 -0.2378 -1.1565 -1.8536
   33DOPE  H16S 4203   2.060   3.485   5.895 -0.3209 -0.5178  0.9151
   33DOPE  C217 4204   1.906   3.371   5.992  0.2271 -0.3735  0.3491
   33DOPE  H17R 4205   1.828   3.298   5.963 -0.0957  0.2172 -0.2909
   33DOPE  H17S 4206   1.857   3.459   6.038  1.1302  0.5830 -0.4913
   33DOPE  C218 4207   1.988   3.311   6.116 -0.2677  0.0731 -0.0246
   33DOPE  H18R 4208   2.025   3.207   6.100  1.5313  0.9323 -1.7776
   33DOPE  H18S 4209   1.930   3.314   6.211  0.9722 -0.0493  0.7580
   33DOPE  H18T 4210   2.082   3.370   6.119 -0.2780  0.0714  0.4796
   33DOPE   C33 4211   2.104   2.357   4.661  0.2165 -0.1280 -0.1299
   33DOPE   H3X 4212   2.175   2.280   4.697 -0.7802 -0.1457  1.9496
   33DOPE   H3Y 4213   2.012   2.296   4.642 -0.8946  1.4375  0.0441
   33DOPE   C34 4214   2.096   2.460   4.771  0.2134 -0.5605  0.1964
   33DOPE   H4X 4215   2.189   2.517   4.793 -0.0852 -0.5702  1.5840
   33DOPE   H4Y 4216   2.025   2.536   4.732  0.0261 -1.5510 -1.4793
   33DOPE   C35 4217   2.055   2.406   4.907  0.4087  0.1739  0.0262
   33DOPE   H5X 4218   2.051   2.488   4.982  0.8302  1.0259 -0.8626
   33DOPE   H5Y 4219   2.140   2.340   4.935  0.5880  0.1152 -0.6330
   33DOPE   C36 4220   1.918   2.333   4.889  0.0574  0.4930 -0.1989
   33DOPE   H6X 4221   1.925   2.246   4.820 -0.3022 -0.4191  0.8822
   33DOPE   H6Y 4222   1.843   2.403   4.846  0.3344  0.1255 -1.3317
   33DOPE   C37 4223   1.854   2.281   5.018 -0.1674  0.1518 -0.2065
   33DOPE   H7X 4224   1.799   2.359   5.074  1.2848  2.4328 -1.8059
   33DOPE   H7Y 4225   1.779   2.210   4.976 -0.3436  2.2228 -3.7946
   33DOPE   C38 4226   1.954   2.212   5.111 -0.3214  0.7403  0.5915
   33DOPE   H8X 4227   2.009   2.285   5.174  3.4797 -1.0205 -0.4338
   33DOPE   H8Y 4228   2.027   2.161   5.046  0.4778  0.8400  1.3988
   33DOPE   C39 4229   1.895   2.099   5.199  0.2026 -0.5296  0.2970
   33DOPE   H9X 4230   1.823   2.033   5.148 -0.7857  1.7117 -1.4044
   33DOPE  C310 4231   1.945   2.062   5.319  0.1841 -0.1775 -0.4970
   33DOPE  H10X 4232   1.898   1.980   5.375  1.2182 -0.2315  0.3256
   33DOPE  C311 4233   2.062   2.129   5.390 -0.7206 -0.6137 -0.1918
   33DOPE  H11X 4234   2.152   2.067   5.368  0.0098  0.6184 -0.7784
   33DOPE  H11Y 4235   2.096   2.226   5.349  2.6974 -1.5967 -0.0329
   33DOPE  C312 4236   2.054   2.134   5.544 -0.1833  0.2592  0.4651
   33DOPE  H12X 4237   2.066   2.030   5.583 -0.2628  0.7516  1.8394
   33DOPE  H12Y 4238   1.951   2.162   5.576  0.0437  0.5564  0.9331
   33DOPE  C313 4239   2.147   2.236   5.616 -0.5050 -0.2770  0.0952
   33DOPE  H13X 4240   2.255   2.230   5.592 -0.3480  0.0553  0.7071
   33DOPE  H13Y 4241   2.109   2.339   5.599  0.6242  0.5179  2.0781
   33DOPE  C314 4242   2.144   2.219   5.771  0.7388  0.3013  0.0710
   33DOPE  H14X 4243   2.189   2.125   5.811  1.9644  1.0471  0.4993
   33DOPE  H14Y 4244   2.039   2.225   5.808  0.3447  0.1445 -1.0018
   33DOPE  C315 4245   2.199   2.348   5.833  0.3512  0.6855  0.1495
   33DOPE  H15X 4246   2.156   2.438   5.785 -0.0663  0.5247  0.2155
   33DOPE  H15Y 4247   2.305   2.356   5.803 -0.2323  0.6599 -2.1315
   33DOPE  C316 4248   2.177   2.359   5.980 -0.6667 -0.1624 -0.3031
   33DOPE  H16X 4249   2.228   2.271   6.026 -0.0995  1.1730  1.7466
   33DOPE  H16Y 4250   2.067   2.351   5.993 -0.5865  0.3689  0.8583
   33DOPE  C317 4251   2.227   2.497   6.036 -0.1886 -0.1586  0.3594
   33DOPE  H17X 4252   2.338   2.505   6.033 -0.1772 -0.2080 -2.6967
   33DOPE  H17Y 4253   2.197   2.583   5.973  1.2248  0.1247  0.0273
   33DOPE  C318 4254   2.188   2.513   6.181  0.0816 -0.6362  0.4446
   33DOPE  H18X 4255   2.079   2.535   6.178  0.4590  1.3513 -0.5534
   33DOPE  H18Y 4256   2.213   2.419   6.235 -0.4513 -0.1029  1.6593
   33DOPE  H18Z 4257   2.232   2.602   6.232 -1.4648  0.3931  0.0621
   34DOPE     N 4258   0.878   3.752   3.815  0.3894 -1.1280 -0.5699
   34DOPE   HN1 4259   0.785   3.786   3.783 -0.5766 -1.5375  1.6053
   34DOPE   HN2 4260   0.854   3.672   3.878  1.4388 -0.8636  0.1880
   34DOPE   HN3 4261   0.926   3.820   3.878 -2.1603  0.4924 -0.2375
   34DOPE   C12 4262   0.971   3.699   3.699  0.8662 -0.4658 -0.1918
   34DOPE  H12A 4263   0.963   3.772   3.616 -0.9882  0.0914  0.4252
   34DOPE  H12B 4264   0.930   3.598   3.677 -0.3454  0.0134 -0.2238
   34DOPE   C11 4265   1.113   3.675   3.752 -1.3215 -0.0180  0.2648
   34DOPE  H11A 4266   1.149   3.780   3.745  0.3428 -0.3338  3.0758
   34DOPE  H11B 4267   1.174   3.621   3.676 -0.0629  1.6745  0.0209
   34DOPE     P 4268   1.234   3.509   3.921  0.1126  0.2730 -0.0160
   34DOPE   O13 4269   1.256   3.412   3.813 -0.3548 -0.1559  0.2110
   34DOPE   O14 4270   1.195   3.452   4.051 -0.3953  0.6631  0.0055
   34DOPE   O11 4271   1.358   3.593   3.932 -0.4995  0.3877 -0.2022
   34DOPE   O12 4272   1.118   3.613   3.886 -0.2086 -0.0516  0.5776
   34DOPE    C1 4273   1.343   3.717   4.001  0.2638 -0.4727 -0.5439
   34DOPE    HA 4274   1.272   3.710   4.086 -1.2003 -0.3674 -1.7261
   34DOPE    HB 4275   1.308   3.796   3.931 -0.3962 -2.1988 -2.2243
   34DOPE    C2 4276   1.486   3.766   4.052 -0.2127  0.5143 -0.8019
   34DOPE    HS 4277   1.542   3.797   3.962 -1.5153  0.3643 -1.6884
   34DOPE   O21 4278   1.555   3.657   4.111 -0.0089 -0.4793 -0.0410
   34DOPE   C21 4279   1.683   3.675   4.126  0.2666 -0.2731 -0.3869
   34DOPE   O22 4280   1.743   3.776   4.095  0.0966 -0.4021  0.6856
   34DOPE   C22 4281   1.741   3.552   4.191  0.6729 -0.3332 -0.5313
   34DOPE   H2R 4282   1.817   3.516   4.118  0.7298  1.4583 -1.4097
   34DOPE   H2S 4283   1.666   3.470   4.199  1.4860 -1.2861 -2.1033
   34DOPE    C3 4284   1.471   3.895   4.149  0.0878 -0.2767 -0.2314
   34DOPE    HX 4285   1.420   3.975   4.092 -0.7262 -1.4095 -1.1342
   34DOPE    HY 4286   1.570   3.935   4.180 -0.5211  0.4636  0.8096
   34DOPE   O31 4287   1.391   3.854   4.264  0.0237  0.2993  0.4092
   34DOPE   C31 4288   1.435   3.889   4.384  0.4190 -0.7547 -0.1409
   34DOPE   O32 4289   1.541   3.941   4.414  0.3145 -0.2185  0.4332
   34DOPE   C32 4290   1.329   3.858   4.486  0.5367  0.3311 -0.1681
   34DOPE   H2X 4291   1.237   3.886   4.430  1.6139  2.4051 -1.0284
   34DOPE   H2Y 4292   1.322   3.751   4.514 -0.0157  1.0080  2.4924
   34DOPE   C23 4293   1.805   3.570   4.329  0.1923  0.1650  0.2729
   34DOPE   H3R 4294   1.887   3.643   4.315  0.4668  0.3637  2.4579
   34DOPE   H3S 4295   1.849   3.475   4.366  0.8065  0.0775 -0.6459
   34DOPE   C24 4296   1.713   3.622   4.437  0.5970  0.4959 -0.5949
   34DOPE   H4R 4297   1.638   3.546   4.471  0.1358  1.6144  1.0341
   34DOPE   H4S 4298   1.653   3.709   4.403  2.1269  1.5014 -0.8338
   34DOPE   C25 4299   1.793   3.660   4.564 -0.2076  0.3404  0.7261
   34DOPE   H5R 4300   1.871   3.738   4.546  0.6593  0.1921  3.3831
   34DOPE   H5S 4301   1.840   3.570   4.609 -0.9077 -0.7839 -0.7232
   34DOPE   C26 4302   1.696   3.709   4.684  0.0283  0.2627 -0.4373
   34DOPE   H6R 4303   1.630   3.620   4.693  1.0408 -0.3581  1.3622
   34DOPE   H6S 4304   1.634   3.793   4.646 -0.3704  0.7617  1.2472
   34DOPE   C27 4305   1.763   3.711   4.825 -0.0045  0.0721 -0.0307
   34DOPE   H7R 4306   1.824   3.800   4.851  2.7044 -1.8494  0.7079
   34DOPE   H7S 4307   1.834   3.625   4.827  0.3453  0.3417  2.2645
   34DOPE   C28 4308   1.658   3.691   4.936 -0.2039  0.2270  0.1263
   34DOPE   H8R 4309   1.718   3.710   5.028  0.8563 -1.1811 -0.2312
   34DOPE   H8S 4310   1.627   3.585   4.931  1.1930 -0.1825 -0.2959
   34DOPE   C29 4311   1.538   3.787   4.936 -0.2013 -0.3212  0.2459
   34DOPE   H9R 4312   1.466   3.772   4.854  0.1994 -1.3757  0.0747
   34DOPE  C210 4313   1.507   3.870   5.032  0.1266 -0.2066 -0.3354
   34DOPE  H10R 4314   1.420   3.931   5.004  1.1388  0.9333 -1.0925
   34DOPE  C211 4315   1.585   3.908   5.157 -0.0230 -0.2173  0.6847
   34DOPE  H11R 4316   1.613   4.015   5.154 -0.5071 -0.0884  0.6325
   34DOPE  H11S 4317   1.686   3.863   5.159  0.0597 -0.0779  0.0851
   34DOPE  C212 4318   1.518   3.905   5.298 -0.0362  0.4488  0.3975
   34DOPE  H12R 4319   1.583   3.965   5.366 -0.4373 -0.2587  1.4460
   34DOPE  H12S 4320   1.509   3.799   5.331 -5.2317 -0.3610 -2.5350
   34DOPE  C213 4321   1.380   3.967   5.323 -0.4515  0.6134  1.1536
   34DOPE  H13R 4322   1.315   3.930   5.240  1.3907  0.8405 -0.4569
   34DOPE  H13S 4323   1.380   4.078   5.314 -1.0867  0.5189 -0.4115
   34DOPE  C214 4324   1.316   3.938   5.457 -1.1080  0.3429 -1.1081
   34DOPE  H14R 4325   1.333   3.833   5.487  1.9146  0.9611 -0.3181
   34DOPE  H14S 4326   1.207   3.956   5.466 -1.1597 -0.9314  1.9315
   34DOPE  C215 4327   1.379   4.033   5.565  0.2359  0.1244  0.5137
   34DOPE  H15R 4328   1.377   4.138   5.530  3.6480  0.5070  1.0637
   34DOPE  H15S 4329   1.486   4.008   5.585  0.4438 -1.4180 -1.9571
   34DOPE  C216 4330   1.311   4.027   5.704  0.3045  0.7046 -0.2602
   34DOPE  H16R 4331   1.312   3.921   5.739 -1.2365  0.0500 -2.0670
   34DOPE  H16S 4332   1.202   4.044   5.692 -0.7876 -2.2004  3.4467
   34DOPE  C217 4333   1.371   4.127   5.802  0.3749  1.2181 -0.6487
   34DOPE  H17R 4334   1.333   4.226   5.770  1.6779  1.3784 -1.8210
   34DOPE  H17S 4335   1.482   4.129   5.802  0.3920  0.5301 -0.8697
   34DOPE  C218 4336   1.322   4.099   5.943 -0.1490 -0.0047 -0.1131
   34DOPE  H18R 4337   1.371   4.009   5.985 -0.8594  0.2980  1.4469
   34DOPE  H18S 4338   1.212   4.080   5.937  0.3361 -3.4024  0.1929
   34DOPE  H18T 4339   1.341   4.179   6.018 -1.3908 -0.4656  0.7362
   34DOPE   C33 4340   1.336   3.946   4.617 -0.2618  0.2523 -0.3543
   34DOPE   H3X 4341   1.346   4.051   4.583  2.1080  0.2037  0.0290
   34DOPE   H3Y 4342   1.426   3.931   4.681 -0.9922 -0.8668  0.4438
   34DOPE   C34 4343   1.224   3.934   4.718  0.2117  0.0448  0.2542
   34DOPE   H4X 4344   1.131   3.925   4.658  1.7041  2.9879 -2.7775
   34DOPE   H4Y 4345   1.228   3.842   4.780  0.7348  1.2258  2.0733
   34DOPE   C35 4346   1.215   4.056   4.813  0.0683  0.0898  0.2938
   34DOPE   H5X 4347   1.203   4.151   4.758 -0.6559  0.5535  1.2215
   34DOPE   H5Y 4348   1.321   4.064   4.846  0.0293  0.3255  0.3606
   34DOPE   C36 4349   1.126   4.031   4.929 -0.4330 -0.1683  0.2615
   34DOPE   H6X 4350   1.134   3.927   4.969 -1.3092 -0.3883 -0.1019
   34DOPE   H6Y 4351   1.022   4.037   4.891 -0.3815  0.0978  0.1603
   34DOPE   C37 4352   1.144   4.138   5.040 -0.1654 -0.2480  0.0228
   34DOPE   H7X 4353   1.252   4.145   5.065 -0.0069 -1.3928 -0.2964
   34DOPE   H7Y 4354   1.113   4.237   5.000 -0.8920  0.1430  1.4798
   34DOPE   C38 4355   1.071   4.114   5.170  1.0228  0.3616  1.2568
   34DOPE   H8X 4356   1.063   4.208   5.227  0.6205  0.9338  0.2879
   34DOPE   H8Y 4357   1.134   4.043   5.227  1.4690  0.3623  0.7748
   34DOPE   C39 4358   0.931   4.068   5.145 -0.2657  0.0928  0.2525
   34DOPE   H9X 4359   0.865   4.145   5.101  0.2559 -0.2474 -1.1917
   34DOPE  C310 4360   0.878   3.950   5.156  0.5517  0.0227  0.0147
   34DOPE  H10X 4361   0.773   3.939   5.123 -0.0479  3.5517  0.3616
   34DOPE  C311 4362   0.948   3.836   5.226 -0.2990  0.1437  0.1595
   34DOPE  H11X 4363   0.960   3.749   5.159  3.9372 -0.9965  2.1099
   34DOPE  H11Y 4364   1.052   3.862   5.256 -0.5270  1.5028 -0.1303
   34DOPE  C312 4365   0.881   3.788   5.350  0.5114  0.5410 -0.2828
   34DOPE  H12X 4366   0.925   3.689   5.378 -2.8016 -1.3222 -1.0995
   34DOPE  H12Y 4367   0.779   3.759   5.318  0.6279 -0.5300  0.2470
   34DOPE  C313 4368   0.899   3.881   5.470 -0.2200 -0.1401  0.8630
   34DOPE  H13X 4369   1.008   3.902   5.472 -0.0889 -0.6360 -0.3608
   34DOPE  H13Y 4370   0.850   3.975   5.437  0.4526 -0.4881 -1.3020
   34DOPE  C314 4371   0.847   3.822   5.597 -0.2338  0.0131  0.6611
   34DOPE  H14X 4372   0.867   3.713   5.594 -0.1355  0.0509 -1.5855
   34DOPE  H14Y 4373   0.737   3.836   5.593 -0.2056  0.9367  2.1374
   34DOPE  C315 4374   0.912   3.886   5.723 -0.2743  0.1145 -0.1154
   34DOPE  H15X 4375   0.882   3.992   5.736 -1.6264 -0.4376  1.7250
   34DOPE  H15Y 4376   1.021   3.888   5.703 -0.4381 -0.8507 -1.2267
   34DOPE  C316 4377   0.888   3.802   5.853  0.4335  0.4473 -0.4467
   34DOPE  H16X 4378   0.916   3.695   5.846  0.1984  0.1763  1.8681
   34DOPE  H16Y 4379   0.778   3.795   5.863  0.4441  2.1541  1.5114
   34DOPE  C317 4380   0.953   3.861   5.971  0.0859  0.4245  0.1730
   34DOPE  H17X 4381   1.064   3.858   5.970  0.0626 -0.5525 -0.7380
   34DOPE  H17Y 4382   0.927   3.967   5.993  1.1460  0.2817  2.4914
   34DOPE  C318 4383   0.925   3.788   6.103 -0.8330 -0.1015 -0.2485
   34DOPE  H18X 4384   0.820   3.809   6.133 -0.6569 -0.8142  0.9096
   34DOPE  H18Y 4385   0.938   3.678   6.108 -0.8483 -0.0956 -0.0973
   34DOPE  H18Z 4386   0.989   3.827   6.184 -0.5775 -1.0459  0.0095
   35DOPE     N 4387   5.459   1.946   3.420  0.2101 -0.2728 -0.1882
   35DOPE   HN1 4388   5.523   1.883   3.474 -0.8600  0.0996  1.5654
   35DOPE   HN2 4389   5.497   1.957   3.323  1.1227  1.7764  0.3635
   35DOPE   HN3 4390   5.475   2.037   3.466  3.1361 -0.2410 -1.0306
   35DOPE   C12 4391   5.323   1.884   3.425  0.3569  0.4470  0.2770
   35DOPE  H12A 4392   5.340   1.780   3.387  1.1495 -0.5041  3.0160
   35DOPE  H12B 4393   5.257   1.951   3.367 -1.5798 -0.4313  1.4024
   35DOPE   C11 4394   5.267   1.859   3.562 -0.5812  0.9156  0.3585
   35DOPE  H11A 4395   5.329   1.780   3.610  1.4642  0.5590 -2.6132
   35DOPE  H11B 4396   5.161   1.838   3.539 -0.9899  1.4456  1.6308
   35DOPE     P 4397   5.163   2.020   3.733  0.6062  0.1284  0.0795
   35DOPE   O13 4398   5.032   1.962   3.694  0.0494  0.0189  0.0008
   35DOPE   O14 4399   5.170   2.166   3.738  0.7547  0.2900  0.4696
   35DOPE   O11 4400   5.217   1.959   3.868 -0.1098  0.2402  0.1963
   35DOPE   O12 4401   5.279   1.977   3.635  0.3797 -0.3428 -0.3992
   35DOPE    C1 4402   5.137   1.871   3.948  0.0116 -0.5107  0.0739
   35DOPE    HA 4403   5.191   1.775   3.963  0.2986 -0.1645  1.3915
   35DOPE    HB 4404   5.035   1.848   3.912  0.3619 -1.2627 -0.4714
   35DOPE    C2 4405   5.128   1.956   4.081 -0.6548  0.5216 -0.3403
   35DOPE    HS 4406   5.097   2.058   4.050 -1.5688 -0.0425 -1.3833
   35DOPE   O21 4407   5.249   1.958   4.158  0.1767 -0.3890 -0.0987
   35DOPE   C21 4408   5.343   2.049   4.126 -0.3284  0.7228  0.0722
   35DOPE   O22 4409   5.327   2.135   4.044  0.3724 -0.5424  0.6322
   35DOPE   C22 4410   5.470   2.017   4.209 -0.2870  0.1365 -0.1453
   35DOPE   H2R 4411   5.555   2.019   4.137 -1.1904 -2.6963 -1.3899
   35DOPE   H2S 4412   5.469   1.917   4.255 -0.3860 -0.2322 -0.9290
   35DOPE    C3 4413   5.023   1.889   4.163 -0.9131  0.0289 -0.4342
   35DOPE    HX 4414   5.056   1.783   4.179  1.0830  0.8231  1.2185
   35DOPE    HY 4415   4.929   1.877   4.106 -0.0667  0.5507 -1.9860
   35DOPE   O31 4416   5.006   1.960   4.286  0.0304 -0.7175 -0.1067
   35DOPE   C31 4417   4.939   1.905   4.387 -0.3663  0.1830  0.4258
   35DOPE   O32 4418   4.874   1.801   4.383 -0.0332  0.5942 -0.3519
   35DOPE   C32 4419   4.951   1.992   4.515  0.0662 -0.3120  0.4189
   35DOPE   H2X 4420   5.059   2.005   4.538  0.1407  0.8095 -0.4568
   35DOPE   H2Y 4421   4.910   2.092   4.487  0.1329 -0.3972  0.0019
   35DOPE   C23 4422   5.502   2.120   4.324  0.2591  0.5335 -0.4669
   35DOPE   H3R 4423   5.445   2.215   4.312 -0.4030  0.1106 -0.7595
   35DOPE   H3S 4424   5.610   2.144   4.324  0.1127  1.2304 -1.0594
   35DOPE   C24 4425   5.473   2.063   4.459 -0.0643 -0.2840  0.4764
   35DOPE   H4R 4426   5.546   1.983   4.484 -1.9762 -2.6061 -0.8914
   35DOPE   H4S 4427   5.376   2.008   4.464 -0.3136  0.1128  0.0734
   35DOPE   C25 4428   5.479   2.163   4.572 -0.6466 -0.8467 -0.1861
   35DOPE   H5R 4429   5.418   2.254   4.557  0.2159  0.3056  2.6487
   35DOPE   H5S 4430   5.584   2.196   4.588 -1.2827  2.2486 -1.6674
   35DOPE   C26 4431   5.432   2.108   4.709 -0.6797  0.5348  0.1256
   35DOPE   H6R 4432   5.493   2.015   4.713  0.9726  1.5893  0.5816
   35DOPE   H6S 4433   5.324   2.083   4.701 -0.4447 -0.9447  1.0515
   35DOPE   C27 4434   5.477   2.192   4.827  0.0104  0.1280  0.5107
   35DOPE   H7R 4435   5.429   2.292   4.828 -1.2096 -0.3862 -1.1340
   35DOPE   H7S 4436   5.584   2.220   4.826 -0.1788  1.0910  2.3203
   35DOPE   C28 4437   5.445   2.128   4.963 -0.1470  0.1076 -0.1533
   35DOPE   H8R 4438   5.507   2.188   5.032  0.1866 -1.2999  0.8263
   35DOPE   H8S 4439   5.478   2.022   4.962  0.9836  0.4304 -2.1212
   35DOPE   C29 4440   5.298   2.125   5.001 -0.7905 -0.0897 -0.6328
   35DOPE   H9R 4441   5.235   2.090   4.918 -0.7354 -1.3495 -0.1620
   35DOPE  C210 4442   5.264   2.145   5.132 -0.1011 -0.5498  0.6165
   35DOPE  H10R 4443   5.161   2.118   5.159 -0.2949 -1.5539 -0.9869
   35DOPE  C211 4444   5.362   2.163   5.249 -0.0715  0.1069  0.4763
   35DOPE  H11R 4445   5.468   2.189   5.228 -0.4678  1.5793  0.1303
   35DOPE  H11S 4446   5.359   2.070   5.308 -0.5775  0.6165  1.2682
   35DOPE  C212 4447   5.311   2.264   5.355 -0.4454  0.0083  0.0768
   35DOPE  H12R 4448   5.225   2.220   5.409  0.7882 -1.8838  0.6035
   35DOPE  H12S 4449   5.272   2.351   5.298  1.0148 -0.3052 -1.4919
   35DOPE  C213 4450   5.422   2.306   5.460 -0.1631  1.4237 -0.1662
   35DOPE  H13R 4451   5.514   2.341   5.409  0.7878  1.2641  1.3628
   35DOPE  H13S 4452   5.457   2.216   5.515 -0.2568  0.7607 -1.1649
   35DOPE  C214 4453   5.367   2.410   5.559 -0.0287  0.2020 -0.6726
   35DOPE  H14R 4454   5.335   2.489   5.488 -1.6041  0.8780  0.7275
   35DOPE  H14S 4455   5.452   2.447   5.620  0.7924 -0.9812 -1.0480
   35DOPE  C215 4456   5.252   2.375   5.655 -0.4178  0.5422  0.1159
   35DOPE  H15R 4457   5.284   2.288   5.716  0.3106  0.4541 -0.3762
   35DOPE  H15S 4458   5.168   2.339   5.592  1.9711 -0.8540 -2.4643
   35DOPE  C216 4459   5.206   2.491   5.736 -0.0262 -0.1699 -0.7995
   35DOPE  H16R 4460   5.159   2.565   5.668 -1.2133 -0.9896 -0.9160
   35DOPE  H16S 4461   5.279   2.546   5.799 -1.6699  1.1934  0.0035
   35DOPE  C217 4462   5.097   2.451   5.840 -0.7654  0.3653  0.7356
   35DOPE  H17R 4463   5.137   2.372   5.906  4.5287  2.1142  0.1026
   35DOPE  H17S 4464   5.010   2.407   5.785 -0.8735 -0.8237  1.8309
   35DOPE  C218 4465   5.051   2.562   5.934  0.0102  0.0868  0.1249
   35DOPE  H18R 4466   5.026   2.644   5.863  0.4893 -0.0243 -0.1779
   35DOPE  H18S 4467   5.138   2.600   5.991 -0.4233 -0.0053  0.8640
   35DOPE  H18T 4468   4.960   2.536   5.992  0.3065 -1.1597  0.0555
   35DOPE   C33 4469   4.883   1.931   4.633  0.1264  0.2356  0.3282
   35DOPE   H3X 4470   4.926   1.828   4.632  0.8249  0.5112 -0.9019
   35DOPE   H3Y 4471   4.778   1.915   4.599  0.0765 -3.0634  1.6113
   35DOPE   C34 4472   4.901   2.002   4.770 -0.2091  0.4723 -0.1023
   35DOPE   H4X 4473   5.007   2.005   4.803  0.2673  1.2256 -1.6161
   35DOPE   H4Y 4474   4.862   2.104   4.751 -2.2089  0.2621  2.3183
   35DOPE   C35 4475   4.812   1.932   4.873  0.5020  0.2914  0.3408
   35DOPE   H5X 4476   4.860   1.832   4.885  0.8194  0.4031  0.0190
   35DOPE   H5Y 4477   4.708   1.921   4.836  0.7456  0.6204 -0.4650
   35DOPE   C36 4478   4.820   2.006   5.009  0.3618 -0.9332 -0.2597
   35DOPE   H6X 4479   4.772   2.106   5.003  1.4055 -0.3084  1.1753
   35DOPE   H6Y 4480   4.925   2.022   5.040  0.2204  0.7604 -0.5556
   35DOPE   C37 4481   4.748   1.928   5.120  0.6214  0.4621 -0.0701
   35DOPE   H7X 4482   4.638   1.925   5.104  0.8149  1.2886 -1.8485
   35DOPE   H7Y 4483   4.780   1.824   5.138 -0.1234  0.4836  1.4903
   35DOPE   C38 4484   4.759   1.987   5.267 -0.2370  0.2496 -0.6443
   35DOPE   H8X 4485   4.712   1.910   5.333  0.0148  0.7286  0.1070
   35DOPE   H8Y 4486   4.701   2.079   5.288  0.6775  0.6258  0.3274
   35DOPE   C39 4487   4.901   2.002   5.322  0.0066  0.7607  0.4493
   35DOPE   H9X 4488   4.967   1.918   5.294  1.0359  1.6832  0.0295
   35DOPE  C310 4489   4.953   2.108   5.393  0.2980 -0.2435 -0.1709
   35DOPE  H10X 4490   5.063   2.117   5.400  0.1934 -0.0874  2.2117
   35DOPE  C311 4491   4.882   2.236   5.433  0.1595 -0.2981  0.6064
   35DOPE  H11X 4492   4.771   2.228   5.428 -0.0598  0.0270  3.4632
   35DOPE  H11Y 4493   4.891   2.245   5.543 -1.5733 -2.7031  1.0362
   35DOPE  C312 4494   4.935   2.353   5.359 -0.5210 -0.4776 -0.5139
   35DOPE  H12X 4495   5.042   2.375   5.376 -0.7064 -0.4286  0.6364
   35DOPE  H12Y 4496   4.886   2.447   5.391  0.7814  0.5847 -1.5193
   35DOPE  C313 4497   4.906   2.350   5.209 -1.2169  0.1563  0.5468
   35DOPE  H13X 4498   4.961   2.263   5.167 -0.8173  0.7431 -0.1601
   35DOPE  H13Y 4499   4.797   2.342   5.194 -1.5226 -0.3722  2.6433
   35DOPE  C314 4500   4.966   2.474   5.135  0.4281  0.2209 -0.7626
   35DOPE  H14X 4501   5.074   2.486   5.160  0.2604 -0.0242  0.1260
   35DOPE  H14Y 4502   4.904   2.556   5.179  1.5389  0.3722  0.5923
   35DOPE  C315 4503   4.941   2.477   4.985  0.2453 -0.1645  0.5827
   35DOPE  H15X 4504   4.987   2.573   4.954  0.1657  0.2118  1.6062
   35DOPE  H15Y 4505   4.832   2.477   4.963  0.6058  0.0860 -1.4090
   35DOPE  C316 4506   4.997   2.354   4.909  0.0812  0.1597  0.3955
   35DOPE  H16X 4507   4.956   2.261   4.953  0.8088  0.7221  2.3619
   35DOPE  H16Y 4508   5.104   2.369   4.935 -0.0196  0.3724  0.6908
   35DOPE  C317 4509   4.986   2.360   4.755  0.5059 -0.3511  0.4772
   35DOPE  H17X 4510   5.061   2.435   4.724 -0.0576  0.4325  0.9775
   35DOPE  H17Y 4511   5.017   2.265   4.705  1.6204 -0.8312  2.0050
   35DOPE  C318 4512   4.848   2.392   4.701 -0.4874 -0.0150 -0.4344
   35DOPE  H18X 4513   4.774   2.320   4.743  0.0669  0.0848  0.7599
   35DOPE  H18Y 4514   4.814   2.496   4.716  0.6642  0.1223  1.6296
   35DOPE  H18Z 4515   4.857   2.385   4.591  1.0292  1.7369 -0.4693
   36DOPE     N 4516   4.793   3.850   3.434  0.3575 -0.1428 -0.5155
   36DOPE   HN1 4517   4.739   3.834   3.347 -2.4181  0.4174  0.9929
   36DOPE   HN2 4518   4.811   3.952   3.433  1.4759 -0.1731  2.7721
   36DOPE   HN3 4519   4.887   3.805   3.429  0.8213  0.7302  0.0291
   36DOPE   C12 4520   4.710   3.805   3.551 -0.1854  0.2489  0.2966
   36DOPE  H12A 4521   4.776   3.787   3.638 -0.5019  0.2540  0.5369
   36DOPE  H12B 4522   4.666   3.705   3.528  1.2904 -0.7508  1.6117
   36DOPE   C11 4523   4.599   3.901   3.581  0.4301  0.0866 -0.3795
   36DOPE  H11A 4524   4.643   4.000   3.606 -2.2643  1.5004 -0.8438
   36DOPE  H11B 4525   4.552   3.864   3.674  0.5359 -0.1691 -0.4277
   36DOPE     P 4526   4.379   3.833   3.436  0.3058 -0.7155  0.8064
   36DOPE   O13 4527   4.435   3.702   3.409  0.8065  0.0448 -0.7045
   36DOPE   O14 4528   4.309   3.892   3.319  0.2774 -0.7436 -0.5130
   36DOPE   O11 4529   4.280   3.826   3.558 -0.2734  0.3995  0.2433
   36DOPE   O12 4530   4.495   3.922   3.480 -0.2644 -0.8091  0.4478
   36DOPE    C1 4531   4.179   3.927   3.588 -1.0618  0.4744  1.2932
   36DOPE    HA 4532   4.076   3.913   3.551 -0.7691  0.7658  0.3186
   36DOPE    HB 4533   4.210   4.017   3.530  1.4224 -1.0086  0.1567
   36DOPE    C2 4534   4.179   3.969   3.732  0.3928 -0.1603 -0.0948
   36DOPE    HS 4535   4.097   4.042   3.749 -0.2957 -1.0606  0.5978
   36DOPE   O21 4536   4.306   4.026   3.759  0.4328 -0.2228 -0.0178
   36DOPE   C21 4537   4.307   4.122   3.853 -0.2200  0.7282  0.5948
   36DOPE   O22 4538   4.205   4.179   3.900 -0.3643 -0.1108 -0.2990
   36DOPE   C22 4539   4.451   4.157   3.881  0.0351 -0.2025 -0.3925
   36DOPE   H2R 4540   4.497   4.204   3.792  0.3681  1.2895  0.5399
   36DOPE   H2S 4541   4.506   4.061   3.892 -0.6328 -0.8665 -2.4579
   36DOPE    C3 4542   4.165   3.850   3.837  0.4264 -0.0458 -0.4114
   36DOPE    HX 4543   4.263   3.797   3.829  0.7401  0.4289  0.2565
   36DOPE    HY 4544   4.090   3.782   3.791  1.1043 -0.5969 -0.7288
   36DOPE   O31 4545   4.136   3.897   3.971  0.0506 -0.3748  0.4651
   36DOPE   C31 4546   4.008   3.917   3.995  0.3326 -0.8517 -0.8285
   36DOPE   O32 4547   3.913   3.915   3.919 -0.1308  0.1484  0.0928
   36DOPE   C32 4548   4.002   3.951   4.152 -0.3699  0.6972  0.5581
   36DOPE   H2X 4549   4.025   3.851   4.195 -2.7090 -0.5419 -0.8677
   36DOPE   H2Y 4550   4.088   4.019   4.169 -0.9017  1.6392 -0.4209
   36DOPE   C23 4551   4.464   4.242   4.010 -0.6220 -0.1855 -0.2354
   36DOPE   H3R 4552   4.423   4.345   4.014 -0.4931 -0.1369 -0.1147
   36DOPE   H3S 4553   4.573   4.255   4.030 -1.0268 -0.2950  2.4827
   36DOPE   C24 4554   4.415   4.167   4.142  0.0077 -0.1063  0.6950
   36DOPE   H4R 4555   4.440   4.059   4.131  0.3101  0.1188 -1.2043
   36DOPE   H4S 4556   4.305   4.177   4.135 -0.2530 -1.3740  2.4617
   36DOPE   C25 4557   4.476   4.226   4.260  0.0196 -0.1102 -0.0396
   36DOPE   H5R 4558   4.438   4.330   4.270 -0.5824 -0.4190  1.0098
   36DOPE   H5S 4559   4.587   4.234   4.250 -0.0957  1.8712 -0.1553
   36DOPE   C26 4560   4.435   4.158   4.386  0.1505  0.2779 -0.1924
   36DOPE   H6R 4561   4.467   4.052   4.391  1.2547  0.6169  0.3646
   36DOPE   H6S 4562   4.327   4.171   4.404 -0.2746 -1.8665 -0.9659
   36DOPE   C27 4563   4.514   4.211   4.505  0.1626 -0.5797 -0.1565
   36DOPE   H7R 4564   4.502   4.320   4.528 -0.4486 -0.5546 -0.5760
   36DOPE   H7S 4565   4.621   4.193   4.479  0.1978  0.4275 -0.7742
   36DOPE   C28 4566   4.484   4.146   4.638 -0.0283  0.0804 -0.5098
   36DOPE   H8R 4567   4.564   4.164   4.712 -0.9401  1.9236  0.0865
   36DOPE   H8S 4568   4.487   4.035   4.628  2.0791  0.1833 -1.4239
   36DOPE   C29 4569   4.349   4.181   4.691  0.8287 -0.7053  0.1126
   36DOPE   H9R 4570   4.268   4.168   4.618  1.2497  0.3448 -0.5689
   36DOPE  C210 4571   4.315   4.239   4.808 -0.1157 -0.2632 -0.2811
   36DOPE  H10R 4572   4.210   4.257   4.836 -0.4675  0.6208 -1.9981
   36DOPE  C211 4573   4.408   4.272   4.923  0.4228  0.4821 -0.2536
   36DOPE  H11R 4574   4.499   4.326   4.887  0.5368 -0.4292 -1.3980
   36DOPE  H11S 4575   4.436   4.178   4.975  2.2635  0.9414 -0.3436
   36DOPE  C212 4576   4.353   4.363   5.033 -0.5644  0.3777 -0.5242
   36DOPE  H12R 4577   4.313   4.459   4.995 -2.1887  0.4269  1.1227
   36DOPE  H12S 4578   4.434   4.396   5.102  2.2526  0.6360 -3.6999
   36DOPE  C213 4579   4.236   4.301   5.114  0.5842 -0.3858  0.2128
   36DOPE  H13R 4580   4.166   4.260   5.039  0.0736  1.0829 -0.1336
   36DOPE  H13S 4581   4.194   4.384   5.174  3.6301  0.6203  1.1489
   36DOPE  C214 4582   4.275   4.182   5.203  0.0068  0.0611  0.8539
   36DOPE  H14R 4583   4.338   4.112   5.144  1.4345  0.4470  1.8629
   36DOPE  H14S 4584   4.183   4.128   5.235 -0.1147 -1.7212 -2.1387
   36DOPE  C215 4585   4.360   4.224   5.318 -0.5342  0.3008  0.0582
   36DOPE  H15R 4586   4.316   4.311   5.371  1.0781  1.6217 -0.6855
   36DOPE  H15S 4587   4.463   4.247   5.283 -0.6165  0.3292 -0.1670
   36DOPE  C216 4588   4.392   4.108   5.423 -0.0352 -0.3399 -0.1215
   36DOPE  H16R 4589   4.418   4.017   5.364  2.3030  0.5832 -0.6229
   36DOPE  H16S 4590   4.308   4.096   5.495  1.3223  0.9434  1.7799
   36DOPE  C217 4591   4.516   4.132   5.511 -1.1053 -0.1178 -0.1518
   36DOPE  H17R 4592   4.491   4.224   5.567 -0.0317 -0.8698  1.6632
   36DOPE  H17S 4593   4.605   4.153   5.448  1.5341 -1.0260  3.0001
   36DOPE  C218 4594   4.561   4.016   5.596  0.6723  0.3848  0.3957
   36DOPE  H18R 4595   4.646   4.032   5.666  2.0165 -0.4262 -1.0055
   36DOPE  H18S 4596   4.587   3.940   5.520  1.8043  2.2868 -1.2393
   36DOPE  H18T 4597   4.469   3.979   5.646  1.4162 -1.1328  0.6952
   36DOPE   C33 4598   3.876   4.013   4.213  0.4394 -0.2940 -0.1928
   36DOPE   H3X 4599   3.791   3.941   4.208  0.8620 -0.8313  0.2597
   36DOPE   H3Y 4600   3.862   4.097   4.142 -0.3629  0.0507  0.3496
   36DOPE   C34 4601   3.911   4.067   4.354 -0.1887  0.0669  0.0825
   36DOPE   H4X 4602   4.010   4.117   4.343  0.0389 -0.4810 -0.3896
   36DOPE   H4Y 4603   3.844   4.151   4.385 -0.3874  0.4272 -1.2632
   36DOPE   C35 4604   3.920   3.973   4.469 -0.5278  0.0194 -0.7640
   36DOPE   H5X 4605   3.995   3.893   4.448  1.9075  1.6879  0.9312
   36DOPE   H5Y 4606   3.822   3.934   4.505  0.6130 -0.9590  1.4920
   36DOPE   C36 4607   3.976   4.039   4.598  0.1976  0.1992  0.5695
   36DOPE   H6X 4608   4.073   4.089   4.575  0.3186 -1.0707 -2.0688
   36DOPE   H6Y 4609   3.997   3.973   4.684  2.5237  0.6022  0.3663
   36DOPE   C37 4610   3.878   4.139   4.661 -0.6532  0.2462 -0.2976
   36DOPE   H7X 4611   3.864   4.228   4.596 -0.0287  1.7435  1.5176
   36DOPE   H7Y 4612   3.783   4.083   4.675  0.1330 -1.8272 -2.4898
   36DOPE   C38 4613   3.928   4.195   4.795 -0.2526  0.5120 -0.6345
   36DOPE   H8X 4614   3.876   4.293   4.807 -2.0667 -0.6828  2.5703
   36DOPE   H8Y 4615   4.035   4.215   4.773  1.3402 -2.1151  3.5001
   36DOPE   C39 4616   3.916   4.096   4.904  0.4860  0.3162 -0.0027
   36DOPE   H9X 4617   3.939   3.994   4.872  0.2572  0.7902 -1.8148
   36DOPE  C310 4618   3.864   4.126   5.027 -0.5613 -0.8367 -0.6639
   36DOPE  H10X 4619   3.871   4.050   5.106 -3.2325 -0.0829  0.4308
   36DOPE  C311 4620   3.820   4.263   5.084  0.1019  0.2812  1.2339
   36DOPE  H11X 4621   3.882   4.334   5.025  0.5647 -0.1452  1.1942
   36DOPE  H11Y 4622   3.714   4.287   5.060  0.8218  1.0137 -1.6424
   36DOPE  C312 4623   3.842   4.278   5.239 -0.5483 -1.0967 -0.4850
   36DOPE  H12X 4624   3.806   4.378   5.272  2.0580 -0.5306  0.8766
   36DOPE  H12Y 4625   3.952   4.271   5.253 -0.4528  2.4884  1.7552
   36DOPE  C313 4626   3.784   4.159   5.322  0.3853 -0.1644  0.6282
   36DOPE  H13X 4627   3.677   4.155   5.294  0.3049  0.2521  0.8803
   36DOPE  H13Y 4628   3.830   4.060   5.302  1.8466  0.6215 -0.0863
   36DOPE  C314 4629   3.788   4.196   5.473 -0.2511 -0.7832 -0.3900
   36DOPE  H14X 4630   3.745   4.110   5.530  1.3512 -0.2909  1.6910
   36DOPE  H14Y 4631   3.741   4.296   5.479  0.0705 -0.7123  2.2107
   36DOPE  C315 4632   3.929   4.204   5.541  0.3150 -0.0435  0.3958
   36DOPE  H15X 4633   4.001   4.274   5.492  1.4563 -1.6394 -0.2916
   36DOPE  H15Y 4634   3.969   4.103   5.520 -1.7981 -0.7686 -0.4897
   36DOPE  C316 4635   3.937   4.222   5.692 -0.4977  0.3408 -0.2335
   36DOPE  H16X 4636   3.871   4.147   5.740  0.2766 -0.5684 -0.5567
   36DOPE  H16Y 4637   3.899   4.323   5.716 -0.4964  0.0685  0.9877
   36DOPE  C317 4638   4.077   4.191   5.758  0.1134 -0.3820  0.0901
   36DOPE  H17X 4639   4.082   4.220   5.865 -1.0091 -0.0158  0.0489
   36DOPE  H17Y 4640   4.104   4.085   5.738 -1.6313 -0.5338 -1.8779
   36DOPE  C318 4641   4.193   4.265   5.690 -0.3775 -0.4295  0.2082
   36DOPE  H18X 4642   4.186   4.375   5.706  1.9528  0.1550 -2.1296
   36DOPE  H18Y 4643   4.289   4.231   5.733  0.6930  0.7788 -1.1106
   36DOPE  H18Z 4644   4.198   4.245   5.580  0.4321  0.5968  0.0464
   37DOPE     N 4645   1.819   2.196   3.682 -0.2837 -0.3607 -0.7159
   37DOPE   HN1 4646   1.777   2.186   3.587  0.6613  0.1745 -1.2086
   37DOPE   HN2 4647   1.814   2.299   3.696  0.7260 -0.3239 -0.5649
   37DOPE   HN3 4648   1.914   2.154   3.687  0.4856  1.2964 -0.8170
   37DOPE   C12 4649   1.727   2.146   3.797  0.2382 -0.6314  0.0972
   37DOPE  H12A 4650   1.728   2.036   3.810  1.0341 -0.8432 -1.5396
   37DOPE  H12B 4651   1.626   2.184   3.770  1.2486 -0.0609 -3.3343
   37DOPE   C11 4652   1.771   2.215   3.930 -0.4366  0.1487 -0.1138
   37DOPE  H11A 4653   1.871   2.172   3.953  0.2347  0.6248 -1.9193
   37DOPE  H11B 4654   1.707   2.179   4.013 -0.5479 -0.2478 -0.3668
   37DOPE     P 4655   1.823   2.429   4.059  0.2074  0.4058  0.1605
   37DOPE   O13 4656   1.833   2.569   4.029 -0.0669  0.0343 -0.0061
   37DOPE   O14 4657   1.942   2.369   4.118 -0.1214  0.3136 -0.6937
   37DOPE   O11 4658   1.694   2.411   4.148 -0.2868  0.0112 -0.1681
   37DOPE   O12 4659   1.786   2.353   3.923  0.2577  0.1568 -0.3699
   37DOPE    C1 4660   1.578   2.484   4.107  0.5250 -0.3880 -0.0888
   37DOPE    HA 4661   1.484   2.435   4.140  2.2982 -2.6032  2.1304
   37DOPE    HB 4662   1.576   2.516   4.001  0.5366  0.7609  0.2502
   37DOPE    C2 4663   1.579   2.615   4.184 -0.3644 -0.6007  0.2545
   37DOPE    HS 4664   1.672   2.674   4.166 -1.1276  0.1177 -1.6414
   37DOPE   O21 4665   1.567   2.591   4.324  0.1257 -0.1428  0.1560
   37DOPE   C21 4666   1.603   2.692   4.404 -0.0259  0.7962 -0.4689
   37DOPE   O22 4667   1.634   2.801   4.358 -0.3176  0.0806 -0.0990
   37DOPE   C22 4668   1.586   2.657   4.554  0.5188 -0.1685 -0.1168
   37DOPE   H2R 4669   1.665   2.580   4.568  1.3581  0.3655 -1.6726
   37DOPE   H2S 4670   1.487   2.611   4.576  0.9181  0.5206  3.7181
   37DOPE    C3 4671   1.465   2.702   4.128 -0.3235 -0.5653  0.0400
   37DOPE    HX 4672   1.484   2.719   4.020 -0.4106 -1.5351 -0.1360
   37DOPE    HY 4673   1.454   2.801   4.178 -1.5551 -0.7737  0.2090
   37DOPE   O31 4674   1.330   2.648   4.133 -0.4676 -0.5601 -1.1914
   37DOPE   C31 4675   1.269   2.659   4.251  0.6329 -0.1553  0.1050
   37DOPE   O32 4676   1.302   2.729   4.346 -0.2818  0.1702 -0.3086
   37DOPE   C32 4677   1.136   2.592   4.233  0.5655 -0.1336  0.2654
   37DOPE   H2X 4678   1.073   2.627   4.148  0.1864 -1.1126  0.1249
   37DOPE   H2Y 4679   1.159   2.483   4.225  2.1806  0.2156 -0.0746
   37DOPE   C23 4680   1.626   2.774   4.644 -0.3543 -0.0477 -0.3110
   37DOPE   H3R 4681   1.545   2.850   4.632  0.1709  0.3466 -1.5972
   37DOPE   H3S 4682   1.715   2.826   4.601  0.7616 -0.0752  1.8265
   37DOPE   C24 4683   1.653   2.733   4.787  0.4527  0.2391  0.2223
   37DOPE   H4R 4684   1.751   2.682   4.796 -0.2749 -0.8646  2.8546
   37DOPE   H4S 4685   1.570   2.667   4.821  0.7787 -0.9116 -1.1386
   37DOPE   C25 4686   1.656   2.864   4.870  0.1996  0.1815  0.1483
   37DOPE   H5R 4687   1.560   2.919   4.871  1.1583  1.9167  0.8643
   37DOPE   H5S 4688   1.739   2.929   4.835  1.0554 -0.6638  0.5363
   37DOPE   C26 4689   1.693   2.840   5.019 -0.4076 -0.4360 -0.4033
   37DOPE   H6R 4690   1.589   2.837   5.057 -0.0361  1.7616  0.9591
   37DOPE   H6S 4691   1.735   2.932   5.064  2.9593 -0.8458 -2.4064
   37DOPE   C27 4692   1.788   2.729   5.062  0.3402 -0.2633 -0.0418
   37DOPE   H7R 4693   1.878   2.733   4.997  1.9705  0.7582  2.1526
   37DOPE   H7S 4694   1.734   2.634   5.041  0.8953 -0.7692  0.7768
   37DOPE   C28 4695   1.833   2.728   5.206 -0.6198 -0.3065 -0.1847
   37DOPE   H8R 4696   1.744   2.720   5.272 -0.4165 -2.1664 -0.0926
   37DOPE   H8S 4697   1.881   2.827   5.218  0.4830 -1.0050  1.3269
   37DOPE   C29 4698   1.931   2.620   5.235 -0.0055 -0.9580 -0.2680
   37DOPE   H9R 4699   2.016   2.608   5.166 -2.0431 -0.3542 -3.0578
   37DOPE  C210 4700   1.931   2.539   5.336  0.4165  0.2756 -0.1641
   37DOPE  H10R 4701   2.005   2.458   5.329 -1.9670 -1.9102 -1.8885
   37DOPE  C211 4702   1.839   2.534   5.448  0.0518  0.4353 -0.3371
   37DOPE  H11R 4703   1.800   2.431   5.464  1.0721  0.0735 -0.1136
   37DOPE  H11S 4704   1.742   2.587   5.430 -0.2814  0.5343  1.5905
   37DOPE  C212 4705   1.903   2.593   5.569 -0.3048 -0.1421 -0.1550
   37DOPE  H12R 4706   1.919   2.703   5.566 -1.1328 -0.0386 -1.5849
   37DOPE  H12S 4707   2.005   2.554   5.593 -0.0389  0.3367 -0.4792
   37DOPE  C213 4708   1.813   2.582   5.698 -1.2924  0.0512  0.6944
   37DOPE  H13R 4709   1.712   2.621   5.672  0.1892  3.9765  0.0783
   37DOPE  H13S 4710   1.870   2.643   5.771  1.0924 -2.3531  1.0124
   37DOPE  C214 4711   1.806   2.442   5.746 -0.2002  0.5706 -0.3333
   37DOPE  H14R 4712   1.904   2.396   5.724 -0.0870  1.3006 -1.4698
   37DOPE  H14S 4713   1.733   2.380   5.690  3.2348 -2.7449 -1.5432
   37DOPE  C215 4714   1.778   2.439   5.890  0.7845  0.0740 -0.1217
   37DOPE  H15R 4715   1.687   2.494   5.923  0.3384 -0.2478 -0.8182
   37DOPE  H15S 4716   1.866   2.475   5.949  0.9659 -2.1095  1.0582
   37DOPE  C216 4717   1.745   2.302   5.945  0.3357  0.7922 -0.4556
   37DOPE  H16R 4718   1.807   2.219   5.906  0.5911 -0.3370  2.1823
   37DOPE  H16S 4719   1.641   2.278   5.914 -0.7698  1.8047  2.2045
   37DOPE  C217 4720   1.741   2.286   6.099 -0.3022 -0.2230  0.4720
   37DOPE  H17R 4721   1.651   2.338   6.137  1.0494  2.0237  0.8075
   37DOPE  H17S 4722   1.836   2.330   6.137  0.3651 -1.2397  0.0250
   37DOPE  C218 4723   1.745   2.143   6.143 -0.4137  0.5809  0.4545
   37DOPE  H18R 4724   1.842   2.101   6.111 -1.4220 -2.2046  0.7899
   37DOPE  H18S 4725   1.666   2.088   6.087 -0.1228 -1.0933  1.5989
   37DOPE  H18T 4726   1.738   2.126   6.253  1.4711 -1.9863  0.2654
   37DOPE   C33 4727   1.050   2.612   4.356 -0.1606  0.1035  0.3019
   37DOPE   H3X 4728   1.018   2.719   4.359  3.4375  1.3419 -0.4940
   37DOPE   H3Y 4729   1.112   2.601   4.448  0.4325 -2.5602 -0.3378
   37DOPE   C34 4730   0.926   2.524   4.370  0.5583  0.3949 -0.2134
   37DOPE   H4X 4731   0.885   2.513   4.267 -2.0002 -0.1271  0.7731
   37DOPE   H4Y 4732   0.955   2.420   4.397 -0.4580 -0.1407 -1.0906
   37DOPE   C35 4733   0.812   2.569   4.465  0.2548  0.0851 -0.0377
   37DOPE   H5X 4734   0.730   2.495   4.454 -1.4889  1.0494  4.5770
   37DOPE   H5Y 4735   0.779   2.668   4.427 -1.8601 -0.5187  0.1170
   37DOPE   C36 4736   0.848   2.580   4.614 -0.2078 -0.1753  0.0896
   37DOPE   H6X 4737   0.945   2.634   4.626  0.8077 -1.8363 -0.2359
   37DOPE   H6Y 4738   0.862   2.479   4.657 -1.0894 -0.6275 -0.6660
   37DOPE   C37 4739   0.739   2.660   4.683 -0.3307 -0.7239  0.1725
   37DOPE   H7X 4740   0.743   2.771   4.673  2.0981 -0.7158  0.5715
   37DOPE   H7Y 4741   0.640   2.621   4.653 -1.3917  1.1657  1.0172
   37DOPE   C38 4742   0.742   2.631   4.842  0.3963  0.4996  0.3648
   37DOPE   H8X 4743   0.647   2.679   4.873 -0.1848 -0.1228 -0.3785
   37DOPE   H8Y 4744   0.820   2.691   4.893  0.1006  0.7047  0.5730
   37DOPE   C39 4745   0.723   2.495   4.886 -0.3283  1.0471 -0.3411
   37DOPE   H9X 4746   0.638   2.442   4.840  0.6185 -0.9687  0.1098
   37DOPE  C310 4747   0.806   2.415   4.963  0.2334 -0.2428  0.4921
   37DOPE  H10X 4748   0.772   2.311   4.976 -2.7411  0.5009 -0.4338
   37DOPE  C311 4749   0.933   2.457   5.025 -0.0653  0.2412 -0.0672
   37DOPE  H11X 4750   1.015   2.406   4.970 -0.0989  1.3680 -1.2166
   37DOPE  H11Y 4751   0.950   2.567   5.024 -2.6598  0.7194 -0.9037
   37DOPE  C312 4752   0.944   2.421   5.180 -0.4363  0.4294  0.8123
   37DOPE  H12X 4753   1.037   2.467   5.220  0.0227 -0.2820  0.5848
   37DOPE  H12Y 4754   0.964   2.312   5.179 -1.8390  0.1557  0.4828
   37DOPE  C313 4755   0.821   2.461   5.262 -0.0648 -0.3438  0.3913
   37DOPE  H13X 4756   0.796   2.569   5.257 -0.7724 -0.5560 -1.1263
   37DOPE  H13Y 4757   0.729   2.412   5.223  0.3707  0.1224 -1.3037
   37DOPE  C314 4758   0.845   2.415   5.413 -0.5745  0.0855  0.5729
   37DOPE  H14X 4759   0.942   2.463   5.435 -1.3082  2.9142 -1.7748
   37DOPE  H14Y 4760   0.854   2.304   5.416 -0.2815  0.0635 -0.6254
   37DOPE  C315 4761   0.742   2.474   5.505  0.3815 -0.4920  0.1618
   37DOPE  H15X 4762   0.634   2.458   5.483  0.2139  0.8074 -0.0301
   37DOPE  H15Y 4763   0.758   2.584   5.504 -0.6143 -0.3347 -1.7181
   37DOPE  C316 4764   0.783   2.435   5.650  0.1340  0.7449  0.4534
   37DOPE  H16X 4765   0.891   2.449   5.671  0.1845 -1.4756  1.9626
   37DOPE  H16Y 4766   0.760   2.327   5.657 -1.2492  1.0387  0.7735
   37DOPE  C317 4767   0.704   2.523   5.749 -0.1840  0.2199 -1.0609
   37DOPE  H17X 4768   0.720   2.631   5.733 -2.8871  0.5965 -1.7066
   37DOPE  H17Y 4769   0.597   2.498   5.730 -0.7100  0.7628  0.9789
   37DOPE  C318 4770   0.734   2.496   5.897  0.0669 -1.1165  0.5859
   37DOPE  H18X 4771   0.746   2.389   5.927 -1.9106 -2.0890 -1.7761
   37DOPE  H18Y 4772   0.831   2.544   5.924  2.0866 -4.6541  0.3093
   37DOPE  H18Z 4773   0.652   2.536   5.961 -0.4099  1.4979 -1.5243
   38DOPE     N 4774   3.424   5.123   3.801 -0.6049  0.8585 -0.5423
   38DOPE   HN1 4775   3.378   5.186   3.732  1.2015  1.6713 -1.0667
   38DOPE   HN2 4776   3.374   5.132   3.891 -1.0569  1.1379 -0.8160
   38DOPE   HN3 4777   3.522   5.154   3.819  0.1044 -1.3770 -0.2366
   38DOPE   C12 4778   3.429   4.984   3.739  0.1919 -0.2246  0.2416
   38DOPE  H12A 4779   3.422   5.002   3.630 -1.5060  1.3709  0.5819
   38DOPE  H12B 4780   3.344   4.920   3.769  1.2609 -1.4889  0.6859
   38DOPE   C11 4781   3.563   4.915   3.775 -0.2396 -0.1952 -0.0764
   38DOPE  H11A 4782   3.548   4.812   3.737  0.0151  0.4807 -2.1071
   38DOPE  H11B 4783   3.584   4.916   3.884 -1.9166  0.7964  0.2728
   38DOPE     P 4784   3.767   5.092   3.755  0.3286  0.4861  0.1349
   38DOPE   O13 4785   3.676   5.163   3.849 -0.2226 -0.1135  0.1912
   38DOPE   O14 4786   3.808   5.168   3.638  0.0777 -0.5716 -0.0397
   38DOPE   O11 4787   3.894   5.030   3.828 -0.0202  0.6256  0.9499
   38DOPE   O12 4788   3.678   4.971   3.704  0.2752 -0.1761 -0.9305
   38DOPE    C1 4789   3.925   5.032   3.967  0.3550  0.7348  0.4400
   38DOPE    HA 4790   3.882   5.117   4.024 -3.9953 -0.7942 -0.1581
   38DOPE    HB 4791   4.035   5.027   3.974  0.5924  2.6455 -1.1490
   38DOPE    C2 4792   3.867   4.903   4.028 -0.7560 -0.6656 -0.0015
   38DOPE    HS 4793   3.756   4.899   4.038 -0.8675  0.5295 -0.5776
   38DOPE   O21 4794   3.919   4.897   4.166 -0.0246  0.1030  0.5586
   38DOPE   C21 4795   3.832   4.943   4.259 -0.8701  0.0381 -0.5319
   38DOPE   O22 4796   3.731   5.001   4.239 -0.4145 -0.4156 -0.0220
   38DOPE   C22 4797   3.892   4.919   4.402 -0.7034  0.0012  0.7851
   38DOPE   H2R 4798   4.001   4.939   4.395 -0.4953 -0.6354  1.9582
   38DOPE   H2S 4799   3.864   4.814   4.427 -0.0363 -0.8052 -1.6186
   38DOPE    C3 4800   3.905   4.774   3.949  0.9095  0.5522  0.5060
   38DOPE    HX 4801   4.014   4.780   3.929  0.9545  0.9419  0.8653
   38DOPE    HY 4802   3.836   4.787   3.862 -1.6949  1.5626  2.5753
   38DOPE   O31 4803   3.879   4.658   4.036  0.1239 -0.0651  0.0429
   38DOPE   C31 4804   3.774   4.588   4.011 -0.7662 -0.5788 -0.3836
   38DOPE   O32 4805   3.682   4.626   3.940  0.0625 -0.7891 -0.2504
   38DOPE   C32 4806   3.767   4.452   4.085 -0.7729 -0.3705  0.0305
   38DOPE   H2X 4807   3.661   4.421   4.075 -0.9957  0.4429 -0.1892
   38DOPE   H2Y 4808   3.834   4.389   4.023  1.0740  2.3989 -0.9706
   38DOPE   C23 4809   3.818   5.011   4.509  0.0463 -0.1386  0.4431
   38DOPE   H3R 4810   3.712   4.979   4.516 -0.3337  1.0763  0.4897
   38DOPE   H3S 4811   3.818   5.111   4.460  2.2515 -1.1134 -1.8345
   38DOPE   C24 4812   3.885   5.000   4.646 -0.4264  0.2317  0.1820
   38DOPE   H4R 4813   3.991   5.035   4.639 -0.1596 -0.6395 -0.2447
   38DOPE   H4S 4814   3.893   4.891   4.665  0.6961  0.1907 -0.4287
   38DOPE   C25 4815   3.811   5.065   4.756  0.8265 -0.2608 -0.2076
   38DOPE   H5R 4816   3.707   5.030   4.770  1.2758 -1.2555  0.7819
   38DOPE   H5S 4817   3.808   5.174   4.735 -1.4738 -0.3003 -0.3550
   38DOPE   C26 4818   3.871   5.041   4.897  0.9482  0.3562  0.2293
   38DOPE   H6R 4819   3.974   5.078   4.917  1.2901 -2.0132  3.8320
   38DOPE   H6S 4820   3.868   4.932   4.916  2.0309  0.3115  0.2176
   38DOPE   C27 4821   3.782   5.111   5.005 -0.0973 -0.2463  0.5705
   38DOPE   H7R 4822   3.685   5.065   4.978  0.4753 -1.9092  1.2012
   38DOPE   H7S 4823   3.767   5.220   4.990 -0.7397 -0.6329 -2.1760
   38DOPE   C28 4824   3.820   5.070   5.147 -0.5544 -0.0624 -0.3289
   38DOPE   H8R 4825   3.910   5.129   5.171 -1.7229  1.4550  0.4685
   38DOPE   H8S 4826   3.859   4.966   5.142  2.6360  1.0121  0.4612
   38DOPE   C29 4827   3.705   5.074   5.243  0.0990  0.3170 -0.1392
   38DOPE   H9R 4828   3.606   5.068   5.197 -0.7407  1.2574  1.4421
   38DOPE  C210 4829   3.718   5.111   5.372 -1.1430  0.0270  0.0369
   38DOPE  H10R 4830   3.628   5.115   5.434 -1.1090  2.3154  0.0067
   38DOPE  C211 4831   3.845   5.156   5.439 -0.1191  0.4521 -0.0437
   38DOPE  H11R 4832   3.843   5.267   5.440  1.0447  0.5369 -1.6899
   38DOPE  H11S 4833   3.942   5.124   5.394  0.1102  3.5168 -1.9666
   38DOPE  C212 4834   3.842   5.117   5.591  0.1299  0.3720 -0.0705
   38DOPE  H12R 4835   3.938   5.112   5.646 -1.2172 -0.1828  2.3728
   38DOPE  H12S 4836   3.798   5.015   5.596  0.1683  0.2825 -1.2700
   38DOPE  C213 4837   3.756   5.220   5.664 -0.4275 -0.5635 -0.1778
   38DOPE  H13R 4838   3.650   5.226   5.630 -0.0638 -2.0101 -1.6913
   38DOPE  H13S 4839   3.808   5.317   5.650  2.1276 -1.6792  0.8672
   38DOPE  C214 4840   3.761   5.198   5.814  0.0490 -0.0312 -0.1700
   38DOPE  H14R 4841   3.868   5.215   5.837 -0.2701 -0.1034  1.4574
   38DOPE  H14S 4842   3.742   5.096   5.852 -2.3807  0.4821  0.1954
   38DOPE  C215 4843   3.667   5.282   5.902  0.1779  0.8174 -0.6343
   38DOPE  H15R 4844   3.689   5.259   6.008 -0.5035 -0.6846 -0.7824
   38DOPE  H15S 4845   3.562   5.256   5.880 -0.6207  2.6976  0.7391
   38DOPE  C216 4846   3.691   5.433   5.888  0.1795  0.6452  0.3649
   38DOPE  H16R 4847   3.604   5.476   5.943 -0.0483 -0.7465  1.1489
   38DOPE  H16S 4848   3.675   5.455   5.781  0.1824 -0.4229  0.1291
   38DOPE  C217 4849   3.820   5.469   5.955 -0.5851  0.2001 -0.2922
   38DOPE  H17R 4850   3.906   5.425   5.902 -1.0497 -2.2421  0.8108
   38DOPE  H17S 4851   3.813   5.457   6.066  1.5455  1.3815  0.0091
   38DOPE  C218 4852   3.847   5.621   5.928 -0.2892  0.4549 -0.2353
   38DOPE  H18R 4853   3.758   5.684   5.948 -0.4661  0.1910 -0.1833
   38DOPE  H18S 4854   3.857   5.634   5.818 -0.5478 -1.5199 -0.5309
   38DOPE  H18T 4855   3.931   5.654   5.992  1.0057 -0.6094 -1.3203
   38DOPE   C33 4856   3.811   4.463   4.235  0.0892  0.4686 -0.4237
   38DOPE   H3X 4857   3.917   4.482   4.259  0.5943 -0.7563 -1.5452
   38DOPE   H3Y 4858   3.806   4.360   4.277  1.0517  0.7573  0.4240
   38DOPE   C34 4859   3.713   4.541   4.322 -0.6173 -0.4703 -0.4419
   38DOPE   H4X 4860   3.706   4.644   4.281  0.0352 -0.5691 -0.8093
   38DOPE   H4Y 4861   3.608   4.503   4.317 -0.9329  0.2158  0.6318
   38DOPE   C35 4862   3.756   4.555   4.468 -0.6857  0.7817 -0.6422
   38DOPE   H5X 4863   3.855   4.604   4.467 -1.2197  1.8870 -2.2408
   38DOPE   H5Y 4864   3.774   4.450   4.500  1.1227  1.2466 -0.0492
   38DOPE   C36 4865   3.649   4.633   4.558 -0.3547  0.2648 -0.2327
   38DOPE   H6X 4866   3.553   4.580   4.540 -0.7052  0.1163  1.8806
   38DOPE   H6Y 4867   3.661   4.730   4.505  3.0583  0.2006  0.1706
   38DOPE   C37 4868   3.697   4.632   4.699  0.0970 -0.1727 -0.1971
   38DOPE   H7X 4869   3.720   4.527   4.729  2.5276  0.3266 -0.1205
   38DOPE   H7Y 4870   3.791   4.690   4.710 -0.3683  0.3988  0.8939
   38DOPE   C38 4871   3.591   4.667   4.808 -0.2233  0.5786  1.8545
   38DOPE   H8X 4872   3.523   4.580   4.823  0.6671 -0.8075 -1.3209
   38DOPE   H8Y 4873   3.530   4.746   4.759  0.3284  1.0142  1.8694
   38DOPE   C39 4874   3.650   4.727   4.930  0.2089  0.1913 -0.3025
   38DOPE   H9X 4875   3.708   4.817   4.904  0.1416  0.5555  0.7527
   38DOPE  C310 4876   3.648   4.693   5.058  0.0306 -0.4993  0.2151
   38DOPE  H10X 4877   3.712   4.758   5.120  0.6182 -0.4499 -0.4242
   38DOPE  C311 4878   3.581   4.573   5.117  0.0830  0.5967 -0.5304
   38DOPE  H11X 4879   3.507   4.527   5.049  0.9793 -0.6433 -0.7088
   38DOPE  H11Y 4880   3.653   4.490   5.139  1.0620  1.2043 -1.3342
   38DOPE  C312 4881   3.518   4.592   5.257  0.0598 -0.2109  0.1511
   38DOPE  H12X 4882   3.452   4.681   5.259  1.1559  0.6157  0.2564
   38DOPE  H12Y 4883   3.605   4.610   5.323 -0.4970 -0.5991  1.0107
   38DOPE  C313 4884   3.449   4.469   5.304 -0.0206  0.2443  0.4312
   38DOPE  H13X 4885   3.360   4.451   5.240  1.9654  0.8183 -2.7335
   38DOPE  H13Y 4886   3.515   4.385   5.273  2.0017  1.6473  0.7532
   38DOPE  C314 4887   3.426   4.460   5.454 -0.7222 -0.0049 -0.1860
   38DOPE  H14X 4888   3.528   4.484   5.492  0.5775 -2.0451 -2.1270
   38DOPE  H14Y 4889   3.393   4.362   5.495  1.1581 -1.3226 -1.6921
   38DOPE  C315 4890   3.336   4.580   5.498 -0.0249  0.0106  0.3267
   38DOPE  H15X 4891   3.244   4.594   5.438 -0.1171  2.7964  0.9884
   38DOPE  H15Y 4892   3.395   4.672   5.479  0.7652 -0.4139  0.6567
   38DOPE  C316 4893   3.294   4.568   5.643  0.2175 -0.0527  0.1262
   38DOPE  H16X 4894   3.383   4.569   5.709 -1.6462  0.0671  2.8218
   38DOPE  H16Y 4895   3.244   4.470   5.659 -3.1276  1.2499 -1.4181
   38DOPE  C317 4896   3.198   4.690   5.669  0.5854  0.1577 -1.1041
   38DOPE  H17X 4897   3.229   4.789   5.630 -1.2857  1.8480  1.3751
   38DOPE  H17Y 4898   3.100   4.672   5.619 -0.2172  0.0178  0.4762
   38DOPE  C318 4899   3.165   4.706   5.821  0.3859  0.4565 -0.5113
   38DOPE  H18X 4900   3.256   4.715   5.883 -0.4905 -0.1949  0.9153
   38DOPE  H18Y 4901   3.093   4.789   5.838  0.0934 -0.4207  3.3301
   38DOPE  H18Z 4902   3.119   4.610   5.851  1.6752  0.2709  0.9596
   39DOPE     N 4903   0.950   3.107   4.056  0.3900  0.0458 -0.4068
   39DOPE   HN1 4904   0.973   3.020   4.004 -0.8092 -1.0531  0.8012
   39DOPE   HN2 4905   1.005   3.082   4.141  1.1737 -1.8331 -1.3983
   39DOPE   HN3 4906   0.847   3.108   4.075 -0.0148  1.3068 -2.4011
   39DOPE   C12 4907   0.990   3.229   3.986  0.2900  0.3651  0.1979
   39DOPE  H12A 4908   1.099   3.226   3.965  0.0762 -1.5125 -0.8941
   39DOPE  H12B 4909   0.959   3.318   4.045  0.2345  1.2612 -1.1357
   39DOPE   C11 4910   0.924   3.248   3.850  0.0396 -0.1325 -0.2432
   39DOPE  H11A 4911   0.942   3.160   3.785  0.4460 -2.6511  3.0331
   39DOPE  H11B 4912   0.969   3.326   3.786  0.2465 -0.7176 -0.8238
   39DOPE     P 4913   0.715   3.412   3.871 -0.0270  0.3109  0.1023
   39DOPE   O13 4914   0.682   3.449   3.731  0.0917  0.2749  0.1311
   39DOPE   O14 4915   0.796   3.514   3.944 -0.3079 -0.4783  0.0762
   39DOPE   O11 4916   0.583   3.384   3.953 -0.3865 -0.0784 -0.4389
   39DOPE   O12 4917   0.785   3.272   3.862  1.2875 -0.1438 -0.4613
   39DOPE    C1 4918   0.589   3.339   4.088  0.7337  0.1505  0.5309
   39DOPE    HA 4919   0.684   3.288   4.114 -0.5161 -2.8483 -0.3674
   39DOPE    HB 4920   0.510   3.262   4.099 -0.1761  1.1386  1.1443
   39DOPE    C2 4921   0.557   3.454   4.191  0.1095  0.4836  0.4314
   39DOPE    HS 4922   0.649   3.516   4.193  1.1774 -0.6857 -3.7194
   39DOPE   O21 4923   0.521   3.398   4.317  0.5933  0.7955  0.5484
   39DOPE   C21 4924   0.625   3.350   4.385 -0.4356 -0.1370 -0.4229
   39DOPE   O22 4925   0.739   3.356   4.345  0.0833  0.6251  0.0283
   39DOPE   C22 4926   0.583   3.304   4.518  0.2357  0.2436 -0.2266
   39DOPE   H2R 4927   0.489   3.247   4.506 -0.2674  1.2077 -1.0069
   39DOPE   H2S 4928   0.553   3.389   4.583 -2.6100 -0.4915 -0.4542
   39DOPE    C3 4929   0.441   3.542   4.132  0.3211 -0.5415 -0.3348
   39DOPE    HX 4930   0.361   3.481   4.085  2.1502 -1.5730 -2.3139
   39DOPE    HY 4931   0.494   3.586   4.045  1.7505 -3.0089 -0.8163
   39DOPE   O31 4932   0.404   3.648   4.222 -0.0803 -0.1103 -0.0754
   39DOPE   C31 4933   0.274   3.661   4.245  0.1021  0.3067 -0.3294
   39DOPE   O32 4934   0.188   3.589   4.192  0.4699  0.1732 -0.2291
   39DOPE   C32 4935   0.242   3.778   4.333  0.6859  0.0137 -0.9139
   39DOPE   H2X 4936   0.335   3.833   4.356 -1.1710  2.2333  2.0188
   39DOPE   H2Y 4937   0.180   3.856   4.283  1.6866  1.2295 -0.3127
   39DOPE   C23 4938   0.693   3.219   4.595 -0.2165 -0.2911  0.2233
   39DOPE   H3R 4939   0.782   3.281   4.617  0.8618 -1.5242 -0.5021
   39DOPE   H3S 4940   0.734   3.142   4.526  4.7213  2.1592  0.0121
   39DOPE   C24 4941   0.641   3.156   4.725  0.3845 -0.3731  0.6286
   39DOPE   H4R 4942   0.562   3.083   4.700  1.1767 -1.1980  0.4723
   39DOPE   H4S 4943   0.605   3.242   4.786 -0.7735 -0.8245  0.6015
   39DOPE   C25 4944   0.749   3.086   4.806 -0.4615  0.2062  0.1181
   39DOPE   H5R 4945   0.834   3.156   4.819 -0.8747  0.4543  1.7017
   39DOPE   H5S 4946   0.766   2.990   4.754 -0.3845 -0.5912  1.5531
   39DOPE   C26 4947   0.698   3.058   4.949  0.6688 -0.1417  0.3172
   39DOPE   H6R 4948   0.614   2.987   4.935  1.3455 -0.4355 -2.9782
   39DOPE   H6S 4949   0.652   3.151   4.988 -0.2345  0.3663 -1.8191
   39DOPE   C27 4950   0.808   2.996   5.035  0.1743 -0.1017  0.6210
   39DOPE   H7R 4951   0.888   3.072   5.048  0.4199  0.3271 -2.6848
   39DOPE   H7S 4952   0.843   2.914   4.970  0.4785  0.2775  0.3053
   39DOPE   C28 4953   0.747   2.931   5.162 -0.2455  0.5807  0.5494
   39DOPE   H8R 4954   0.647   2.887   5.142 -0.4788  0.8150  1.1692
   39DOPE   H8S 4955   0.717   3.019   5.223  0.0545  1.1507 -0.1089
   39DOPE   C29 4956   0.833   2.832   5.234 -0.4703  0.1344  0.1903
   39DOPE   H9R 4957   0.892   2.758   5.178  1.6104  1.2649  0.7685
   39DOPE  C210 4958   0.879   2.856   5.358  0.2327  0.1943 -0.0011
   39DOPE  H10R 4959   0.942   2.777   5.402  0.7539  0.6149  0.0290
   39DOPE  C211 4960   0.847   2.962   5.456  0.1725  0.4512  0.2686
   39DOPE  H11R 4961   0.795   3.045   5.404 -1.7799 -1.1322 -0.4417
   39DOPE  H11S 4962   0.933   2.997   5.517 -0.3147 -1.9144  2.5042
   39DOPE  C212 4963   0.761   2.903   5.570  0.0496  0.4276  0.6150
   39DOPE  H12R 4964   0.802   2.810   5.615 -1.1819  0.2095  1.3276
   39DOPE  H12S 4965   0.662   2.872   5.530 -1.0776 -1.0553  4.1416
   39DOPE  C213 4966   0.727   3.010   5.678 -0.6565  0.8764 -0.5946
   39DOPE  H13R 4967   0.634   2.987   5.733  0.4907  1.6743  1.8382
   39DOPE  H13S 4968   0.720   3.109   5.628 -1.6493  1.3244  0.3957
   39DOPE  C214 4969   0.848   3.018   5.778 -0.1889  0.2448  0.3185
   39DOPE  H14R 4970   0.845   3.122   5.820  0.8454  0.3987  0.0279
   39DOPE  H14S 4971   0.944   3.009   5.723 -0.8965  0.6815 -1.0376
   39DOPE  C215 4972   0.831   2.915   5.893 -0.6202 -0.3493  0.4426
   39DOPE  H15R 4973   0.856   2.815   5.852  0.6391  0.5205 -1.0096
   39DOPE  H15S 4974   0.727   2.921   5.932 -0.1549  0.6679  1.6121
   39DOPE  C216 4975   0.935   2.929   6.001 -0.1928  1.3005 -0.3359
   39DOPE  H16R 4976   0.955   3.038   6.010  1.2728  1.1400 -1.2518
   39DOPE  H16S 4977   1.034   2.892   5.966 -0.6067  0.0429 -0.2242
   39DOPE  C217 4978   0.922   2.862   6.140 -0.0740 -0.2179 -0.6355
   39DOPE  H17R 4979   0.919   2.751   6.139 -0.0394 -0.2215 -1.7109
   39DOPE  H17S 4980   0.821   2.889   6.177 -0.3475 -3.3074  1.2521
   39DOPE  C218 4981   1.028   2.902   6.242  0.1797 -0.2258 -0.1705
   39DOPE  H18R 4982   1.032   3.013   6.252 -0.3599  0.0664 -2.5226
   39DOPE  H18S 4983   1.127   2.877   6.198  1.0970 -0.5406  1.9487
   39DOPE  H18T 4984   1.022   2.841   6.335  0.3268 -1.3955 -0.9098
   39DOPE   C33 4985   0.160   3.735   4.459  1.1465  0.5135 -0.1401
   39DOPE   H3X 4986   0.068   3.679   4.433  1.7651 -0.9230  0.6756
   39DOPE   H3Y 4987   0.120   3.831   4.497 -0.6707 -0.8242  1.5116
   39DOPE   C34 4988   0.247   3.670   4.559  0.2165 -0.4100  0.0711
   39DOPE   H4X 4989   0.291   3.579   4.511 -0.2858  1.0684 -3.5666
   39DOPE   H4Y 4990   0.316   3.750   4.595 -1.1822  1.0801 -0.4196
   39DOPE   C35 4991   0.170   3.614   4.688  0.0048  0.0878  1.0355
   39DOPE   H5X 4992   0.092   3.547   4.645  2.0402 -1.0915 -0.9885
   39DOPE   H5Y 4993   0.124   3.702   4.739  1.1250  0.0564  2.1458
   39DOPE   C36 4994   0.260   3.533   4.773  0.2935 -0.1100 -0.8821
   39DOPE   H6X 4995   0.354   3.591   4.786  0.1614 -0.0076 -0.3585
   39DOPE   H6Y 4996   0.294   3.436   4.730  1.4848  0.7659 -2.0297
   39DOPE   C37 4997   0.198   3.502   4.912  0.0684 -0.0479 -0.4212
   39DOPE   H7X 4998   0.166   3.600   4.954  0.6010  0.8340 -1.9860
   39DOPE   H7Y 4999   0.113   3.431   4.911  0.2056 -0.2309  0.3478
   39DOPE   C38 5000   0.306   3.440   5.005  0.1389 -0.2606 -0.3414
   39DOPE   H8X 5001   0.263   3.455   5.107  1.9942  0.4903  0.3720
   39DOPE   H8Y 5002   0.401   3.497   5.002  0.7425 -1.2216  0.0756
   39DOPE   C39 5003   0.319   3.288   4.986 -0.1956 -0.1965 -0.2340
   39DOPE   H9X 5004   0.298   3.260   4.882  1.8967  0.0171 -0.7577
   39DOPE  C310 5005   0.333   3.197   5.083  0.3516 -0.3128 -0.2565
   39DOPE  H10X 5006   0.334   3.093   5.047  1.6162  0.4115 -2.5427
   39DOPE  C311 5007   0.363   3.220   5.230 -0.3567 -0.7243  0.4876
   39DOPE  H11X 5008   0.461   3.178   5.261  2.8826  4.8854 -0.7298
   39DOPE  H11Y 5009   0.374   3.330   5.245 -0.8417 -0.5423 -0.4510
   39DOPE  C312 5010   0.257   3.156   5.321  0.8661  0.3296 -0.7408
   39DOPE  H12X 5011   0.236   3.051   5.289 -2.1204  0.7683 -0.4626
   39DOPE  H12Y 5012   0.154   3.195   5.307  1.0339  0.8464 -0.5426
   39DOPE  C313 5013   0.279   3.167   5.471 -0.3434  0.7779  0.6754
   39DOPE  H13X 5014   0.217   3.089   5.520 -1.1787  0.4065 -0.8981
   39DOPE  H13Y 5015   0.387   3.141   5.477  0.4441  2.8213 -2.2173
   39DOPE  C314 5016   0.241   3.301   5.541  0.2030 -0.1375  0.3815
   39DOPE  H14X 5017   0.130   3.306   5.540  0.1922  0.0997 -2.1956
   39DOPE  H14Y 5018   0.279   3.389   5.485  0.1983 -1.3312 -1.5857
   39DOPE  C315 5019   0.301   3.315   5.682  0.1640 -0.8985  0.4135
   39DOPE  H15X 5020   0.320   3.424   5.697 -2.6159 -0.2418 -0.2121
   39DOPE  H15Y 5021   0.396   3.258   5.671  0.1065 -0.9568  0.2174
   39DOPE  C316 5022   0.213   3.258   5.796  0.5980  0.7131 -0.6624
   39DOPE  H16X 5023   0.166   3.159   5.774 -0.3934  0.4477  2.2291
   39DOPE  H16Y 5024   0.132   3.331   5.818  0.2286 -0.0528  0.5753
   39DOPE  C317 5025   0.295   3.224   5.919 -0.1314 -0.2912 -0.0479
   39DOPE  H17X 5026   0.346   3.317   5.953  1.5797 -1.2287 -0.0017
   39DOPE  H17Y 5027   0.221   3.184   5.993 -0.7058  1.5166  0.4266
   39DOPE  C318 5028   0.406   3.124   5.906 -0.0599 -0.6284  0.5146
   39DOPE  H18X 5029   0.359   3.023   5.906  3.0242 -2.1989  1.3209
   39DOPE  H18Y 5030   0.470   3.128   5.816 -1.3280 -3.7680 -0.6774
   39DOPE  H18Z 5031   0.466   3.122   5.999  1.0070  1.8403 -0.0508
   40DOPE     N 5032   3.420   3.741   3.493  0.5282 -0.5729 -0.0559
   40DOPE   HN1 5033   3.326   3.781   3.469  0.4985 -0.1808  0.6933
   40DOPE   HN2 5034   3.480   3.728   3.409  0.0762 -0.1661 -0.4537
   40DOPE   HN3 5035   3.395   3.651   3.539 -1.1780 -1.5902 -2.7155
   40DOPE   C12 5036   3.491   3.814   3.609 -0.3671 -0.2154 -0.0911
   40DOPE  H12A 5037   3.554   3.893   3.562 -2.0017  1.7686  0.9051
   40DOPE  H12B 5038   3.542   3.735   3.666  1.0655  0.3427 -0.5605
   40DOPE   C11 5039   3.394   3.898   3.695  0.0630  0.1815  0.5039
   40DOPE  H11A 5040   3.450   3.947   3.778  1.7988 -0.9501  0.0695
   40DOPE  H11B 5041   3.331   3.823   3.747  0.1035 -0.9707 -1.0159
   40DOPE     P 5042   3.334   4.147   3.640 -0.1911 -0.3107 -0.1818
   40DOPE   O13 5043   3.231   4.209   3.554  0.5998  0.4027  0.2459
   40DOPE   O14 5044   3.468   4.191   3.623 -0.7267  0.4964  0.1835
   40DOPE   O11 5045   3.293   4.159   3.788  0.0325  0.1536 -0.2007
   40DOPE   O12 5046   3.324   3.993   3.619 -0.3815 -0.0777 -0.2537
   40DOPE    C1 5047   3.170   4.095   3.844 -0.7264 -1.0968  0.3273
   40DOPE    HA 5048   3.202   4.049   3.940 -0.6089 -0.8036  0.4300
   40DOPE    HB 5049   3.142   4.010   3.778 -0.0113 -1.1523  0.0957
   40DOPE    C2 5050   3.050   4.194   3.842  0.6916 -0.5907 -0.3830
   40DOPE    HS 5051   3.038   4.231   3.738 -0.2887 -0.3400 -0.1885
   40DOPE   O21 5052   3.068   4.299   3.938 -0.0244 -0.1952 -0.1620
   40DOPE   C21 5053   3.140   4.404   3.887  0.2020 -0.4614  0.4440
   40DOPE   O22 5054   3.158   4.427   3.769  0.3594  0.1887 -0.4105
   40DOPE   C22 5055   3.214   4.479   4.005 -0.7287 -0.1966  0.0215
   40DOPE   H2R 5056   3.271   4.399   4.057  0.4057  1.6680  1.7834
   40DOPE   H2S 5057   3.140   4.525   4.074  0.2469  2.2259 -0.4492
   40DOPE    C3 5058   2.925   4.112   3.884  1.2702  0.0756 -0.6894
   40DOPE    HX 5059   2.918   4.030   3.809  1.7880 -0.8961  0.3028
   40DOPE    HY 5060   2.833   4.175   3.889  0.9401 -0.4633  0.4162
   40DOPE   O31 5061   2.953   4.033   4.005  0.0158 -0.3902 -0.5088
   40DOPE   C31 5062   2.883   4.058   4.110 -0.7531 -0.1290 -0.2172
   40DOPE   O32 5063   2.797   4.143   4.119  0.3669  0.3134  0.5473
   40DOPE   C32 5064   2.936   3.979   4.223 -0.3520  0.2588 -0.2483
   40DOPE   H2X 5065   2.894   3.876   4.213  0.3888 -0.4160  2.7739
   40DOPE   H2Y 5066   3.046   3.971   4.213 -0.3075 -1.8284  1.2090
   40DOPE   C23 5067   3.319   4.573   3.960  0.2805 -0.1038  0.1896
   40DOPE   H3R 5068   3.263   4.653   3.907  1.5918  0.6892 -0.0304
   40DOPE   H3S 5069   3.388   4.530   3.885  0.7573  0.9960 -0.0176
   40DOPE   C24 5070   3.400   4.639   4.070  0.2290 -0.4191  0.0710
   40DOPE   H4R 5071   3.441   4.732   4.026 -1.3607  0.3741  0.1954
   40DOPE   H4S 5072   3.482   4.571   4.102  3.2345  2.6501 -0.5114
   40DOPE   C25 5073   3.326   4.696   4.185  0.3016 -0.6420  0.0734
   40DOPE   H5R 5074   3.275   4.612   4.236  3.8837 -2.0576  1.7171
   40DOPE   H5S 5075   3.248   4.767   4.150  2.8930  1.5932 -1.6265
   40DOPE   C26 5076   3.408   4.785   4.286 -0.5530 -0.5995 -0.2535
   40DOPE   H6R 5077   3.470   4.856   4.228  0.9342 -1.2773  0.4638
   40DOPE   H6S 5078   3.483   4.722   4.339 -1.1255 -2.0353 -1.0905
   40DOPE   C27 5079   3.339   4.865   4.385 -0.0855  0.4285 -0.0020
   40DOPE   H7R 5080   3.416   4.893   4.460  1.0077  0.7072 -1.1857
   40DOPE   H7S 5081   3.264   4.803   4.439  2.1441 -2.0949  0.4614
   40DOPE   C28 5082   3.265   4.994   4.334 -0.3864 -0.5555 -0.0044
   40DOPE   H8R 5083   3.203   4.971   4.245  1.6264  0.3903 -1.7144
   40DOPE   H8S 5084   3.341   5.064   4.296  0.4932 -1.8920 -0.7930
   40DOPE   C29 5085   3.185   5.054   4.449 -0.4810 -0.1053  0.0452
   40DOPE   H9R 5086   3.083   5.011   4.452 -0.2611 -0.6009  1.5412
   40DOPE  C210 5087   3.210   5.162   4.529 -0.0269  0.1199 -0.3441
   40DOPE  H10R 5088   3.131   5.204   4.593 -0.0438 -0.6746  0.1629
   40DOPE  C211 5089   3.342   5.244   4.520  0.9637 -0.2935 -0.5703
   40DOPE  H11R 5090   3.320   5.350   4.494 -0.0635 -0.1830  0.6515
   40DOPE  H11S 5091   3.399   5.199   4.437  0.8247 -0.5174 -0.5447
   40DOPE  C212 5092   3.425   5.242   4.647 -0.6296  0.0594 -0.1269
   40DOPE  H12R 5093   3.519   5.298   4.629  0.3433 -0.1041  3.5912
   40DOPE  H12S 5094   3.438   5.132   4.660 -1.0712 -0.0701 -0.7175
   40DOPE  C213 5095   3.353   5.286   4.779 -0.1550 -0.7583  0.6237
   40DOPE  H13R 5096   3.268   5.219   4.800  0.4160 -0.8266  2.9070
   40DOPE  H13S 5097   3.315   5.387   4.750  0.9882 -0.4381  0.1665
   40DOPE  C214 5098   3.444   5.272   4.906 -0.2909  0.4993  0.0253
   40DOPE  H14R 5099   3.546   5.307   4.880 -0.4981  1.4902  0.5057
   40DOPE  H14S 5100   3.444   5.169   4.949 -0.2187  0.5747  0.2077
   40DOPE  C215 5101   3.392   5.358   5.026 -0.1249  0.2756  0.3882
   40DOPE  H15R 5102   3.288   5.326   5.049 -0.5582 -0.4067 -2.1874
   40DOPE  H15S 5103   3.380   5.459   4.982 -0.4686  0.2410  0.3974
   40DOPE  C216 5104   3.483   5.365   5.148 -0.0124  0.2438  0.3384
   40DOPE  H16R 5105   3.577   5.411   5.111 -0.4880  1.2525  0.3405
   40DOPE  H16S 5106   3.499   5.262   5.188  1.5894  0.0605 -0.7120
   40DOPE  C217 5107   3.428   5.456   5.257  0.0294  0.4719 -0.1716
   40DOPE  H17R 5108   3.326   5.424   5.288  0.2405  0.5713  0.6325
   40DOPE  H17S 5109   3.423   5.559   5.216  0.2828 -0.1990 -1.9843
   40DOPE  C218 5110   3.511   5.469   5.392 -0.1700 -0.9539  0.9209
   40DOPE  H18R 5111   3.465   5.534   5.470  0.3025 -0.3852  0.7414
   40DOPE  H18S 5112   3.621   5.484   5.378 -0.3497 -0.5886 -0.1774
   40DOPE  H18T 5113   3.514   5.365   5.430  1.7349 -1.3374 -0.1459
   40DOPE   C33 5114   2.901   4.030   4.360  0.6603  0.0454  0.1342
   40DOPE   H3X 5115   2.793   4.041   4.383  1.0570  1.1157  1.6686
   40DOPE   H3Y 5116   2.952   4.128   4.370  0.0953  0.2580  1.0420
   40DOPE   C34 5117   2.970   3.936   4.461  0.3703  0.0435  0.1379
   40DOPE   H4X 5118   2.908   3.844   4.456  0.4770 -0.1409  1.6986
   40DOPE   H4Y 5119   3.062   3.904   4.407 -1.5395 -0.3941 -3.1140
   40DOPE   C35 5120   2.979   3.978   4.605 -0.4184 -0.0096  0.0672
   40DOPE   H5X 5121   3.037   4.072   4.596 -0.9447  0.2269 -0.9753
   40DOPE   H5Y 5122   3.043   3.908   4.663  0.9693  0.0284 -1.3380
   40DOPE   C36 5123   2.854   4.014   4.681  0.3205  0.0108  0.1954
   40DOPE   H6X 5124   2.788   3.926   4.670 -0.8085  1.0807 -2.3679
   40DOPE   H6Y 5125   2.799   4.090   4.621  0.7613  0.3935  0.2702
   40DOPE   C37 5126   2.862   4.068   4.829 -0.3103  0.4110 -0.5705
   40DOPE   H7X 5127   2.939   4.148   4.827  0.2464 -0.1244 -2.2362
   40DOPE   H7Y 5128   2.765   4.113   4.861 -0.5229 -0.7873  0.5441
   40DOPE   C38 5129   2.898   3.959   4.931  0.2249 -0.1554 -0.0117
   40DOPE   H8X 5130   3.000   3.918   4.915  0.7684  0.2646  2.0649
   40DOPE   H8Y 5131   2.818   3.885   4.913 -0.2237  0.6504 -1.4587
   40DOPE   C39 5132   2.897   4.010   5.071  0.1162 -0.1693 -0.5805
   40DOPE   H9X 5133   2.996   4.036   5.110  0.1978  0.2631 -1.0732
   40DOPE  C310 5134   2.792   4.019   5.153 -0.9898 -0.3448 -0.5597
   40DOPE  H10X 5135   2.803   4.051   5.257  1.3620 -0.3077 -0.7744
   40DOPE  C311 5136   2.649   3.981   5.126  0.0902  0.0079  0.3385
   40DOPE  H11X 5137   2.618   4.025   5.029  1.6395 -0.2283 -0.3020
   40DOPE  H11Y 5138   2.636   3.874   5.098  0.7919  0.1387 -0.5188
   40DOPE  C312 5139   2.550   4.029   5.229 -1.0242 -0.0181 -0.0237
   40DOPE  H12X 5140   2.553   4.140   5.232  3.3884 -0.0222  1.6987
   40DOPE  H12Y 5141   2.582   3.993   5.329  0.7478  1.9469  0.1737
   40DOPE  C313 5142   2.415   3.978   5.203  0.3709  0.1531 -0.0657
   40DOPE  H13X 5143   2.387   3.979   5.096  0.0669  1.5389  0.0093
   40DOPE  H13Y 5144   2.421   3.869   5.226 -0.5537  0.2785  0.8634
   40DOPE  C314 5145   2.298   4.037   5.283 -0.2546  0.5281 -0.4044
   40DOPE  H14X 5146   2.211   3.979   5.247  0.5596 -1.2014  0.2960
   40DOPE  H14Y 5147   2.288   4.145   5.258 -1.7120  0.0428 -2.0452
   40DOPE  C315 5148   2.303   4.017   5.439 -0.5591  0.2501 -0.3544
   40DOPE  H15X 5149   2.384   4.085   5.474  1.3200 -0.4730 -2.9891
   40DOPE  H15Y 5150   2.338   3.913   5.458 -2.2952 -0.5271 -1.2132
   40DOPE  C316 5151   2.166   4.031   5.508 -0.1547  0.8074 -0.4652
   40DOPE  H16X 5152   2.081   3.978   5.460  0.4007  1.1846 -1.9182
   40DOPE  H16Y 5153   2.132   4.137   5.501  1.2088  1.5416  2.3131
   40DOPE  C317 5154   2.163   3.982   5.653 -0.0523 -0.3676 -0.3261
   40DOPE  H17X 5155   2.068   4.012   5.701  0.4068 -1.3770  1.2950
   40DOPE  H17Y 5156   2.170   3.872   5.640  1.3093 -0.4867  1.1433
   40DOPE  C318 5157   2.277   4.023   5.734 -0.3613 -0.6085  0.4074
   40DOPE  H18X 5158   2.372   3.982   5.693  0.7451  0.1348  2.1336
   40DOPE  H18Y 5159   2.293   4.133   5.735 -0.4026 -0.5226 -2.0115
   40DOPE  H18Z 5160   2.270   3.981   5.837  2.4595  0.7837  1.2744
   41DOPE     N 5161   0.838   4.421   3.720 -0.3667  0.3081  0.2372
   41DOPE   HN1 5162   0.748   4.473   3.721 -0.0730  0.8201  0.6176
   41DOPE   HN2 5163   0.832   4.330   3.770 -1.3428  0.1746 -0.0966
   41DOPE   HN3 5164   0.906   4.484   3.767  1.8909 -1.1547 -0.8739
   41DOPE   C12 5165   0.882   4.394   3.577  0.1584  0.7209  0.2283
   41DOPE  H12A 5166   0.955   4.471   3.543  2.7693 -1.3000  0.8702
   41DOPE  H12B 5167   0.791   4.398   3.514  1.1564 -1.7809 -1.5341
   41DOPE   C11 5168   0.940   4.251   3.576 -0.3420  0.0829 -0.1267
   41DOPE  H11A 5169   0.957   4.239   3.466  2.3675 -0.1454  0.2525
   41DOPE  H11B 5170   0.864   4.182   3.619 -1.7792  1.9690  0.4913
   41DOPE     P 5171   1.162   4.126   3.650 -0.2130 -0.4999 -0.2074
   41DOPE   O13 5172   1.303   4.159   3.614 -0.6737  0.0915  0.3216
   41DOPE   O14 5173   1.104   4.013   3.577  0.4768  0.1457 -0.2234
   41DOPE   O11 5174   1.156   4.105   3.808 -0.0632 -0.1344 -0.4419
   41DOPE   O12 5175   1.074   4.254   3.631 -0.3490  0.4228  0.3448
   41DOPE    C1 5176   1.277   4.112   3.889  0.4480 -0.5932  0.0398
   41DOPE    HA 5177   1.366   4.063   3.844  0.4525 -0.3230 -0.2469
   41DOPE    HB 5178   1.249   4.057   3.982 -1.5892  1.1511  0.5276
   41DOPE    C2 5179   1.319   4.254   3.941  0.6315  0.0710 -0.1160
   41DOPE    HS 5180   1.355   4.312   3.853  0.6920  0.2371  0.0181
   41DOPE   O21 5181   1.422   4.237   4.041  0.6711 -0.2529 -0.2365
   41DOPE   C21 5182   1.500   4.334   4.066 -0.2421  0.5667  0.5414
   41DOPE   O22 5183   1.532   4.426   3.988 -0.3997  0.0640 -0.2487
   41DOPE   C22 5184   1.562   4.313   4.200  0.1950 -0.0143  0.0960
   41DOPE   H2R 5185   1.666   4.279   4.180 -0.7054 -2.3115 -1.0266
   41DOPE   H2S 5186   1.507   4.234   4.255 -0.8754 -1.2283 -2.5352
   41DOPE    C3 5187   1.192   4.331   3.994 -0.8342 -0.4246 -0.1403
   41DOPE    HX 5188   1.117   4.345   3.913 -0.6410 -1.4892 -0.5108
   41DOPE    HY 5189   1.219   4.435   4.022 -1.4365 -0.3064  0.0304
   41DOPE   O31 5190   1.134   4.258   4.106  0.2490  0.0379  0.2417
   41DOPE   C31 5191   1.043   4.312   4.188  0.2009 -0.2939  0.0690
   41DOPE   O32 5192   0.971   4.409   4.164 -0.6648  0.7197  0.0271
   41DOPE   C32 5193   1.053   4.227   4.317 -0.4690 -0.8229  0.5973
   41DOPE   H2X 5194   1.008   4.130   4.289 -1.8457 -0.3877  1.1951
   41DOPE   H2Y 5195   1.159   4.210   4.344  0.2520 -0.3508 -1.7002
   41DOPE   C23 5196   1.557   4.442   4.298  0.1283 -0.1362 -0.0856
   41DOPE   H3R 5197   1.466   4.506   4.302  0.0932 -0.1291 -0.8241
   41DOPE   H3S 5198   1.637   4.509   4.258 -2.5827  2.7968 -1.0805
   41DOPE   C24 5199   1.587   4.410   4.447 -0.6609 -0.4146  0.6639
   41DOPE   H4R 5200   1.619   4.506   4.494  0.5171 -0.8000  0.6969
   41DOPE   H4S 5201   1.674   4.340   4.447  1.7106  2.3089  1.8038
   41DOPE   C25 5202   1.463   4.356   4.523  0.6828 -0.5195  0.5227
   41DOPE   H5R 5203   1.518   4.301   4.602  0.7882  0.7961  1.3990
   41DOPE   H5S 5204   1.405   4.290   4.455 -0.6131  0.1627  0.9337
   41DOPE   C26 5205   1.366   4.469   4.561  0.3615  0.3669 -0.1154
   41DOPE   H6R 5206   1.308   4.494   4.469 -0.6514 -0.4314  0.2835
   41DOPE   H6S 5207   1.414   4.563   4.593 -2.9002  2.1376 -0.0454
   41DOPE   C27 5208   1.264   4.432   4.669 -0.0744  0.6308  0.2445
   41DOPE   H7R 5209   1.214   4.337   4.640  2.4567 -0.9449  0.7321
   41DOPE   H7S 5210   1.192   4.516   4.677  0.1263  0.8401 -0.1136
   41DOPE   C28 5211   1.326   4.396   4.808 -0.3734  0.0945  0.5223
   41DOPE   H8R 5212   1.380   4.300   4.797 -0.5811  0.1040 -0.7831
   41DOPE   H8S 5213   1.239   4.365   4.870 -0.2331  1.8573  1.6701
   41DOPE   C29 5214   1.417   4.494   4.869  0.7497 -0.2693  0.4615
   41DOPE   H9R 5215   1.450   4.579   4.807 -0.1439 -0.2495 -0.0107
   41DOPE  C210 5216   1.456   4.508   4.997 -0.3956  0.2797 -0.0325
   41DOPE  H10R 5217   1.523   4.593   5.015 -0.4794  0.6132 -1.2034
   41DOPE  C211 5218   1.426   4.422   5.105  0.2737  0.5935 -0.6595
   41DOPE  H11R 5219   1.510   4.403   5.174 -2.0285 -0.8642  1.9346
   41DOPE  H11S 5220   1.390   4.321   5.077 -0.8137  0.8383 -0.2071
   41DOPE  C212 5221   1.308   4.477   5.194 -0.5804 -0.3475  0.1064
   41DOPE  H12R 5222   1.216   4.468   5.133 -1.3899 -0.1714  1.2678
   41DOPE  H12S 5223   1.328   4.585   5.211 -0.9759  0.0517 -1.7187
   41DOPE  C213 5224   1.303   4.409   5.328  0.1375 -0.1302 -0.2186
   41DOPE  H13R 5225   1.387   4.430   5.398 -1.2539  0.6481  1.3011
   41DOPE  H13S 5226   1.302   4.299   5.315 -2.2338  0.0495 -2.3255
   41DOPE  C214 5227   1.177   4.444   5.416 -0.7609 -0.1245  0.0591
   41DOPE  H14R 5228   1.085   4.401   5.372 -1.5015  1.1004  0.3686
   41DOPE  H14S 5229   1.160   4.554   5.409  1.6049  0.3213  0.4072
   41DOPE  C215 5230   1.196   4.393   5.560 -0.0754 -0.1481 -1.0883
   41DOPE  H15R 5231   1.286   4.450   5.590 -3.2521  3.5077  2.8388
   41DOPE  H15S 5232   1.201   4.282   5.564 -1.4726 -0.2817 -2.2604
   41DOPE  C216 5233   1.082   4.438   5.656  0.5630 -0.2402  0.1849
   41DOPE  H16R 5234   1.048   4.534   5.612  2.3468  1.5581  2.5174
   41DOPE  H16S 5235   1.142   4.470   5.743  1.0754 -1.8636  0.4608
   41DOPE  C217 5236   0.988   4.329   5.703 -0.6653  0.2149  0.4080
   41DOPE  H17R 5237   0.913   4.380   5.767  1.1990  1.8440  1.4193
   41DOPE  H17S 5238   1.045   4.263   5.772 -0.3949  0.8657  0.8230
   41DOPE  C218 5239   0.910   4.259   5.589  0.0917  0.4713 -0.4491
   41DOPE  H18R 5240   0.855   4.329   5.522  0.8944  2.6353  1.0329
   41DOPE  H18S 5241   0.826   4.199   5.630 -1.1060  1.9153 -0.6879
   41DOPE  H18T 5242   0.981   4.203   5.525  0.5186  0.6288 -0.1186
   41DOPE   C33 5243   0.983   4.308   4.427  0.5653 -0.6113  0.2456
   41DOPE   H3X 5244   0.922   4.397   4.402  2.8440  0.8931 -0.2811
   41DOPE   H3Y 5245   1.067   4.368   4.469  2.1307 -1.2416 -1.8139
   41DOPE   C34 5246   0.917   4.212   4.524  0.0714  0.0613 -0.8388
   41DOPE   H4X 5247   0.846   4.145   4.472 -3.3500  2.4629  0.4044
   41DOPE   H4Y 5248   0.998   4.150   4.567 -0.6613 -1.0916 -1.0678
   41DOPE   C35 5249   0.844   4.293   4.644  0.6001 -0.7858  0.7280
   41DOPE   H5X 5250   0.811   4.220   4.722 -0.0796 -0.2485  0.9508
   41DOPE   H5Y 5251   0.749   4.329   4.599  0.8860  0.8441  1.3452
   41DOPE   C36 5252   0.915   4.415   4.711 -0.0627 -0.1625 -0.0352
   41DOPE   H6X 5253   0.943   4.489   4.633 -0.6916  0.1025 -0.0171
   41DOPE   H6Y 5254   1.005   4.373   4.761  0.5510 -1.0084 -1.7725
   41DOPE   C37 5255   0.811   4.483   4.806  0.2519  0.0508  0.6903
   41DOPE   H7X 5256   0.826   4.593   4.797  0.3929  0.2115  2.4554
   41DOPE   H7Y 5257   0.712   4.464   4.759 -0.2634  0.0325  1.7523
   41DOPE   C38 5258   0.824   4.451   4.955 -0.2720  0.0165 -0.2915
   41DOPE   H8X 5259   0.805   4.342   4.971 -1.7326  0.2400 -0.3211
   41DOPE   H8Y 5260   0.736   4.500   5.002  0.1580 -1.7060  2.5851
   41DOPE   C39 5261   0.952   4.504   5.011 -0.3363 -0.2337 -0.3952
   41DOPE   H9X 5262   1.035   4.433   5.000  0.2307  0.4968 -0.9171
   41DOPE  C310 5263   0.992   4.622   5.068  0.0946 -0.3715  0.2796
   41DOPE  H10X 5264   1.086   4.622   5.126 -0.7660 -0.5892  1.7147
   41DOPE  C311 5265   0.906   4.749   5.092 -0.5977  0.6901  0.4856
   41DOPE  H11X 5266   0.961   4.842   5.066  0.6746 -0.1040  0.2663
   41DOPE  H11Y 5267   0.820   4.755   5.021  0.0941  3.4409 -0.2588
   41DOPE  C312 5268   0.854   4.754   5.239  0.0379  0.2583  0.0922
   41DOPE  H12X 5269   0.840   4.651   5.280  1.8516  0.7053  2.0044
   41DOPE  H12Y 5270   0.762   4.817   5.237  1.8272  3.0650  0.9323
   41DOPE  C313 5271   0.945   4.819   5.340  0.1912  0.5932 -0.5062
   41DOPE  H13X 5272   1.048   4.777   5.333 -0.6965 -1.5477 -1.9660
   41DOPE  H13Y 5273   0.955   4.929   5.346  0.5478  0.5190  0.4960
   41DOPE  C314 5274   0.902   4.781   5.482  0.4862  0.2686  0.1690
   41DOPE  H14X 5275   0.929   4.679   5.517  0.1060 -0.3322 -1.2166
   41DOPE  H14Y 5276   0.791   4.768   5.483  0.2270  1.9929 -1.0830
   41DOPE  C315 5277   0.936   4.887   5.590 -0.0362  0.1952  0.2114
   41DOPE  H15X 5278   0.926   4.992   5.554  1.5370  0.9871  1.8985
   41DOPE  H15Y 5279   1.045   4.882   5.611  0.1184  3.4011  0.7692
   41DOPE  C316 5280   0.859   4.869   5.725 -0.1511 -0.6516 -0.3194
   41DOPE  H16X 5281   0.751   4.888   5.706  0.0665  0.1608 -0.8061
   41DOPE  H16Y 5282   0.907   4.941   5.794  0.4856 -0.3462 -1.0691
   41DOPE  C317 5283   0.868   4.727   5.786  0.6232 -0.5415  0.6062
   41DOPE  H17X 5284   0.815   4.657   5.718 -1.1898  1.3518 -0.0228
   41DOPE  H17Y 5285   0.975   4.698   5.780  0.8756  0.7149 -2.6574
   41DOPE  C318 5286   0.821   4.717   5.929 -0.1429 -0.5390  0.6808
   41DOPE  H18X 5287   0.822   4.611   5.963 -1.5854 -1.4251 -1.7876
   41DOPE  H18Y 5288   0.888   4.777   5.995 -0.7310 -1.2990  2.0115
   41DOPE  H18Z 5289   0.716   4.752   5.928  0.0054 -0.0277 -1.6824
   42DOPE     N 5290   0.143   3.840   3.777  0.0904 -0.4914  0.2028
   42DOPE   HN1 5291   0.071   3.814   3.706 -0.7651  1.6230  0.2201
   42DOPE   HN2 5292   0.118   3.822   3.876 -0.8572 -0.9400 -0.1050
   42DOPE   HN3 5293   0.154   3.943   3.775 -2.5103 -0.1201  0.4358
   42DOPE   C12 5294   0.260   3.745   3.750 -0.2437  0.1797 -0.5328
   42DOPE  H12A 5295   0.291   3.764   3.645  0.1844  1.9673 -0.1076
   42DOPE  H12B 5296   0.220   3.643   3.771  0.1104  0.4371  1.5980
   42DOPE   C11 5297   0.376   3.768   3.856  0.3884 -0.2772  0.3200
   42DOPE  H11A 5298   0.459   3.694   3.843  0.9615  0.6650 -1.9041
   42DOPE  H11B 5299   0.344   3.743   3.959  0.4222  1.1134  0.6915
   42DOPE     P 5300   0.569   3.936   3.810  0.0412 -0.2097  0.4443
   42DOPE   O13 5301   0.562   4.070   3.749 -0.3188  0.3876 -0.0552
   42DOPE   O14 5302   0.627   3.828   3.731 -0.6385 -0.3213  0.7523
   42DOPE   O11 5303   0.659   3.954   3.943 -0.8278 -0.1434 -0.6648
   42DOPE   O12 5304   0.424   3.899   3.870 -0.1517 -0.2425  0.8552
   42DOPE    C1 5305   0.636   3.871   4.051  0.2044 -0.2795  1.2273
   42DOPE    HA 5306   0.673   3.769   4.029 -0.8160 -0.2169 -0.9693
   42DOPE    HB 5307   0.530   3.871   4.082  0.2477 -1.8641  1.4655
   42DOPE    C2 5308   0.722   3.927   4.171 -0.1145 -0.1694  0.2282
   42DOPE    HS 5309   0.821   3.959   4.133  0.8020 -2.1185  0.8445
   42DOPE   O21 5310   0.723   3.820   4.263  0.0689 -0.0458 -0.0539
   42DOPE   C21 5311   0.812   3.834   4.364 -0.1724  0.0537  0.2411
   42DOPE   O22 5312   0.903   3.915   4.365 -0.4644  0.0331 -0.9058
   42DOPE   C22 5313   0.777   3.716   4.458 -0.1443  0.2870 -0.4320
   42DOPE   H2R 5314   0.829   3.625   4.419  1.1992  1.3479 -1.2128
   42DOPE   H2S 5315   0.668   3.698   4.460  0.2501 -2.4299  0.6816
   42DOPE    C3 5316   0.668   4.060   4.234 -0.9963  0.3100 -0.1558
   42DOPE    HX 5317   0.660   4.130   4.149  0.2442  1.4251  0.6194
   42DOPE    HY 5318   0.750   4.104   4.295 -0.6488  1.3872 -1.3701
   42DOPE   O31 5319   0.544   4.038   4.308  0.4327 -0.1831 -0.2059
   42DOPE   C31 5320   0.499   4.154   4.353  1.3328  0.4592  0.2533
   42DOPE   O32 5321   0.550   4.261   4.330 -0.8402  0.1123  0.5547
   42DOPE   C32 5322   0.373   4.128   4.438  0.6217  0.2603  0.2808
   42DOPE   H2X 5323   0.285   4.176   4.390 -0.5393 -0.2298  1.8275
   42DOPE   H2Y 5324   0.338   4.024   4.454 -1.2804  0.7139 -0.5530
   42DOPE   C23 5325   0.849   3.739   4.591  0.3880  0.5088 -0.1870
   42DOPE   H3R 5326   0.824   3.842   4.623 -0.0040  0.4112 -0.1623
   42DOPE   H3S 5327   0.957   3.717   4.581  0.5710 -0.5655  3.0155
   42DOPE   C24 5328   0.796   3.638   4.697 -1.1318 -0.0899  0.3820
   42DOPE   H4R 5329   0.815   3.535   4.659 -1.8630 -0.1333  0.1150
   42DOPE   H4S 5330   0.687   3.642   4.715 -1.4746 -2.1185 -0.9748
   42DOPE   C25 5331   0.857   3.668   4.830  0.2034  0.3879  0.0653
   42DOPE   H5R 5332   0.833   3.769   4.869  0.2196  0.1582  0.6843
   42DOPE   H5S 5333   0.966   3.670   4.808  0.4097 -0.7524  0.8975
   42DOPE   C26 5334   0.829   3.559   4.932 -0.7054  0.1118 -0.4228
   42DOPE   H6R 5335   0.910   3.565   5.007 -0.9302 -0.0328 -0.1661
   42DOPE   H6S 5336   0.816   3.468   4.870 -0.5727 -0.0425 -0.2252
   42DOPE   C27 5337   0.701   3.569   5.018  0.2155  0.3990  0.2121
   42DOPE   H7R 5338   0.620   3.612   4.955 -0.0170 -0.1351  0.1380
   42DOPE   H7S 5339   0.726   3.639   5.100 -0.4322 -1.1293  1.7869
   42DOPE   C28 5340   0.659   3.439   5.082 -0.4585  0.1823 -0.0498
   42DOPE   H8R 5341   0.606   3.388   4.999  1.7466 -1.8172 -0.3549
   42DOPE   H8S 5342   0.580   3.468   5.154 -0.2959  0.1097  0.1587
   42DOPE   C29 5343   0.758   3.342   5.142  0.7031 -0.8308 -0.1390
   42DOPE   H9R 5344   0.823   3.301   5.064  1.8113  0.1207  0.2566
   42DOPE  C210 5345   0.754   3.302   5.269 -0.2653  0.1178 -0.1572
   42DOPE  H10R 5346   0.834   3.229   5.285 -0.7427 -0.3513  0.1159
   42DOPE  C211 5347   0.667   3.335   5.390 -0.3862  0.8636  0.2656
   42DOPE  H11R 5348   0.616   3.241   5.421 -1.7095  1.0524 -1.1906
   42DOPE  H11S 5349   0.597   3.416   5.359 -1.3531 -0.2776 -0.6672
   42DOPE  C212 5350   0.747   3.383   5.509  0.0327  0.0342  0.1940
   42DOPE  H12R 5351   0.797   3.479   5.487 -0.7793  0.0681 -1.6797
   42DOPE  H12S 5352   0.821   3.307   5.541  0.0602  0.7127  1.8409
   42DOPE  C213 5353   0.675   3.410   5.649  0.3390 -0.4616  0.1139
   42DOPE  H13R 5354   0.593   3.340   5.677 -0.2139  0.1860  0.1582
   42DOPE  H13S 5355   0.632   3.512   5.648  0.8264 -0.2584 -0.4452
   42DOPE  C214 5356   0.778   3.417   5.764 -0.1108  0.0508 -0.1404
   42DOPE  H14R 5357   0.866   3.483   5.747 -0.7707  1.0748  0.3243
   42DOPE  H14S 5358   0.824   3.317   5.776 -1.5739 -0.6819 -0.3318
   42DOPE  C215 5359   0.705   3.456   5.894  0.1196 -1.0383 -0.4837
   42DOPE  H15R 5360   0.606   3.407   5.904 -0.4815 -0.7350 -3.8039
   42DOPE  H15S 5361   0.700   3.567   5.887  0.9727 -0.8071  1.8506
   42DOPE  C216 5362   0.786   3.412   6.007  0.0190 -0.1722 -0.9698
   42DOPE  H16R 5363   0.886   3.457   5.993  0.3165  0.6468  2.7444
   42DOPE  H16S 5364   0.796   3.303   6.024 -1.3157  0.0534  1.9140
   42DOPE  C217 5365   0.753   3.468   6.143  0.2540 -1.2494 -0.4209
   42DOPE  H17R 5366   0.732   3.576   6.135  0.2827 -1.2332 -0.2855
   42DOPE  H17S 5367   0.843   3.461   6.208  0.8789  0.4690 -1.0390
   42DOPE  C218 5368   0.629   3.407   6.211 -0.2174 -0.7857  0.6615
   42DOPE  H18R 5369   0.554   3.395   6.130  0.2397  0.8871 -0.0473
   42DOPE  H18S 5370   0.591   3.482   6.283 -0.0897  1.6959 -1.7132
   42DOPE  H18T 5371   0.642   3.310   6.265 -0.9757 -1.3226 -0.0838
   42DOPE   C33 5372   0.381   4.204   4.565  0.4553 -0.8434  0.0173
   42DOPE   H3X 5373   0.283   4.195   4.617  0.4115  0.2256  0.1543
   42DOPE   H3Y 5374   0.402   4.312   4.549 -1.5016  0.0566  2.7275
   42DOPE   C34 5375   0.476   4.141   4.664 -0.2389 -0.5396 -0.1616
   42DOPE   H4X 5376   0.578   4.167   4.631 -0.1163 -1.4855 -0.5342
   42DOPE   H4Y 5377   0.460   4.199   4.758 -1.2410 -1.4767  0.2657
   42DOPE   C35 5378   0.474   3.990   4.688 -0.0275 -0.3814  0.4476
   42DOPE   H5X 5379   0.488   3.940   4.590 -0.1421  0.4262  0.0100
   42DOPE   H5Y 5380   0.372   3.968   4.727 -0.6144  0.8782 -0.3178
   42DOPE   C36 5381   0.581   3.948   4.796 -0.1966 -0.3952 -0.0519
   42DOPE   H6X 5382   0.678   3.992   4.763 -0.5676  1.3333  1.0534
   42DOPE   H6Y 5383   0.584   3.837   4.795 -1.8234 -0.4736  0.3534
   42DOPE   C37 5384   0.550   4.015   4.936 -0.4138 -0.4554  0.1430
   42DOPE   H7X 5385   0.634   3.987   5.003  1.4759  0.0833 -1.8900
   42DOPE   H7Y 5386   0.548   4.126   4.926 -3.6996 -0.5296 -1.1445
   42DOPE   C38 5387   0.423   3.964   5.005 -0.3195  0.7347 -0.0056
   42DOPE   H8X 5388   0.342   3.978   4.930  0.4443 -0.6397 -1.1317
   42DOPE   H8Y 5389   0.414   4.032   5.092  2.8069  2.5079 -0.9127
   42DOPE   C39 5390   0.416   3.815   5.027 -0.4057 -0.5558  0.3576
   42DOPE   H9X 5391   0.418   3.761   4.931 -0.5554  2.2605 -1.3357
   42DOPE  C310 5392   0.415   3.754   5.150 -0.4183  0.3601  0.1804
   42DOPE  H10X 5393   0.396   3.646   5.159  0.6360  0.3174  2.6303
   42DOPE  C311 5394   0.433   3.829   5.283  0.0750  0.4036  0.1610
   42DOPE  H11X 5395   0.536   3.871   5.284  0.4821 -0.5594 -0.5086
   42DOPE  H11Y 5396   0.364   3.915   5.295  1.2859  1.5898 -0.9958
   42DOPE  C312 5397   0.418   3.724   5.400  1.0557 -0.2323  0.8489
   42DOPE  H12X 5398   0.508   3.661   5.407  1.4172  0.3661  1.8625
   42DOPE  H12Y 5399   0.325   3.668   5.378  1.4208  0.1665 -2.1959
   42DOPE  C313 5400   0.404   3.801   5.528  0.7523  0.0221 -0.0628
   42DOPE  H13X 5401   0.496   3.862   5.538  1.1766 -0.0831 -2.6408
   42DOPE  H13Y 5402   0.335   3.887   5.515  3.1522  1.8726 -1.2774
   42DOPE  C314 5403   0.372   3.716   5.654 -0.2735  0.3602 -0.1579
   42DOPE  H14X 5404   0.454   3.641   5.662 -2.7800 -2.5981 -0.4261
   42DOPE  H14Y 5405   0.279   3.660   5.633 -0.0791 -0.6158  1.3885
   42DOPE  C315 5406   0.363   3.804   5.771  0.0923 -0.3932 -1.0853
   42DOPE  H15X 5407   0.283   3.881   5.763 -0.7356 -0.6793  2.4052
   42DOPE  H15Y 5408   0.454   3.864   5.791 -0.8879  0.5078  1.0654
   42DOPE  C316 5409   0.320   3.723   5.901 -0.4330 -0.1406  0.4466
   42DOPE  H16X 5410   0.345   3.782   5.991  0.4893 -0.3120  0.3171
   42DOPE  H16Y 5411   0.400   3.645   5.904  1.2840  1.5631  0.9848
   42DOPE  C317 5412   0.173   3.675   5.906  0.1011  0.6096 -0.6299
   42DOPE  H17X 5413   0.109   3.765   5.896 -0.7723  0.1893  0.9132
   42DOPE  H17Y 5414   0.164   3.613   5.814 -2.7165  0.2905 -0.2177
   42DOPE  C318 5415   0.126   3.597   6.031 -0.8299  0.0165  0.2516
   42DOPE  H18X 5416   0.183   3.642   6.115  1.7318  0.1080 -1.4431
   42DOPE  H18Y 5417   0.018   3.620   6.045 -0.3792  2.8164 -0.2508
   42DOPE  H18Z 5418   0.141   3.487   6.029 -1.2872 -0.2382  3.7350
   43DOPE     N 5419   0.035   2.793   3.695  0.3818  0.0345  0.7995
   43DOPE   HN1 5420  -0.025   2.726   3.747  1.1227  0.1201  1.8103
   43DOPE   HN2 5421   0.098   2.849   3.756 -0.7986  1.5175  0.7142
   43DOPE   HN3 5422  -0.024   2.867   3.651 -0.2100  0.3287  2.0438
   43DOPE   C12 5423   0.107   2.714   3.593  0.0092 -0.2785  0.5173
   43DOPE  H12A 5424   0.179   2.788   3.550 -1.5641  0.8497 -0.2704
   43DOPE  H12B 5425   0.040   2.673   3.514  1.0650 -0.1197 -0.5000
   43DOPE   C11 5426   0.188   2.594   3.650  0.2090 -0.4234  0.0451
   43DOPE  H11A 5427   0.268   2.633   3.716  0.4519  1.0135 -1.0435
   43DOPE  H11B 5428   0.233   2.537   3.566 -1.9232 -1.0664 -0.7060
   43DOPE     P 5429   0.131   2.402   3.820  0.3951  0.5820  0.1439
   43DOPE   O13 5430   0.271   2.362   3.800 -0.0508  0.6309 -0.3084
   43DOPE   O14 5431   0.028   2.298   3.845  0.0413 -0.0817 -0.2601
   43DOPE   O11 5432   0.125   2.484   3.957 -0.2780 -0.3743 -0.5471
   43DOPE   O12 5433   0.092   2.512   3.713 -0.4181 -0.1012  0.5302
   43DOPE    C1 5434   0.173   2.613   3.973  0.9960 -0.1765  0.8759
   43DOPE    HA 5435   0.124   2.684   3.902  2.3637  0.7903  0.8558
   43DOPE    HB 5436   0.283   2.610   3.957  0.9883 -1.3948  0.9695
   43DOPE    C2 5437   0.153   2.671   4.122  0.2021  0.4160 -0.3746
   43DOPE    HS 5438   0.201   2.770   4.139  1.2517  0.2089 -1.9468
   43DOPE   O21 5439   0.202   2.572   4.216  0.4033 -0.0509 -0.5317
   43DOPE   C21 5440   0.329   2.560   4.218  0.0710 -0.5138  0.6524
   43DOPE   O22 5441   0.406   2.647   4.177 -0.0614 -0.0935  0.0328
   43DOPE   C22 5442   0.371   2.440   4.300 -0.0052  0.9690 -0.1041
   43DOPE   H2R 5443   0.481   2.445   4.292  0.0969 -2.1818 -2.3858
   43DOPE   H2S 5444   0.318   2.352   4.257 -2.4749  1.3390  1.9242
   43DOPE    C3 5445   0.006   2.696   4.150  0.8800 -0.2395 -0.1680
   43DOPE    HX 5446  -0.047   2.599   4.160 -1.5733  1.1405  1.2735
   43DOPE    HY 5447  -0.027   2.755   4.062  1.8287  0.4895 -0.0499
   43DOPE   O31 5448   0.002   2.778   4.270 -0.2169  0.2587 -0.8829
   43DOPE   C31 5449  -0.039   2.700   4.381 -0.9706  0.3963 -0.3363
   43DOPE   O32 5450  -0.059   2.578   4.381 -0.3937  0.1446 -0.5608
   43DOPE   C32 5451  -0.051   2.791   4.494 -0.2899 -0.0769  0.6869
   43DOPE   H2X 5452   0.045   2.845   4.501  0.3564 -1.1392  0.1884
   43DOPE   H2Y 5453  -0.119   2.875   4.467 -2.3559 -1.6115  0.8346
   43DOPE   C23 5454   0.331   2.449   4.451  0.4800  0.5855 -0.0044
   43DOPE   H3R 5455   0.220   2.452   4.459  0.0382 -1.7960 -3.2452
   43DOPE   H3S 5456   0.370   2.544   4.493 -0.2315  2.7047 -3.6794
   43DOPE   C24 5457   0.388   2.325   4.525 -0.1493  0.1559 -0.2473
   43DOPE   H4R 5458   0.495   2.317   4.497 -0.7136 -4.9698 -1.9375
   43DOPE   H4S 5459   0.342   2.229   4.496 -0.8954  0.4565 -0.0711
   43DOPE   C25 5460   0.384   2.343   4.684 -0.1841 -0.7140  0.3175
   43DOPE   H5R 5461   0.282   2.381   4.706 -0.8094 -0.8431 -2.1147
   43DOPE   H5S 5462   0.450   2.427   4.714 -1.4741  0.2711  0.4964
   43DOPE   C26 5463   0.430   2.225   4.771  0.6536  0.8260 -0.8912
   43DOPE   H6R 5464   0.541   2.220   4.765  0.9923  0.4618  3.2528
   43DOPE   H6S 5465   0.384   2.132   4.730  0.9182 -0.6762  1.9684
   43DOPE   C27 5466   0.394   2.231   4.921 -0.0992  0.1030 -0.0809
   43DOPE   H7R 5467   0.285   2.252   4.922 -0.6515 -2.3719 -0.0403
   43DOPE   H7S 5468   0.440   2.315   4.978  0.2196 -0.0241 -0.1472
   43DOPE   C28 5469   0.410   2.093   4.994 -0.1643  0.3105  0.3314
   43DOPE   H8R 5470   0.364   2.022   4.921  1.7680  0.0693 -0.7032
   43DOPE   H8S 5471   0.353   2.082   5.088  2.3303  1.0546  2.0172
   43DOPE   C29 5472   0.549   2.040   5.011  0.5211 -0.1378  0.3917
   43DOPE   H9R 5473   0.587   1.998   4.917 -1.7459 -0.8168 -0.2983
   43DOPE  C210 5474   0.627   2.071   5.115  0.3584  0.7272 -0.0892
   43DOPE  H10R 5475   0.728   2.027   5.120  0.1462  0.3349  1.1619
   43DOPE  C211 5476   0.587   2.163   5.233 -0.3533 -0.0954  0.7658
   43DOPE  H11R 5477   0.512   2.238   5.200  0.0312 -0.8807 -2.2429
   43DOPE  H11S 5478   0.677   2.216   5.270  0.2907 -1.0985  0.6814
   43DOPE  C212 5479   0.539   2.082   5.353  0.0326  0.1782  0.2072
   43DOPE  H12R 5480   0.616   2.003   5.365  0.7445  0.8604  0.2638
   43DOPE  H12S 5481   0.441   2.040   5.322 -1.1205  3.1960 -0.6522
   43DOPE  C213 5482   0.503   2.166   5.474 -0.1929  0.2318  0.6189
   43DOPE  H13R 5483   0.424   2.241   5.452 -0.0107  0.0758 -0.6453
   43DOPE  H13S 5484   0.598   2.217   5.499  1.3977 -2.2183 -0.1366
   43DOPE  C214 5485   0.461   2.090   5.598 -0.7488  0.5793  0.4874
   43DOPE  H14R 5486   0.530   2.005   5.615 -2.0152 -0.6579 -0.3481
   43DOPE  H14S 5487   0.367   2.038   5.572  1.1990 -3.0395  0.0816
   43DOPE  C215 5488   0.434   2.168   5.718 -0.6220  0.5914 -0.2727
   43DOPE  H15R 5489   0.372   2.256   5.689 -1.3136  0.6306  1.2111
   43DOPE  H15S 5490   0.531   2.216   5.743  0.8790 -0.0889 -4.0869
   43DOPE  C216 5491   0.367   2.108   5.850  0.1071 -0.3970 -0.5064
   43DOPE  H16R 5492   0.449   2.042   5.884  1.3166  1.0900 -0.4214
   43DOPE  H16S 5493   0.274   2.050   5.834  1.0156 -2.2789  0.7683
   43DOPE  C217 5494   0.327   2.221   5.951 -0.0242 -0.5964 -0.0049
   43DOPE  H17R 5495   0.246   2.281   5.905  1.4121  1.5293  0.0930
   43DOPE  H17S 5496   0.422   2.279   5.942 -0.6209  0.2316 -1.2288
   43DOPE  C218 5497   0.297   2.171   6.090  0.0655  0.7928 -0.4085
   43DOPE  H18R 5498   0.196   2.124   6.102  0.4958  0.4232  2.5318
   43DOPE  H18S 5499   0.302   2.254   6.164 -2.3201  0.0833  0.6754
   43DOPE  H18T 5500   0.370   2.091   6.116 -2.0835 -0.9665  0.7112
   43DOPE   C33 5501  -0.110   2.734   4.624  0.1539  0.3438  0.2867
   43DOPE   H3X 5502  -0.202   2.677   4.602 -0.0648  0.5252  0.7293
   43DOPE   H3Y 5503  -0.153   2.820   4.679 -0.6157  0.4613 -0.4909
   43DOPE   C34 5504  -0.019   2.653   4.714 -0.4000 -0.3922  0.1086
   43DOPE   H4X 5505   0.055   2.609   4.643  2.1415  3.1932  0.2598
   43DOPE   H4Y 5506   0.044   2.719   4.777 -2.3682  0.6254  1.0841
   43DOPE   C35 5507  -0.084   2.546   4.803  0.3884  0.0157 -0.0203
   43DOPE   H5X 5508  -0.005   2.477   4.840 -0.1512 -1.2181 -1.0780
   43DOPE   H5Y 5509  -0.152   2.485   4.740 -0.3069  1.9500 -1.2459
   43DOPE   C36 5510  -0.153   2.614   4.924  0.6755  0.2574  0.2309
   43DOPE   H6X 5511  -0.241   2.666   4.881  1.1484  0.6001 -0.3304
   43DOPE   H6Y 5512  -0.090   2.702   4.946 -1.0971  1.0053  2.8794
   43DOPE   C37 5513  -0.191   2.519   5.038  0.2861  0.6150 -0.1319
   43DOPE   H7X 5514  -0.195   2.412   5.010  1.1783  0.2463  1.0853
   43DOPE   H7Y 5515  -0.100   2.522   5.101 -0.2335 -0.1312  0.6854
   43DOPE   C38 5516  -0.318   2.541   5.118  0.1962  0.3854  0.2600
   43DOPE   H8X 5517  -0.322   2.462   5.196  1.3926 -1.2215 -1.2187
   43DOPE   H8Y 5518  -0.404   2.533   5.048  0.8907 -0.0405 -0.5575
   43DOPE   C39 5519  -0.320   2.679   5.184 -0.1696  0.5406  0.3080
   43DOPE   H9X 5520  -0.328   2.761   5.111 -0.7936 -0.6105 -0.9537
   43DOPE  C310 5521  -0.305   2.703   5.317  1.2503  0.0343  0.1703
   43DOPE  H10X 5522  -0.312   2.807   5.353 -1.0738 -0.0634  0.0874
   43DOPE  C311 5523  -0.266   2.609   5.434 -0.0304  0.1830  0.6451
   43DOPE  H11X 5524  -0.227   2.514   5.393 -2.0466 -0.1836 -0.6070
   43DOPE  H11Y 5525  -0.193   2.649   5.508 -0.6604 -1.2951  2.1276
   43DOPE  C312 5526  -0.389   2.573   5.518 -0.7037 -0.6466 -0.1156
   43DOPE  H12X 5527  -0.366   2.483   5.580 -0.3113 -0.5143 -0.0697
   43DOPE  H12Y 5528  -0.475   2.547   5.452 -1.8789  1.3538  0.5390
   43DOPE  C313 5529  -0.445   2.693   5.607  0.2201  0.1915  0.0794
   43DOPE  H13X 5530  -0.426   2.785   5.548  0.2816  2.3153  3.2173
   43DOPE  H13Y 5531  -0.554   2.676   5.619  0.0363 -0.5193 -2.1259
   43DOPE  C314 5532  -0.384   2.704   5.751 -0.3535  0.2262  0.5222
   43DOPE  H14X 5533  -0.273   2.709   5.747 -0.2331 -1.6933 -3.9328
   43DOPE  H14Y 5534  -0.405   2.613   5.810 -1.7090 -0.4042 -0.8601
   43DOPE  C315 5535  -0.439   2.836   5.820  0.4644 -1.2354 -0.2013
   43DOPE  H15X 5536  -0.423   2.926   5.757 -0.6956  0.2957  1.6129
   43DOPE  H15Y 5537  -0.388   2.840   5.918  0.0451 -3.2214  0.1429
   43DOPE  C316 5538  -0.588   2.834   5.856 -0.0778  0.5506  0.5334
   43DOPE  H16X 5539  -0.629   2.737   5.890 -1.9126  0.4725 -1.6582
   43DOPE  H16Y 5540  -0.651   2.845   5.765  0.1948 -1.1606  0.0989
   43DOPE  C317 5541  -0.626   2.943   5.955  0.1935  0.8605  0.9059
   43DOPE  H17X 5542  -0.552   2.951   6.037 -0.1208  1.2671  1.1543
   43DOPE  H17Y 5543  -0.630   3.036   5.894 -2.7496 -0.3767 -1.0342
   43DOPE  C318 5544  -0.768   2.916   6.013  0.0613 -0.2154  0.3737
   43DOPE  H18X 5545  -0.766   2.823   6.073  2.1639 -0.1033  0.5427
   43DOPE  H18Y 5546  -0.821   2.991   6.075  0.6367  0.6242 -0.1242
   43DOPE  H18Z 5547  -0.838   2.895   5.929 -0.6435 -1.4954  1.2539
   44DOPE     N 5548   1.875   1.319   4.245  0.4245  0.1023 -0.0587
   44DOPE   HN1 5549   1.783   1.287   4.210 -0.3189 -0.5938  2.3371
   44DOPE   HN2 5550   1.857   1.386   4.323  2.1918  0.6893 -0.1169
   44DOPE   HN3 5551   1.915   1.378   4.170 -0.5650  0.4862 -0.3008
   44DOPE   C12 5552   1.966   1.198   4.276  0.4557 -0.8800 -0.6026
   44DOPE  H12A 5553   1.910   1.133   4.347 -1.1314 -0.8384 -1.7603
   44DOPE  H12B 5554   2.055   1.242   4.326 -0.1881  1.6770 -1.5637
   44DOPE   C11 5555   2.008   1.123   4.148  0.2616  0.8695  0.2767
   44DOPE  H11A 5556   1.931   1.073   4.086 -1.4431  2.9788  0.5955
   44DOPE  H11B 5557   2.075   1.040   4.180 -1.4536 -1.6599 -2.2643
   44DOPE     P 5558   2.170   1.173   3.940 -0.2365  0.0945  0.1695
   44DOPE   O13 5559   2.211   1.296   3.872 -0.2768 -0.5454 -0.1648
   44DOPE   O14 5560   2.103   1.075   3.858 -0.6377  0.4105 -0.1954
   44DOPE   O11 5561   2.284   1.099   4.017 -0.4050  0.2043  0.5417
   44DOPE   O12 5562   2.076   1.216   4.061 -0.1944 -0.0924  0.4417
   44DOPE    C1 5563   2.356   1.159   4.123 -0.1733  0.0318  0.0838
   44DOPE    HA 5564   2.290   1.203   4.201  0.0422  0.7935 -0.1461
   44DOPE    HB 5565   2.420   1.246   4.095  1.1998 -0.2419  2.2177
   44DOPE    C2 5566   2.455   1.064   4.194  0.8601 -0.3697  0.2389
   44DOPE    HS 5567   2.525   1.011   4.126 -1.4544 -1.2520 -1.5738
   44DOPE   O21 5568   2.374   0.965   4.261  0.1213 -0.1146  0.3332
   44DOPE   C21 5569   2.431   0.876   4.336  0.3134  0.4646 -0.2482
   44DOPE   O22 5570   2.548   0.845   4.341 -0.6142  0.0981 -0.4809
   44DOPE   C22 5571   2.325   0.806   4.421 -0.4043 -1.2009  0.1314
   44DOPE   H2R 5572   2.251   0.760   4.353 -0.3204  1.9078 -2.2861
   44DOPE   H2S 5573   2.267   0.878   4.483  0.1163 -0.7526  0.1134
   44DOPE    C3 5574   2.544   1.152   4.285 -0.1336  0.2228  0.3370
   44DOPE    HX 5575   2.607   1.216   4.219  0.7476 -1.8956 -0.9578
   44DOPE    HY 5576   2.613   1.087   4.343 -0.1934  0.2814  0.4723
   44DOPE   O31 5577   2.471   1.240   4.370  0.1148  0.1671 -0.0868
   44DOPE   C31 5578   2.444   1.201   4.488 -0.1402  0.1257 -0.5026
   44DOPE   O32 5579   2.463   1.092   4.540  0.7984  0.2781  0.6292
   44DOPE   C32 5580   2.381   1.310   4.571  0.5105 -0.9563  0.2690
   44DOPE   H2X 5581   2.447   1.399   4.562 -2.8399  1.5790 -1.8883
   44DOPE   H2Y 5582   2.283   1.345   4.532  0.2078 -1.9036  0.1474
   44DOPE   C23 5583   2.381   0.692   4.508 -0.2210  0.7310  0.8201
   44DOPE   H3R 5584   2.451   0.632   4.446 -0.4857  1.2654 -0.0177
   44DOPE   H3S 5585   2.294   0.633   4.545 -1.5846  2.7810  1.0798
   44DOPE   C24 5586   2.460   0.750   4.626  0.5154 -0.0504  0.0207
   44DOPE   H4R 5587   2.390   0.794   4.699  1.4902  0.2206  0.8093
   44DOPE   H4S 5588   2.529   0.830   4.592 -0.2642  1.3924  1.7020
   44DOPE   C25 5589   2.532   0.635   4.697  0.0846 -0.2977  0.3176
   44DOPE   H5R 5590   2.609   0.586   4.634  0.3694 -0.2761  0.6488
   44DOPE   H5S 5591   2.451   0.561   4.714  0.3162 -0.6812 -0.2218
   44DOPE   C26 5592   2.604   0.694   4.824  1.0347 -0.3146 -0.4222
   44DOPE   H6R 5593   2.527   0.698   4.904  1.2970  1.0714 -0.2141
   44DOPE   H6S 5594   2.636   0.797   4.796 -0.3195  0.4452  0.6594
   44DOPE   C27 5595   2.728   0.618   4.875 -0.2477  1.1800  0.8631
   44DOPE   H7R 5596   2.795   0.604   4.788 -0.5861  1.3047  0.5808
   44DOPE   H7S 5597   2.702   0.510   4.885  0.9565  0.9211  1.4291
   44DOPE   C28 5598   2.793   0.663   5.009  0.5142 -0.1328  0.5887
   44DOPE   H8R 5599   2.809   0.773   4.999  0.1289  0.0678  1.9548
   44DOPE   H8S 5600   2.897   0.625   5.015  1.3280  1.5892 -1.2765
   44DOPE   C29 5601   2.708   0.642   5.141 -0.2583 -0.8662 -0.2796
   44DOPE   H9R 5602   2.665   0.728   5.195 -2.0477 -1.9377  0.1032
   44DOPE  C210 5603   2.680   0.524   5.197  0.2071  0.1398  0.0641
   44DOPE  H10R 5604   2.634   0.532   5.296  1.2203 -0.5190  0.6023
   44DOPE  C211 5605   2.720   0.388   5.145  0.7349 -0.0783 -0.9356
   44DOPE  H11R 5606   2.764   0.394   5.043  0.2912  0.9480 -1.0851
   44DOPE  H11S 5607   2.641   0.311   5.137 -0.6975  1.4304 -1.8077
   44DOPE  C212 5608   2.844   0.330   5.221 -0.0038 -0.5236  0.0191
   44DOPE  H12R 5609   2.927   0.404   5.214 -0.3921 -0.0827  0.1072
   44DOPE  H12S 5610   2.883   0.239   5.169  0.5400 -1.1062  1.3867
   44DOPE  C213 5611   2.832   0.299   5.367  0.1169  0.1827  0.4539
   44DOPE  H13R 5612   2.802   0.383   5.433  0.3402 -0.8587  1.9261
   44DOPE  H13S 5613   2.932   0.260   5.394  0.7385 -0.9644 -3.0042
   44DOPE  C214 5614   2.730   0.185   5.386 -0.0146  1.0222 -0.0333
   44DOPE  H14R 5615   2.758   0.080   5.363  0.3424  1.1139 -0.0328
   44DOPE  H14S 5616   2.651   0.210   5.312 -1.5965 -0.6894  1.0042
   44DOPE  C215 5617   2.655   0.184   5.521 -0.2947 -0.4156  0.3427
   44DOPE  H15R 5618   2.566   0.121   5.503  0.2591 -0.8635 -0.9194
   44DOPE  H15S 5619   2.620   0.289   5.534 -1.0499 -0.2419 -2.4691
   44DOPE  C216 5620   2.745   0.141   5.640 -1.0665 -0.4826 -0.0221
   44DOPE  H16R 5621   2.845   0.191   5.641 -0.9788 -0.5887  2.8126
   44DOPE  H16S 5622   2.772   0.034   5.630 -3.0710 -1.2182  1.8644
   44DOPE  C217 5623   2.678   0.158   5.775  0.5577 -0.6501 -0.1987
   44DOPE  H17R 5624   2.739   0.115   5.857  1.2590 -3.1193 -1.8752
   44DOPE  H17S 5625   2.588   0.096   5.792  0.9233 -0.7399  1.6557
   44DOPE  C218 5626   2.623   0.302   5.794  0.2953 -1.0456 -0.7254
   44DOPE  H18R 5627   2.551   0.334   5.716 -1.4664 -1.1434  0.8095
   44DOPE  H18S 5628   2.701   0.381   5.786 -0.1362 -0.3618  1.2911
   44DOPE  H18T 5629   2.557   0.313   5.883 -0.9023 -4.1131 -1.0967
   44DOPE   C33 5630   2.357   1.284   4.722 -0.0881 -0.5763  0.1375
   44DOPE   H3X 5631   2.437   1.218   4.762  1.1403 -1.0145 -2.8077
   44DOPE   H3Y 5632   2.260   1.231   4.735 -0.5815  0.3744  0.4494
   44DOPE   C34 5633   2.352   1.411   4.808 -0.2684  0.2440  0.3386
   44DOPE   H4X 5634   2.449   1.463   4.794  0.4729 -1.1376  0.1749
   44DOPE   H4Y 5635   2.273   1.480   4.770  0.6223  1.0974 -0.0082
   44DOPE   C35 5636   2.315   1.400   4.958 -0.2488  0.4852 -0.0521
   44DOPE   H5X 5637   2.211   1.363   4.972 -0.2957  0.8941  0.7083
   44DOPE   H5Y 5638   2.312   1.507   4.987 -2.1609 -0.3017  3.1861
   44DOPE   C36 5639   2.404   1.316   5.047 -0.1128  0.2704 -0.1903
   44DOPE   H6X 5640   2.511   1.335   5.026 -0.2563  0.7261 -0.5221
   44DOPE   H6Y 5641   2.402   1.206   5.029  1.4934  0.0994  0.5579
   44DOPE   C37 5642   2.378   1.357   5.191  0.0270 -0.8940 -0.0055
   44DOPE   H7X 5643   2.336   1.460   5.192 -1.2069 -1.3119 -2.0741
   44DOPE   H7Y 5644   2.292   1.301   5.231  0.1851  1.3035  3.9069
   44DOPE   C38 5645   2.496   1.331   5.288 -0.1795 -0.3545  0.1159
   44DOPE   H8X 5646   2.592   1.350   5.235  0.0692 -1.4353  0.1423
   44DOPE   H8Y 5647   2.489   1.225   5.321  1.5682 -0.8982 -1.1201
   44DOPE   C39 5648   2.485   1.418   5.409  0.1523 -0.1898 -0.6092
   44DOPE   H9X 5649   2.489   1.526   5.385  0.8319 -0.6471 -2.7800
   44DOPE  C310 5650   2.501   1.378   5.538 -0.5931  0.2561  0.4925
   44DOPE  H10X 5651   2.490   1.453   5.618  1.3939  1.2473 -0.0705
   44DOPE  C311 5652   2.531   1.245   5.594  0.3624 -0.3034  0.3661
   44DOPE  H11X 5653   2.464   1.229   5.682 -2.1091  1.8410 -0.9607
   44DOPE  H11Y 5654   2.530   1.159   5.523  2.4130  1.3288 -1.7858
   44DOPE  C312 5655   2.675   1.227   5.650 -0.2587 -0.3875  0.4616
   44DOPE  H12X 5656   2.741   1.224   5.561  1.8509 -1.3282  1.9736
   44DOPE  H12Y 5657   2.681   1.126   5.695  0.3353 -2.0931 -3.0993
   44DOPE  C313 5658   2.719   1.339   5.747  0.2708 -0.1685  0.2898
   44DOPE  H13X 5659   2.827   1.334   5.774 -0.2338  0.2056  2.6143
   44DOPE  H13Y 5660   2.706   1.441   5.706  1.8317  0.0280  0.2417
   44DOPE  C314 5661   2.644   1.329   5.885  0.2021 -0.0010 -0.1232
   44DOPE  H14X 5662   2.640   1.228   5.930 -0.8337 -0.0460 -0.2926
   44DOPE  H14Y 5663   2.536   1.345   5.868  0.2886  3.5828  1.8119
   44DOPE  C315 5664   2.691   1.426   6.001  0.3156 -0.0576  0.7573
   44DOPE  H15X 5665   2.709   1.525   5.955  3.0195 -0.3937  0.9663
   44DOPE  H15Y 5666   2.793   1.390   6.028 -0.3349 -1.1480  1.9163
   44DOPE  C316 5667   2.599   1.432   6.126  0.1269 -0.8244  0.0667
   44DOPE  H16X 5668   2.596   1.327   6.162 -0.1616 -0.9970 -0.4628
   44DOPE  H16Y 5669   2.498   1.451   6.083 -1.1002 -1.0089  2.6893
   44DOPE  C317 5670   2.640   1.539   6.228  0.0538  0.1094  0.3016
   44DOPE  H17X 5671   2.744   1.523   6.263  0.4877  1.2238 -0.3846
   44DOPE  H17Y 5672   2.626   1.636   6.175  0.3638 -1.1097 -2.1754
   44DOPE  C318 5673   2.547   1.548   6.344 -0.1399  0.7457 -0.5394
   44DOPE  H18X 5674   2.439   1.540   6.317 -1.2901  1.2881  3.2842
   44DOPE  H18Y 5675   2.561   1.469   6.420  0.6023  0.8398 -0.5688
   44DOPE  H18Z 5676   2.544   1.650   6.389 -3.0983 -0.3309  2.0609
   45DOPE     N 5677   2.585   1.307   3.622 -0.1803  0.2311  0.1861
   45DOPE   HN1 5678   2.576   1.409   3.640 -1.0373  0.7740 -2.7248
   45DOPE   HN2 5679   2.686   1.281   3.622  0.4624  2.3843 -1.5157
   45DOPE   HN3 5680   2.546   1.303   3.525 -0.1393  1.3075  0.1126
   45DOPE   C12 5681   2.511   1.226   3.724  0.0951 -0.7162 -0.7544
   45DOPE  H12A 5682   2.478   1.126   3.690 -2.6087 -0.5065  0.9448
   45DOPE  H12B 5683   2.422   1.285   3.755  0.0014 -1.3184  0.1376
   45DOPE   C11 5684   2.598   1.213   3.852 -0.0607  0.6971  0.1772
   45DOPE  H11A 5685   2.538   1.160   3.929  1.1327 -0.5054  0.3085
   45DOPE  H11B 5686   2.636   1.305   3.902  0.2685  0.9975 -0.6129
   45DOPE     P 5687   2.734   0.989   3.876  0.4706  0.2309 -0.2790
   45DOPE   O13 5688   2.847   0.916   3.819 -0.5038  0.4057  0.1284
   45DOPE   O14 5689   2.606   0.919   3.879  0.1031  0.3136 -0.1119
   45DOPE   O11 5690   2.764   1.036   4.023 -0.0022 -0.0288 -0.1928
   45DOPE   O12 5691   2.714   1.129   3.809 -0.3399  0.2275 -0.0737
   45DOPE    C1 5692   2.891   1.093   4.060 -0.3785 -0.1341 -0.4095
   45DOPE    HA 5693   2.879   1.191   4.109  0.1364 -0.3527  0.1730
   45DOPE    HB 5694   2.959   1.112   3.974 -0.0837 -0.9348 -0.3651
   45DOPE    C2 5695   2.972   1.006   4.164 -0.1576 -0.2027  0.0172
   45DOPE    HS 5696   2.984   0.906   4.118  0.5469 -0.5558  0.9487
   45DOPE   O21 5697   2.897   1.017   4.286 -0.0462 -0.0454  1.0629
   45DOPE   C21 5698   2.901   0.900   4.356  0.1882  0.2738 -0.2399
   45DOPE   O22 5699   2.943   0.792   4.318 -0.4788  0.2653  0.1117
   45DOPE   C22 5700   2.838   0.936   4.489 -0.1705  0.3711 -0.5912
   45DOPE   H2R 5701   2.800   0.841   4.531  0.5127  0.9744  1.5021
   45DOPE   H2S 5702   2.746   0.995   4.469  0.6319  1.3584 -1.4959
   45DOPE    C3 5703   3.118   1.055   4.197  0.7190 -0.2952  0.1111
   45DOPE    HX 5704   3.098   1.143   4.262 -1.1725 -3.4925  4.3467
   45DOPE    HY 5705   3.172   1.089   4.106  0.1945  4.1955  1.1913
   45DOPE   O31 5706   3.188   0.957   4.277  1.0640 -0.1707 -0.8445
   45DOPE   C31 5707   3.320   0.978   4.289 -0.2459 -0.0551 -0.3645
   45DOPE   O32 5708   3.378   1.071   4.233 -0.4709  0.3978  0.2575
   45DOPE   C32 5709   3.376   0.862   4.372  0.3935 -0.5181  0.1367
   45DOPE   H2X 5710   3.296   0.818   4.435  0.5870  2.5564  2.7590
   45DOPE   H2Y 5711   3.415   0.794   4.292  0.6113  1.3617 -1.4256
   45DOPE   C23 5712   2.945   0.997   4.581  0.4361 -0.1172 -0.4373
   45DOPE   H3R 5713   2.970   1.093   4.532  3.1059  0.7835  2.3666
   45DOPE   H3S 5714   3.045   0.948   4.587  0.0316 -1.1865 -1.8489
   45DOPE   C24 5715   2.887   1.036   4.724  0.2276  0.0796  0.4736
   45DOPE   H4R 5716   2.976   1.057   4.787  1.7326  1.7733 -2.0528
   45DOPE   H4S 5717   2.847   0.938   4.758 -0.0216 -0.8396 -2.2314
   45DOPE   C25 5718   2.785   1.154   4.743  0.1013  0.5493 -0.6009
   45DOPE   H5R 5719   2.703   1.162   4.669 -3.0270  2.7206  2.7190
   45DOPE   H5S 5720   2.847   1.246   4.732  1.6922 -0.2170  1.4281
   45DOPE   C26 5721   2.722   1.150   4.885  0.8640 -0.3117  0.0566
   45DOPE   H6R 5722   2.663   1.056   4.898  2.2145 -1.1149  0.6190
   45DOPE   H6S 5723   2.653   1.237   4.892  0.7303 -0.4880  1.1197
   45DOPE   C27 5724   2.829   1.144   4.987  0.2804  0.1511 -0.6012
   45DOPE   H7R 5725   2.899   1.230   4.971  0.1164  0.5994  0.9381
   45DOPE   H7S 5726   2.880   1.046   4.984 -0.1334 -0.0445 -1.4079
   45DOPE   C28 5727   2.765   1.140   5.131 -1.0503 -0.4084  0.7766
   45DOPE   H8R 5728   2.710   1.044   5.138 -2.2735  0.2873  1.2258
   45DOPE   H8S 5729   2.694   1.226   5.122 -0.1045  0.2548 -0.7005
   45DOPE   C29 5730   2.847   1.157   5.259 -0.0913  0.2190 -0.1199
   45DOPE   H9R 5731   2.890   1.258   5.266 -0.1683  0.5075 -2.7368
   45DOPE  C210 5732   2.882   1.060   5.350  0.6435 -0.9230 -0.5084
   45DOPE  H10R 5733   2.942   1.088   5.439 -0.5108 -1.6154  0.5150
   45DOPE  C211 5734   2.844   0.914   5.343  0.2796  0.0752  0.1362
   45DOPE  H11R 5735   2.933   0.867   5.296  0.5181  1.6501 -1.0374
   45DOPE  H11S 5736   2.762   0.888   5.273 -0.1459  0.2724  0.5489
   45DOPE  C212 5737   2.819   0.857   5.487  0.2560 -0.6555  0.0486
   45DOPE  H12R 5738   2.710   0.853   5.503  0.6052 -1.1769  2.5859
   45DOPE  H12S 5739   2.870   0.921   5.562  2.3066 -0.6727 -1.2294
   45DOPE  C213 5740   2.877   0.712   5.490 -0.1301  0.1520  0.3350
   45DOPE  H13R 5741   2.986   0.707   5.510 -0.3538 -1.6284  1.3481
   45DOPE  H13S 5742   2.848   0.645   5.406 -0.9636  0.9444 -0.0338
   45DOPE  C214 5743   2.802   0.635   5.604 -0.7381 -0.3414  0.3028
   45DOPE  H14R 5744   2.846   0.534   5.617 -1.1225 -0.2323  2.9111
   45DOPE  H14S 5745   2.692   0.631   5.589 -1.0176  1.5905  1.4229
   45DOPE  C215 5746   2.823   0.709   5.743  0.5652  0.3111 -0.0899
   45DOPE  H15R 5747   2.756   0.796   5.760 -2.5496 -1.9769  0.2232
   45DOPE  H15S 5748   2.929   0.741   5.751 -0.0370  2.4413 -0.0483
   45DOPE  C216 5749   2.790   0.629   5.866  0.1858  0.1337 -0.3668
   45DOPE  H16R 5750   2.830   0.527   5.849 -0.8270 -0.6449  1.6652
   45DOPE  H16S 5751   2.681   0.608   5.866 -0.1276  1.5983 -0.8551
   45DOPE  C217 5752   2.851   0.695   5.992 -0.1336  0.3762  0.2465
   45DOPE  H17R 5753   2.809   0.797   6.001  1.1184  0.8152  1.3269
   45DOPE  H17S 5754   2.961   0.709   5.988  0.2008 -1.8836  0.0861
   45DOPE  C218 5755   2.817   0.612   6.118 -0.9437  0.4537 -0.4982
   45DOPE  H18R 5756   2.858   0.511   6.097 -1.5419  0.0219  0.3368
   45DOPE  H18S 5757   2.707   0.598   6.132 -0.8017 -0.3828 -0.1368
   45DOPE  H18T 5758   2.864   0.656   6.209  0.8024 -1.5115 -0.3685
   45DOPE   C33 5759   3.498   0.901   4.463  0.2536 -0.7175 -0.7493
   45DOPE   H3X 5760   3.573   0.964   4.411  0.8553  0.2068  1.1205
   45DOPE   H3Y 5761   3.555   0.808   4.482 -0.7305 -0.8638  1.9268
   45DOPE   C34 5762   3.460   0.978   4.594 -0.9576  0.0236 -0.1949
   45DOPE   H4X 5763   3.451   1.086   4.571  2.4106  0.4014 -0.2665
   45DOPE   H4Y 5764   3.364   0.945   4.637 -0.9197  1.2842  0.9217
   45DOPE   C35 5765   3.576   0.979   4.702 -0.0959 -0.2408  0.3074
   45DOPE   H5X 5766   3.665   1.022   4.652 -2.4111  2.1692 -2.0605
   45DOPE   H5Y 5767   3.599   0.874   4.730 -2.4060 -0.8654  0.0683
   45DOPE   C36 5768   3.545   1.058   4.833  0.0761 -0.2483  0.1846
   45DOPE   H6X 5769   3.449   1.024   4.876  0.3326 -0.8367  0.3008
   45DOPE   H6Y 5770   3.530   1.162   4.795 -0.0439 -0.3968 -0.1763
   45DOPE   C37 5771   3.669   1.061   4.927 -0.5528  0.4430  0.1639
   45DOPE   H7X 5772   3.679   0.958   4.968  1.0251 -0.1075 -1.4989
   45DOPE   H7Y 5773   3.756   1.083   4.862 -0.5229 -1.1053 -0.3583
   45DOPE   C38 5774   3.670   1.161   5.048 -0.4285  0.8411 -0.9555
   45DOPE   H8X 5775   3.641   1.261   5.008 -2.4965  1.0482  0.8886
   45DOPE   H8Y 5776   3.771   1.152   5.092 -1.0582 -1.2463  0.1773
   45DOPE   C39 5777   3.568   1.116   5.150  0.0489  0.0598  0.0472
   45DOPE   H9X 5778   3.478   1.074   5.104  0.3064 -1.1728  0.6306
   45DOPE  C310 5779   3.568   1.133   5.284 -0.2303  0.3417 -0.4616
   45DOPE  H10X 5780   3.484   1.095   5.344  0.1860 -2.5857 -1.5227
   45DOPE  C311 5781   3.667   1.198   5.378  0.4371  0.7556 -0.1951
   45DOPE  H11X 5782   3.706   1.123   5.450  0.6202  1.3773  0.3615
   45DOPE  H11Y 5783   3.759   1.234   5.327 -0.3316  1.5119 -1.0956
   45DOPE  C312 5784   3.619   1.312   5.470  0.4378  0.1387 -0.6600
   45DOPE  H12X 5785   3.569   1.387   5.405  1.5118  0.7124 -0.8386
   45DOPE  H12Y 5786   3.709   1.358   5.516 -0.6919  0.8302  0.9500
   45DOPE  C313 5787   3.516   1.284   5.580  0.0552 -0.0813  1.0124
   45DOPE  H13X 5788   3.414   1.254   5.548  0.5995 -0.4953 -0.3824
   45DOPE  H13Y 5789   3.563   1.205   5.643 -0.3653 -0.8166  0.4074
   45DOPE  C314 5790   3.495   1.408   5.666  0.0140  0.1964  0.2062
   45DOPE  H14X 5791   3.417   1.475   5.623  0.8601 -0.1725 -2.0635
   45DOPE  H14Y 5792   3.589   1.466   5.681  0.2925  0.3129 -1.7466
   45DOPE  C315 5793   3.458   1.387   5.822  0.6381  0.3063  0.4261
   45DOPE  H15X 5794   3.395   1.296   5.833  0.8769 -0.1827 -1.7538
   45DOPE  H15Y 5795   3.402   1.477   5.856  2.2409  1.4944  0.0148
   45DOPE  C316 5796   3.582   1.368   5.910  0.2788 -0.5969 -0.5576
   45DOPE  H16X 5797   3.658   1.446   5.887 -1.1893  0.5671 -1.6461
   45DOPE  H16Y 5798   3.624   1.270   5.880 -0.0979 -0.3788 -1.8460
   45DOPE  C317 5799   3.551   1.376   6.061 -0.9843  0.2477 -0.2121
   45DOPE  H17X 5800   3.644   1.400   6.118 -1.1427  0.2094  0.0624
   45DOPE  H17Y 5801   3.473   1.450   6.090 -1.8643 -0.9980  0.7489
   45DOPE  C318 5802   3.505   1.240   6.118 -0.2869 -0.3342 -0.6249
   45DOPE  H18X 5803   3.561   1.156   6.073  0.2330  0.7890 -2.1643
   45DOPE  H18Y 5804   3.509   1.252   6.228  1.0195  1.7608 -0.8602
   45DOPE  H18Z 5805   3.397   1.224   6.094 -0.5020 -0.8540  0.6377
   46DOPE     N 5806   3.696   5.332   3.434 -0.1039 -0.2214  0.2565
   46DOPE   HN1 5807   3.625   5.382   3.492 -0.6941 -1.4332  0.6215
   46DOPE   HN2 5808   3.652   5.317   3.341  3.1096  0.8049 -1.5673
   46DOPE   HN3 5809   3.702   5.243   3.488 -0.9216  0.4745  1.5403
   46DOPE   C12 5810   3.827   5.391   3.417 -0.2134 -0.3480 -0.0241
   46DOPE  H12A 5811   3.879   5.318   3.351 -1.5255 -2.2489  0.9345
   46DOPE  H12B 5812   3.886   5.383   3.510 -1.0988 -0.6667  0.5272
   46DOPE   C11 5813   3.825   5.534   3.366 -0.3878 -0.5498  0.4496
   46DOPE  H11A 5814   3.786   5.548   3.263 -0.0736 -4.0358 -0.2922
   46DOPE  H11B 5815   3.931   5.567   3.361 -0.8109  0.7150 -0.7464
   46DOPE     P 5816   3.835   5.697   3.573  0.3754  0.1252 -0.3430
   46DOPE   O13 5817   3.735   5.785   3.641 -0.3336  0.4381 -0.0129
   46DOPE   O14 5818   3.951   5.769   3.515  0.3185 -0.4685 -0.6859
   46DOPE   O11 5819   3.873   5.586   3.670  0.6213 -0.5393  0.4344
   46DOPE   O12 5820   3.763   5.624   3.453  0.3510 -0.4567 -0.8517
   46DOPE    C1 5821   3.780   5.506   3.744  0.7643  0.2628  0.1291
   46DOPE    HA 5822   3.815   5.401   3.736 -0.7135 -0.2603  0.2744
   46DOPE    HB 5823   3.674   5.511   3.711  0.9283  1.3525 -0.2956
   46DOPE    C2 5824   3.787   5.547   3.894 -1.1021 -0.1757  0.7176
   46DOPE    HS 5825   3.733   5.644   3.892 -1.7021 -0.4000  2.9424
   46DOPE   O21 5826   3.920   5.560   3.939 -0.1446 -0.5229  0.0033
   46DOPE   C21 5827   3.932   5.668   4.016 -0.7489 -0.2718  0.1803
   46DOPE   O22 5828   3.845   5.746   4.043  0.3207 -0.3835 -0.3846
   46DOPE   C22 5829   4.077   5.669   4.071 -0.2531 -0.1579 -0.1942
   46DOPE   H2R 5830   4.127   5.755   4.021 -0.2557 -1.1217 -1.9447
   46DOPE   H2S 5831   4.127   5.579   4.030 -2.6556 -1.3202 -0.7805
   46DOPE    C3 5832   3.718   5.454   3.992  0.3652  0.6175 -0.1586
   46DOPE    HX 5833   3.758   5.351   3.987 -0.2041  0.4414 -1.5740
   46DOPE    HY 5834   3.611   5.447   3.965  0.0451 -2.3829  1.4996
   46DOPE   O31 5835   3.733   5.491   4.138 -0.3653  0.0466  0.0994
   46DOPE   C31 5836   3.642   5.557   4.192 -0.0149 -0.8053 -0.6861
   46DOPE   O32 5837   3.543   5.606   4.137  0.3300 -0.1000  0.2054
   46DOPE   C32 5838   3.669   5.574   4.343  0.7534 -0.0736 -0.0052
   46DOPE   H2X 5839   3.641   5.475   4.387 -0.2266  0.4768  0.6372
   46DOPE   H2Y 5840   3.778   5.596   4.352  0.5788  1.2726 -0.9365
   46DOPE   C23 5841   4.085   5.685   4.223 -0.2878 -0.8302 -0.2919
   46DOPE   H3R 5842   4.017   5.763   4.264  0.5426 -0.3200  0.1505
   46DOPE   H3S 5843   4.186   5.714   4.260 -1.2563  0.4119  1.5390
   46DOPE   C24 5844   4.054   5.557   4.289  0.1190 -0.6024 -0.1462
   46DOPE   H4R 5845   4.105   5.472   4.239  2.8944  0.6139  0.4426
   46DOPE   H4S 5846   3.945   5.536   4.279  0.2907 -2.8415  1.7137
   46DOPE   C25 5847   4.083   5.550   4.442 -0.4669 -0.0423  0.1415
   46DOPE   H5R 5848   4.019   5.624   4.494  0.1393 -1.0590  2.4550
   46DOPE   H5S 5849   4.187   5.583   4.466  0.2702 -1.5526 -0.7812
   46DOPE   C26 5850   4.039   5.414   4.503 -0.1373  0.5743 -0.7223
   46DOPE   H6R 5851   4.081   5.334   4.439 -0.5139  1.0186 -1.5566
   46DOPE   H6S 5852   3.928   5.404   4.492 -0.1598  0.8976 -0.8222
   46DOPE   C27 5853   4.057   5.386   4.658  0.3485 -0.1274 -0.4881
   46DOPE   H7R 5854   4.160   5.348   4.669  0.9385  1.3737 -0.5302
   46DOPE   H7S 5855   3.994   5.298   4.682  0.0089 -0.2168 -1.6201
   46DOPE   C28 5856   4.031   5.510   4.748 -0.8673  0.3363 -0.4087
   46DOPE   H8R 5857   4.097   5.588   4.705 -1.0642 -0.9652 -3.2763
   46DOPE   H8S 5858   4.074   5.487   4.848 -2.4711  1.2255  0.5348
   46DOPE   C29 5859   3.884   5.557   4.751 -0.4378  0.0580  0.9319
   46DOPE   H9R 5860   3.859   5.572   4.645  1.7998  0.3886  0.4129
   46DOPE  C210 5861   3.797   5.539   4.850  0.0710  0.1301  0.9803
   46DOPE  H10R 5862   3.692   5.567   4.830 -0.5701 -1.1059  2.4342
   46DOPE  C211 5863   3.837   5.481   4.985  0.8875  0.4648  1.0586
   46DOPE  H11R 5864   3.907   5.397   4.964 -0.9198 -1.0041  0.5256
   46DOPE  H11S 5865   3.753   5.429   5.037  2.4059 -2.9658  0.3520
   46DOPE  C212 5866   3.900   5.564   5.091 -0.8656 -0.2473  0.3418
   46DOPE  H12R 5867   3.850   5.663   5.098  0.7040  0.8668 -2.5475
   46DOPE  H12S 5868   3.995   5.604   5.048 -1.4524  0.0714 -0.6848
   46DOPE  C213 5869   3.939   5.494   5.218  0.7294 -0.2206 -0.5879
   46DOPE  H13R 5870   4.005   5.409   5.193  0.9598 -0.3551  0.4421
   46DOPE  H13S 5871   3.848   5.445   5.260  0.2483  0.9390 -0.2267
   46DOPE  C214 5872   3.991   5.576   5.336 -0.6009  0.2828  0.1628
   46DOPE  H14R 5873   3.908   5.641   5.369 -2.3544 -1.9069  0.2513
   46DOPE  H14S 5874   4.077   5.639   5.303  0.3339  0.0331  2.0028
   46DOPE  C215 5875   4.038   5.483   5.451 -0.1310  0.7695  0.3068
   46DOPE  H15R 5876   4.109   5.410   5.408 -3.8226 -2.7963 -0.4025
   46DOPE  H15S 5877   3.959   5.418   5.495  0.9311 -1.4256 -0.8996
   46DOPE  C216 5878   4.077   5.555   5.583 -0.0136  0.1585 -0.5992
   46DOPE  H16R 5879   3.990   5.610   5.623 -0.8822 -1.1508 -0.6020
   46DOPE  H16S 5880   4.158   5.628   5.561 -0.6773  1.5011  1.2357
   46DOPE  C217 5881   4.097   5.453   5.695  0.0079  0.0424  0.7049
   46DOPE  H17R 5882   4.012   5.381   5.696 -0.6878  0.8323  1.8871
   46DOPE  H17S 5883   4.094   5.508   5.792  1.1477  0.3397  0.5908
   46DOPE  C218 5884   4.227   5.370   5.675 -0.2585  0.2508  0.6972
   46DOPE  H18R 5885   4.322   5.428   5.663  1.1714 -1.9030  1.1269
   46DOPE  H18S 5886   4.223   5.306   5.585  1.4724 -0.0073  0.7609
   46DOPE  H18T 5887   4.240   5.308   5.766 -3.6885 -0.3448  0.8902
   46DOPE   C33 5888   3.575   5.676   4.407 -0.2655 -0.6120  0.0159
   46DOPE   H3X 5889   3.563   5.771   4.350  0.2407 -1.4672 -1.5656
   46DOPE   H3Y 5890   3.627   5.698   4.503  0.1933 -0.9084 -0.1623
   46DOPE   C34 5891   3.438   5.627   4.453 -0.3684  0.1290  0.0138
   46DOPE   H4X 5892   3.376   5.631   4.361 -0.6117 -1.6263  0.0726
   46DOPE   H4Y 5893   3.453   5.521   4.482 -1.3351 -0.2171 -0.6947
   46DOPE   C35 5894   3.365   5.698   4.567  0.7185 -0.3358  0.2609
   46DOPE   H5X 5895   3.260   5.662   4.569  0.7338 -0.3636  2.2830
   46DOPE   H5Y 5896   3.356   5.806   4.543 -0.5476 -0.4764  0.0809
   46DOPE   C36 5897   3.431   5.691   4.702 -0.0950 -0.0924  0.4111
   46DOPE   H6X 5898   3.532   5.737   4.702  0.7863 -1.9384  1.0551
   46DOPE   H6Y 5899   3.441   5.585   4.734  1.2060 -0.6958 -1.7562
   46DOPE   C37 5900   3.343   5.765   4.803  0.6918  0.0755 -0.6326
   46DOPE   H7X 5901   3.343   5.873   4.778  1.5161  0.4499  0.8776
   46DOPE   H7Y 5902   3.238   5.727   4.802  0.2661  1.1356 -3.0531
   46DOPE   C38 5903   3.391   5.756   4.952  0.3530 -0.3353 -0.1473
   46DOPE   H8X 5904   3.412   5.649   4.970  2.1661  0.3131  2.1056
   46DOPE   H8Y 5905   3.304   5.789   5.014 -0.1840  2.7884 -2.3087
   46DOPE   C39 5906   3.520   5.828   4.979 -0.6605 -0.6427 -0.2522
   46DOPE   H9X 5907   3.599   5.811   4.905 -0.2465 -1.0020  0.2672
   46DOPE  C310 5908   3.556   5.889   5.092 -0.4323 -0.1845 -0.3732
   46DOPE  H10X 5909   3.655   5.939   5.095 -1.3775  1.8710  3.8858
   46DOPE  C311 5910   3.467   5.920   5.215 -0.2549 -0.7659 -0.0663
   46DOPE  H11X 5911   3.402   6.005   5.185  1.0706  0.6252  0.8909
   46DOPE  H11Y 5912   3.409   5.830   5.246 -1.9070  0.1086 -0.5232
   46DOPE  C312 5913   3.553   5.954   5.332  0.6154 -0.0538  0.1393
   46DOPE  H12X 5914   3.489   5.984   5.418  1.9797  0.1797  1.0955
   46DOPE  H12Y 5915   3.621   6.039   5.309 -0.9323  0.3156 -3.7755
   46DOPE  C313 5916   3.649   5.846   5.379 -0.0340 -0.4886 -0.2687
   46DOPE  H13X 5917   3.603   5.765   5.440  0.9576 -2.0075 -1.4415
   46DOPE  H13Y 5918   3.697   5.796   5.292  1.5046  2.1497 -1.0504
   46DOPE  C314 5919   3.761   5.902   5.469  0.3166 -0.0588  0.4237
   46DOPE  H14X 5920   3.832   5.967   5.413  1.7234 -0.5151  1.5971
   46DOPE  H14Y 5921   3.819   5.811   5.494  0.1123 -0.8746 -1.8386
   46DOPE  C315 5922   3.700   5.965   5.599 -0.6125  0.2008 -0.6390
   46DOPE  H15X 5923   3.643   5.893   5.661 -0.6540  0.5188 -0.3049
   46DOPE  H15Y 5924   3.632   6.047   5.566  0.9876  0.7986 -2.7248
   46DOPE  C316 5925   3.814   6.018   5.693 -0.1351 -0.7988 -0.5339
   46DOPE  H16X 5926   3.882   6.086   5.637  0.0155 -1.1537 -0.7872
   46DOPE  H16Y 5927   3.877   5.931   5.721  0.1325 -0.6276 -0.6057
   46DOPE  C317 5928   3.768   6.065   5.829  0.1267 -0.1518  0.2671
   46DOPE  H17X 5929   3.698   6.151   5.814  0.2846 -0.2708 -1.2901
   46DOPE  H17Y 5930   3.713   5.990   5.889  0.8512 -0.5322  0.4744
   46DOPE  C318 5931   3.885   6.102   5.914  0.4499 -0.0941 -0.1402
   46DOPE  H18X 5932   3.947   6.171   5.853  0.5847  0.6716  0.8511
   46DOPE  H18Y 5933   3.850   6.144   6.011 -0.8927  0.1111 -0.6925
   46DOPE  H18Z 5934   3.945   6.010   5.934 -2.0427 -1.7989 -0.0635
   47DOPE     N 5935   1.362   4.789   3.512 -0.8718 -0.1901  0.4972
   47DOPE   HN1 5936   1.461   4.807   3.541 -0.8814 -0.0581  0.4470
   47DOPE   HN2 5937   1.323   4.711   3.569  0.8929 -2.3027 -1.0279
   47DOPE   HN3 5938   1.361   4.763   3.412 -0.1424  2.3027 -0.2355
   47DOPE   C12 5939   1.273   4.904   3.551 -0.3870 -0.3498  0.0193
   47DOPE  H12A 5940   1.256   4.988   3.480  1.0319  1.1526  1.3681
   47DOPE  H12B 5941   1.325   4.950   3.637 -0.2312 -0.0536 -0.2330
   47DOPE   C11 5942   1.132   4.870   3.593 -0.1240 -0.5435  0.2641
   47DOPE  H11A 5943   1.078   4.804   3.522 -0.2185  1.1851 -1.3596
   47DOPE  H11B 5944   1.077   4.966   3.598 -1.7169 -1.2039 -2.4675
   47DOPE     P 5945   1.130   4.665   3.770 -0.4240  0.3983 -0.4003
   47DOPE   O13 5946   1.211   4.588   3.672 -0.8099 -0.3667 -0.1171
   47DOPE   O14 5947   0.991   4.617   3.794 -0.7473  0.6019  0.5517
   47DOPE   O11 5948   1.205   4.666   3.914  0.2677  0.7927  0.1135
   47DOPE   O12 5949   1.150   4.814   3.724  0.4725  0.2270  0.4696
   47DOPE    C1 5950   1.342   4.696   3.918 -0.2300  0.3607  0.3879
   47DOPE    HA 5951   1.358   4.798   3.877 -2.2380  0.0373 -1.3426
   47DOPE    HB 5952   1.407   4.614   3.881 -0.3277 -0.5460  2.1116
   47DOPE    C2 5953   1.380   4.696   4.069 -0.3647 -0.0101  0.3947
   47DOPE    HS 5954   1.397   4.593   4.106  2.1477  0.1773 -0.0930
   47DOPE   O21 5955   1.284   4.768   4.156 -0.2582  0.5262 -0.0470
   47DOPE   C21 5956   1.216   4.680   4.237 -0.1307 -0.2947 -1.2004
   47DOPE   O22 5957   1.221   4.561   4.228 -0.3174  0.5789 -0.4786
   47DOPE   C22 5958   1.118   4.768   4.326  0.2639 -0.0859 -0.3631
   47DOPE   H2R 5959   1.027   4.775   4.262  0.8400 -2.2748 -1.5285
   47DOPE   H2S 5960   1.162   4.869   4.336  0.8622 -0.0034 -3.1186
   47DOPE    C3 5961   1.533   4.747   4.085 -1.0360  0.1280  0.0315
   47DOPE    HX 5962   1.543   4.842   4.029  2.0209  0.4000  0.8752
   47DOPE    HY 5963   1.602   4.673   4.040 -0.6551  0.0325  0.7577
   47DOPE   O31 5964   1.580   4.766   4.224  0.5634 -0.3117  0.1145
   47DOPE   C31 5965   1.549   4.881   4.282 -0.3215  0.1559 -0.5489
   47DOPE   O32 5966   1.472   4.965   4.240 -0.1606 -0.0242  0.2462
   47DOPE   C32 5967   1.609   4.889   4.423 -0.0834  0.7808 -0.1434
   47DOPE   H2X 5968   1.680   4.804   4.432  0.1327  1.0294  0.4910
   47DOPE   H2Y 5969   1.668   4.982   4.434  3.6035 -1.4637  0.7255
   47DOPE   C23 5970   1.080   4.698   4.455 -0.4704 -0.1733 -0.3068
   47DOPE   H3R 5971   1.171   4.699   4.518 -1.2628  1.1206  0.8899
   47DOPE   H3S 5972   1.036   4.597   4.439 -0.7710 -0.0451 -0.2901
   47DOPE   C24 5973   0.977   4.772   4.542  0.4066  0.1144 -0.0035
   47DOPE   H4R 5974   0.944   4.712   4.629  0.1117 -0.1464 -0.2927
   47DOPE   H4S 5975   0.890   4.776   4.473  1.6321  0.5181 -1.5906
   47DOPE   C25 5976   1.013   4.917   4.578 -0.1727 -0.1547  0.3889
   47DOPE   H5R 5977   1.034   4.979   4.488 -1.0606 -2.0898 -1.2124
   47DOPE   H5S 5978   1.109   4.912   4.633 -0.7620 -0.1074  1.4455
   47DOPE   C26 5979   0.897   4.991   4.651  0.4504  0.0713  0.0868
   47DOPE   H6R 5980   0.799   4.993   4.600 -1.1101  1.3594  2.8945
   47DOPE   H6S 5981   0.930   5.097   4.661  0.6846  0.6119 -4.4469
   47DOPE   C27 5982   0.864   4.932   4.786  0.5249 -0.4470  0.1095
   47DOPE   H7R 5983   0.964   4.911   4.830  0.9365  1.5032  0.1812
   47DOPE   H7S 5984   0.817   4.832   4.772 -0.0902 -0.1454  0.0035
   47DOPE   C28 5985   0.780   5.029   4.870 -0.3592 -0.2275  0.2276
   47DOPE   H8R 5986   0.817   5.132   4.854  0.7656 -0.6547 -0.0357
   47DOPE   H8S 5987   0.800   5.013   4.978  1.4006  1.9567  0.3001
   47DOPE   C29 5988   0.631   5.015   4.839 -0.0964 -0.1898  0.1702
   47DOPE   H9R 5989   0.593   4.982   4.741  1.3061 -0.6049 -0.2510
   47DOPE  C210 5990   0.529   5.032   4.928  0.8737  0.2165 -0.4824
   47DOPE  H10R 5991   0.426   5.031   4.890  0.5180  0.3735  0.4381
   47DOPE  C211 5992   0.551   5.060   5.075  0.0821  0.0951 -0.2695
   47DOPE  H11R 5993   0.497   5.151   5.107 -2.4135 -1.4890  0.2809
   47DOPE  H11S 5994   0.659   5.081   5.094  0.7142 -1.3608 -1.9409
   47DOPE  C212 5995   0.501   4.943   5.158  0.6717  0.1131  0.3915
   47DOPE  H12R 5996   0.569   4.858   5.135  1.4916  1.1217 -1.1055
   47DOPE  H12S 5997   0.403   4.909   5.120  1.0221 -0.1550 -0.2953
   47DOPE  C213 5998   0.508   4.971   5.312  0.7541 -0.2639 -0.0966
   47DOPE  H13R 5999   0.603   5.027   5.329 -0.0400  0.6526  1.5900
   47DOPE  H13S 6000   0.506   4.875   5.368 -1.8412  0.9494  2.1004
   47DOPE  C214 6001   0.383   5.040   5.367 -0.2162 -0.4046 -0.4053
   47DOPE  H14R 6002   0.306   4.963   5.344  0.5409 -0.8949 -1.3453
   47DOPE  H14S 6003   0.363   5.132   5.307  1.5786 -1.1474 -2.2648
   47DOPE  C215 6004   0.395   5.076   5.523  0.1034 -0.4256 -0.4212
   47DOPE  H15R 6005   0.319   5.152   5.549  1.9015  2.0028 -1.8625
   47DOPE  H15S 6006   0.492   5.125   5.544  0.6534 -1.2544 -0.9617
   47DOPE  C216 6007   0.388   4.953   5.614  0.0866  0.5005  0.2917
   47DOPE  H16R 6008   0.460   4.877   5.574  0.9974  0.4729  1.8603
   47DOPE  H16S 6009   0.284   4.914   5.609  0.3521 -0.3294  0.9626
   47DOPE  C217 6010   0.434   4.983   5.758 -0.3204  0.4885  0.0870
   47DOPE  H17R 6011   0.377   5.073   5.788 -2.0742 -0.8317  0.8271
   47DOPE  H17S 6012   0.543   5.000   5.745 -0.3360 -0.3865 -1.3819
   47DOPE  C218 6013   0.416   4.876   5.864 -0.0137 -0.5711 -0.7483
   47DOPE  H18R 6014   0.464   4.782   5.827  0.0206 -0.5129 -0.8511
   47DOPE  H18S 6015   0.309   4.855   5.886 -0.1630  2.1882  1.7549
   47DOPE  H18T 6016   0.460   4.913   5.959 -1.6694  1.3348 -0.6719
   47DOPE   C33 6017   1.492   4.887   4.523  0.0762 -0.6153  0.5448
   47DOPE   H3X 6018   1.433   4.796   4.498 -0.9954  0.4885 -1.1486
   47DOPE   H3Y 6019   1.418   4.969   4.505 -1.3553 -2.0745 -0.5254
   47DOPE   C34 6020   1.534   4.889   4.671 -0.3501 -0.4361  0.1980
   47DOPE   H4X 6021   1.579   4.792   4.702  0.1575  0.1521  1.3791
   47DOPE   H4Y 6022   1.604   4.973   4.692  1.3166 -1.1704 -2.0506
   47DOPE   C35 6023   1.414   4.910   4.769 -0.3488 -0.4080 -0.1829
   47DOPE   H5X 6024   1.341   4.827   4.761 -0.2568 -0.6017  0.9261
   47DOPE   H5Y 6025   1.357   5.003   4.752  1.5094  0.8944  0.3777
   47DOPE   C36 6026   1.466   4.907   4.912  0.3685  0.2277 -0.4545
   47DOPE   H6X 6027   1.549   4.980   4.917  0.4854  0.0381  0.5354
   47DOPE   H6Y 6028   1.523   4.813   4.928 -0.5510 -0.6027 -1.7661
   47DOPE   C37 6029   1.352   4.914   5.017  0.1148 -0.1956 -0.3531
   47DOPE   H7X 6030   1.298   5.011   5.010  0.6439  0.2245  1.0805
   47DOPE   H7Y 6031   1.274   4.837   4.997  0.0584 -0.2697  0.1391
   47DOPE   C38 6032   1.414   4.894   5.155  0.4568  0.0313  0.9368
   47DOPE   H8X 6033   1.491   4.972   5.176  0.2049  0.4971  0.1806
   47DOPE   H8Y 6034   1.468   4.798   5.163  0.5426 -0.2424 -1.9511
   47DOPE   C39 6035   1.305   4.895   5.259 -0.7795  0.4198 -0.4479
   47DOPE   H9X 6036   1.215   4.951   5.230 -2.0219 -1.1627  0.2119
   47DOPE  C310 6037   1.314   4.847   5.389  0.4883 -0.2037  0.4027
   47DOPE  H10X 6038   1.223   4.862   5.448  0.3643 -0.2052  0.2135
   47DOPE  C311 6039   1.430   4.773   5.459 -0.4450  0.0823 -0.0473
   47DOPE  H11X 6040   1.384   4.703   5.531  1.8539  0.0001  1.4351
   47DOPE  H11Y 6041   1.485   4.717   5.382 -0.6718 -1.6996  1.0388
   47DOPE  C312 6042   1.527   4.873   5.525  0.3332  0.1490  0.8143
   47DOPE  H12X 6043   1.566   4.946   5.451 -2.0065  0.1082 -0.5780
   47DOPE  H12Y 6044   1.618   4.819   5.558  0.6128  0.6083  0.8080
   47DOPE  C313 6045   1.457   4.932   5.648 -0.3579 -0.1819  0.2107
   47DOPE  H13X 6046   1.508   5.027   5.676  2.6381 -1.2153 -1.2883
   47DOPE  H13Y 6047   1.350   4.953   5.627  0.0896  0.7439 -1.3087
   47DOPE  C314 6048   1.461   4.839   5.776  0.4470  0.5032  0.5340
   47DOPE  H14X 6049   1.559   4.786   5.779 -0.7300 -1.8140  0.3601
   47DOPE  H14Y 6050   1.387   4.758   5.759 -1.3326  1.9826  0.9928
   47DOPE  C315 6051   1.426   4.899   5.905 -0.3781  0.0093 -0.5737
   47DOPE  H15X 6052   1.519   4.954   5.933 -0.2649 -0.7032  0.4874
   47DOPE  H15Y 6053   1.413   4.809   5.968  0.2249  0.5570  0.3560
   47DOPE  C316 6054   1.300   4.986   5.922  0.5646 -0.1823  0.6527
   47DOPE  H16X 6055   1.212   4.943   5.869  1.4883 -0.0600 -1.0856
   47DOPE  H16Y 6056   1.324   5.087   5.883 -0.0767 -0.6731 -1.1481
   47DOPE  C317 6057   1.260   4.995   6.070  0.7216 -0.4665  0.0825
   47DOPE  H17X 6058   1.159   5.043   6.076  0.7015 -0.2530 -1.5381
   47DOPE  H17Y 6059   1.249   4.892   6.112 -2.9053  0.6510  2.3561
   47DOPE  C318 6060   1.358   5.074   6.158 -0.3259  0.2483 -0.9680
   47DOPE  H18X 6061   1.322   5.071   6.263  1.3219 -2.8008 -0.3621
   47DOPE  H18Y 6062   1.461   5.034   6.142  0.2364  2.0871 -2.3566
   47DOPE  H18Z 6063   1.360   5.176   6.113 -0.4288  0.5287 -0.3408
   48DOPE     N 6064   5.789   1.611   3.942  0.4658 -0.2169  0.7123
   48DOPE   HN1 6065   5.738   1.597   3.852  0.4982  1.6717  0.3681
   48DOPE   HN2 6066   5.805   1.515   3.981  0.8862 -0.8387 -0.9339
   48DOPE   HN3 6067   5.735   1.675   4.004  2.0602  1.9396 -0.0141
   48DOPE   C12 6068   5.909   1.691   3.920 -0.8711  0.0525 -0.0607
   48DOPE  H12A 6069   5.867   1.793   3.904 -0.2589  0.5680  1.3551
   48DOPE  H12B 6070   5.977   1.647   3.844  0.3124 -0.2492  1.1313
   48DOPE   C11 6071   5.999   1.691   4.041  0.0668  1.0984 -0.3666
   48DOPE  H11A 6072   5.957   1.720   4.140  1.4781 -1.2394  0.9991
   48DOPE  H11B 6073   6.079   1.766   4.021  0.5137  0.6805 -0.1758
   48DOPE     P 6074   6.205   1.517   4.074  0.4309 -0.0447 -0.0944
   48DOPE   O13 6075   6.285   1.640   4.105  0.4006 -0.5709  0.1402
   48DOPE   O14 6076   6.236   1.431   3.953 -0.4723 -0.2898 -0.7703
   48DOPE   O11 6077   6.211   1.420   4.195  0.4484  0.0202 -0.8097
   48DOPE   O12 6078   6.048   1.558   4.063  0.5307 -0.0803  0.4035
   48DOPE    C1 6079   6.089   1.389   4.271  0.1022 -0.2849  0.2510
   48DOPE    HA 6080   6.095   1.304   4.342 -4.5101 -1.1451 -0.0438
   48DOPE    HB 6081   6.005   1.364   4.203  0.5060  1.1667 -0.8381
   48DOPE    C2 6082   6.045   1.507   4.365 -0.6730 -0.3874  0.5646
   48DOPE    HS 6083   5.996   1.582   4.299 -0.1609  1.4934  2.2386
   48DOPE   O21 6084   6.165   1.561   4.425 -0.2980 -0.0998  0.1426
   48DOPE   C21 6085   6.181   1.689   4.435 -0.3554 -0.0017 -0.7056
   48DOPE   O22 6086   6.102   1.779   4.405 -0.2014  0.3685 -0.2335
   48DOPE   C22 6087   6.319   1.715   4.512  0.0505 -0.0650  0.1744
   48DOPE   H2R 6088   6.394   1.740   4.434  0.1651 -1.6520 -0.2653
   48DOPE   H2S 6089   6.361   1.615   4.537  0.4881 -0.1348 -0.7852
   48DOPE    C3 6090   5.940   1.454   4.469 -0.3086 -0.2692  0.6762
   48DOPE    HX 6091   5.993   1.377   4.530 -0.3803 -0.2602  0.7505
   48DOPE    HY 6092   5.860   1.398   4.417  1.9807 -2.5178 -0.6106
   48DOPE   O31 6093   5.906   1.566   4.553  0.5611 -0.1291 -0.0120
   48DOPE   C31 6094   5.792   1.629   4.518 -0.1651  0.1378 -0.3976
   48DOPE   O32 6095   5.725   1.611   4.419 -0.6928  0.1520 -0.0682
   48DOPE   C32 6096   5.767   1.737   4.622  0.1594 -0.2745  0.6083
   48DOPE   H2X 6097   5.859   1.799   4.627 -1.0619  1.6662  0.1573
   48DOPE   H2Y 6098   5.693   1.803   4.572  0.3690 -0.1531  0.4578
   48DOPE   C23 6099   6.309   1.812   4.628  0.8039 -0.2610  0.3433
   48DOPE   H3R 6100   6.228   1.887   4.614  1.0005 -0.1687 -0.3309
   48DOPE   H3S 6101   6.408   1.864   4.633  0.2244  1.1712 -1.7571
   48DOPE   C24 6102   6.279   1.749   4.762  0.2106 -0.0462  0.2928
   48DOPE   H4R 6103   6.308   1.828   4.834 -1.9795  1.5050 -0.4143
   48DOPE   H4S 6104   6.353   1.669   4.784 -0.1441 -0.3237  0.4667
   48DOPE   C25 6105   6.140   1.692   4.761 -0.0715 -0.2112  0.4884
   48DOPE   H5R 6106   6.138   1.620   4.677  1.0163  2.4687 -2.0172
   48DOPE   H5S 6107   6.073   1.777   4.733 -0.9914 -1.2818 -0.7034
   48DOPE   C26 6108   6.087   1.634   4.896 -0.1169  0.3519  0.1544
   48DOPE   H6R 6109   6.143   1.544   4.928 -1.3608 -0.5392 -0.0981
   48DOPE   H6S 6110   5.985   1.595   4.874  0.7132 -1.3791 -0.7589
   48DOPE   C27 6111   6.077   1.739   5.008  0.1670 -0.1056  0.0186
   48DOPE   H7R 6112   6.011   1.820   4.969  1.9783  1.7545  0.6400
   48DOPE   H7S 6113   6.180   1.780   5.009 -0.1185  0.6695 -0.9474
   48DOPE   C28 6114   6.028   1.688   5.147 -0.0980  0.4657  0.2638
   48DOPE   H8R 6115   5.924   1.650   5.140  0.3824 -0.8526 -0.1879
   48DOPE   H8S 6116   6.008   1.782   5.202 -1.2913  0.1168  0.4593
   48DOPE   C29 6117   6.125   1.599   5.225  0.5079 -0.5388  0.4914
   48DOPE   H9R 6118   6.138   1.497   5.186 -0.9298 -0.1400 -1.1235
   48DOPE  C210 6119   6.214   1.641   5.319 -0.0645  0.5267  0.5885
   48DOPE  H10R 6120   6.305   1.585   5.344  0.4862  2.4611  3.5391
   48DOPE  C211 6121   6.194   1.766   5.403 -0.1502 -0.0702  0.2846
   48DOPE  H11R 6122   6.130   1.844   5.356  0.1295  0.9358  1.5139
   48DOPE  H11S 6123   6.292   1.817   5.414 -0.1566  0.3181 -1.2110
   48DOPE  C212 6124   6.130   1.748   5.543 -0.3396  0.1493  0.2668
   48DOPE  H12R 6125   6.031   1.698   5.535  0.0052 -0.6169  0.6904
   48DOPE  H12S 6126   6.124   1.841   5.604 -0.2454  0.2368  0.1406
   48DOPE  C213 6127   6.211   1.653   5.638  0.2295 -0.7556  0.5983
   48DOPE  H13R 6128   6.316   1.690   5.642 -0.1406  0.3032  4.1262
   48DOPE  H13S 6129   6.210   1.556   5.584  1.4763 -1.6842  2.1535
   48DOPE  C214 6130   6.156   1.647   5.780  0.0471  0.3020 -0.3339
   48DOPE  H14R 6131   6.049   1.619   5.788 -0.3232  2.0097  2.0291
   48DOPE  H14S 6132   6.165   1.748   5.826 -0.2956 -1.1859  3.3089
   48DOPE  C215 6133   6.248   1.557   5.864  0.2786 -0.1449 -0.0199
   48DOPE  H15R 6134   6.344   1.546   5.809  1.0280 -1.0812  1.4213
   48DOPE  H15S 6135   6.200   1.457   5.862 -1.7157  0.7590 -1.6994
   48DOPE  C216 6136   6.283   1.603   6.004  0.2547 -0.2922  0.1242
   48DOPE  H16R 6137   6.351   1.533   6.057 -0.3396  0.2570  1.6428
   48DOPE  H16S 6138   6.192   1.618   6.066 -0.3214  0.3067 -0.8443
   48DOPE  C217 6139   6.364   1.737   6.009  0.3912  0.1777 -0.2443
   48DOPE  H17R 6140   6.297   1.815   5.965 -0.6161 -0.0944  0.7711
   48DOPE  H17S 6141   6.455   1.726   5.945 -0.3710 -1.0890 -1.1593
   48DOPE  C218 6142   6.408   1.763   6.156 -0.0950 -0.5683  0.0971
   48DOPE  H18R 6143   6.319   1.763   6.222 -0.1502  1.7198  0.0775
   48DOPE  H18S 6144   6.451   1.864   6.168  1.3809 -0.9638 -1.4401
   48DOPE  H18T 6145   6.483   1.686   6.186  1.7236  0.0246 -2.6226
   48DOPE   C33 6146   5.715   1.678   4.752 -0.2390  0.4897 -0.5433
   48DOPE   H3X 6147   5.803   1.623   4.792 -1.4270 -1.8455 -0.9710
   48DOPE   H3Y 6148   5.637   1.601   4.733 -0.3108  0.8238 -1.6311
   48DOPE   C34 6149   5.674   1.775   4.859  0.4072 -0.9734 -0.1240
   48DOPE   H4X 6150   5.748   1.857   4.866 -0.6475  0.2538 -2.2653
   48DOPE   H4Y 6151   5.590   1.834   4.816  1.4749  1.3794  0.8312
   48DOPE   C35 6152   5.631   1.733   4.996  0.0339  0.4961 -0.4036
   48DOPE   H5X 6153   5.710   1.660   5.026 -1.7590 -1.2216  0.3764
   48DOPE   H5Y 6154   5.535   1.678   4.985  0.4943 -1.0924  2.6535
   48DOPE   C36 6155   5.633   1.829   5.114 -0.1610 -0.6230 -0.4215
   48DOPE   H6X 6156   5.554   1.907   5.108 -0.6836 -1.2317 -1.8599
   48DOPE   H6Y 6157   5.733   1.876   5.119 -0.4408 -0.1684  1.3405
   48DOPE   C37 6158   5.610   1.751   5.245 -0.2117 -0.1478  0.0907
   48DOPE   H7X 6159   5.513   1.697   5.239  0.2631 -1.1570  1.0183
   48DOPE   H7Y 6160   5.684   1.670   5.260 -0.6024 -0.5859 -0.3243
   48DOPE   C38 6161   5.608   1.843   5.368 -0.0324  0.0846  0.1178
   48DOPE   H8X 6162   5.544   1.794   5.445 -1.4826  2.9319  0.8473
   48DOPE   H8Y 6163   5.565   1.943   5.344  0.2218 -0.2195 -1.7275
   48DOPE   C39 6164   5.746   1.858   5.420 -0.3118  0.6478 -0.5384
   48DOPE   H9X 6165   5.801   1.764   5.431  1.3638  1.7729  1.2039
   48DOPE  C310 6166   5.815   1.970   5.451 -0.5980 -0.5185  0.3209
   48DOPE  H10X 6167   5.917   1.963   5.493 -0.9160 -0.6691  1.0946
   48DOPE  C311 6168   5.766   2.117   5.438  1.0255  0.5117  0.7954
   48DOPE  H11X 6169   5.659   2.106   5.411  1.4494 -1.0835 -0.4254
   48DOPE  H11Y 6170   5.762   2.173   5.533 -1.3608 -3.2036  3.1780
   48DOPE  C312 6171   5.815   2.197   5.318  0.1100 -0.2379 -0.0985
   48DOPE  H12X 6172   5.921   2.225   5.338 -0.1716  2.6245 -1.9997
   48DOPE  H12Y 6173   5.775   2.301   5.320  2.7152  0.8344  0.1029
   48DOPE  C313 6174   5.809   2.123   5.185  0.0093  0.3199  0.1362
   48DOPE  H13X 6175   5.863   2.026   5.177 -1.1973 -0.2598 -1.4929
   48DOPE  H13Y 6176   5.704   2.092   5.167 -0.1492 -0.0757  1.6473
   48DOPE  C314 6177   5.846   2.220   5.069 -0.1969  0.3882 -0.0830
   48DOPE  H14X 6178   5.957   2.228   5.078 -0.0460 -0.8240 -0.6953
   48DOPE  H14Y 6179   5.780   2.309   5.068 -0.2468  0.3516 -1.2038
   48DOPE  C315 6180   5.818   2.141   4.933  0.2549 -0.1529 -0.4416
   48DOPE  H15X 6181   5.710   2.113   4.933  0.0068  0.6743  1.3893
   48DOPE  H15Y 6182   5.865   2.040   4.934  1.5708  0.3511  3.3511
   48DOPE  C316 6183   5.861   2.225   4.812  0.5917  0.0651 -0.5257
   48DOPE  H16X 6184   5.960   2.265   4.843  1.1146 -0.2889 -1.6899
   48DOPE  H16Y 6185   5.794   2.312   4.794  1.1262  0.6659  0.3549
   48DOPE  C317 6186   5.881   2.139   4.683 -0.0642  0.0929 -0.1934
   48DOPE  H17X 6187   5.955   2.058   4.702 -0.7097 -0.8509 -1.5100
   48DOPE  H17Y 6188   5.787   2.085   4.660 -0.8263  0.3651  1.9930
   48DOPE  C318 6189   5.923   2.211   4.558  0.2853 -0.3875  0.3448
   48DOPE  H18X 6190   5.918   2.132   4.480 -1.1386 -2.2519  2.2540
   48DOPE  H18Y 6191   5.862   2.297   4.522  1.8471  0.9653  0.7812
   48DOPE  H18Z 6192   6.032   2.235   4.551  0.3593 -1.0617 -1.3270
   49DOPE     N 6193   1.630   5.676   3.759 -0.1267  0.0077 -0.0167
   49DOPE   HN1 6194   1.593   5.732   3.838 -0.7651  1.0930 -1.0518
   49DOPE   HN2 6195   1.731   5.699   3.757 -0.0708 -0.2225 -2.3500
   49DOPE   HN3 6196   1.602   5.694   3.661 -0.1289  0.6549  0.0998
   49DOPE   C12 6197   1.636   5.525   3.786 -0.1117 -0.2501 -0.8732
   49DOPE  H12A 6198   1.538   5.473   3.780 -0.8826  1.1622 -0.9274
   49DOPE  H12B 6199   1.683   5.515   3.886  0.9543  0.5695 -1.2614
   49DOPE   C11 6200   1.753   5.465   3.697 -0.1394  0.0034 -0.4244
   49DOPE  H11A 6201   1.717   5.463   3.592 -0.9066 -0.4424 -0.1619
   49DOPE  H11B 6202   1.771   5.359   3.724 -1.1027  0.1370  0.8208
   49DOPE     P 6203   1.975   5.541   3.596 -0.1107 -0.0050 -0.3899
   49DOPE   O13 6204   2.092   5.629   3.628 -0.1568 -0.0325  0.3717
   49DOPE   O14 6205   1.909   5.558   3.465 -0.2104  0.1530  0.1701
   49DOPE   O11 6206   2.014   5.390   3.607  0.3060  0.0870 -0.5952
   49DOPE   O12 6207   1.870   5.548   3.710  0.1007 -0.2332  0.1826
   49DOPE    C1 6208   2.115   5.332   3.684 -0.5137  0.5365  0.0354
   49DOPE    HA 6209   2.208   5.392   3.682  1.5084 -2.3510 -2.6682
   49DOPE    HB 6210   2.146   5.235   3.639 -1.6575 -0.4596  1.3103
   49DOPE    C2 6211   2.084   5.304   3.837 -0.3719 -0.7055 -0.2410
   49DOPE    HS 6212   1.994   5.239   3.836 -0.8965 -0.0240  1.0138
   49DOPE   O21 6213   2.073   5.430   3.900  0.0634 -0.4479 -0.1729
   49DOPE   C21 6214   1.977   5.436   3.997  0.1648  0.4454  0.3468
   49DOPE   O22 6215   1.906   5.339   4.029 -0.7695 -0.1705 -0.3834
   49DOPE   C22 6216   1.975   5.578   4.052  0.1047 -0.5167 -0.7188
   49DOPE   H2R 6217   1.912   5.641   3.986  0.9526 -0.3010 -1.3444
   49DOPE   H2S 6218   2.076   5.621   4.037 -0.4227  1.9642  1.9036
   49DOPE    C3 6219   2.199   5.216   3.905 -0.4973 -0.0718  0.8873
   49DOPE    HX 6220   2.299   5.257   3.880  0.3428 -2.2384  0.4702
   49DOPE    HY 6221   2.203   5.115   3.859  0.6181  0.8168 -1.0850
   49DOPE   O31 6222   2.186   5.205   4.044 -0.6800 -0.5774 -0.4589
   49DOPE   C31 6223   2.260   5.273   4.127 -0.6757 -0.3704 -0.8230
   49DOPE   O32 6224   2.329   5.370   4.102 -0.1920  0.1288  0.5035
   49DOPE   C32 6225   2.256   5.212   4.267 -0.1135 -0.0840 -0.8135
   49DOPE   H2X 6226   2.147   5.215   4.291 -0.4393  1.2681 -2.2701
   49DOPE   H2Y 6227   2.293   5.110   4.248 -2.2690 -1.2471  0.7396
   49DOPE   C23 6228   1.935   5.591   4.205  0.1541  0.1739  0.4480
   49DOPE   H3R 6229   1.834   5.544   4.209 -0.3980  0.9935 -1.8880
   49DOPE   H3S 6230   1.920   5.697   4.235 -3.4499 -0.7018  2.3164
   49DOPE   C24 6231   2.040   5.533   4.297 -1.0751 -0.4346 -0.4131
   49DOPE   H4R 6232   2.128   5.601   4.296 -0.2099 -1.5208 -2.1190
   49DOPE   H4S 6233   2.083   5.436   4.265  0.3503 -0.2247  0.7937
   49DOPE   C25 6234   1.991   5.512   4.439 -0.3132 -0.0278 -0.9580
   49DOPE   H5R 6235   1.936   5.603   4.473  0.1277 -0.9224  2.5627
   49DOPE   H5S 6236   2.087   5.503   4.493  0.1065  3.2471 -0.9324
   49DOPE   C26 6237   1.900   5.394   4.468 -0.1549  0.5427 -0.5474
   49DOPE   H6R 6238   1.937   5.302   4.416  1.1267  0.3657  0.6301
   49DOPE   H6S 6239   1.802   5.416   4.421 -0.6856  0.4172  0.4617
   49DOPE   C27 6240   1.888   5.365   4.619 -0.3254 -0.6769  0.1349
   49DOPE   H7R 6241   1.847   5.463   4.652  2.7071  0.3077  1.2665
   49DOPE   H7S 6242   1.984   5.370   4.675 -1.6107  1.9173  2.3963
   49DOPE   C28 6243   1.791   5.248   4.649 -0.3642 -0.1972 -0.0706
   49DOPE   H8R 6244   1.693   5.263   4.600 -0.8826 -0.6633  0.8007
   49DOPE   H8S 6245   1.775   5.251   4.759  1.4610 -0.1122  0.2371
   49DOPE   C29 6246   1.856   5.121   4.606 -0.2482 -0.1296 -0.3362
   49DOPE   H9R 6247   1.825   5.082   4.508  2.3768 -2.4249 -0.3601
   49DOPE  C210 6248   1.922   5.033   4.685 -0.1244 -0.6879 -0.4059
   49DOPE  H10R 6249   1.963   4.939   4.645  0.7704 -0.3838 -0.2141
   49DOPE  C211 6250   1.961   5.062   4.833 -0.8058  0.2499  0.0433
   49DOPE  H11R 6251   1.948   5.165   4.870 -2.2669  0.1450 -0.1308
   49DOPE  H11S 6252   2.070   5.042   4.844 -0.3698  1.1988 -2.0999
   49DOPE  C212 6253   1.900   4.953   4.922 -1.1437  0.5591  0.2535
   49DOPE  H12R 6254   1.936   4.859   4.875  0.1541  1.0760  0.1631
   49DOPE  H12S 6255   1.790   4.964   4.911 -1.0827  2.0779  0.9066
   49DOPE  C213 6256   1.955   4.975   5.066  0.0697 -0.4566  0.0132
   49DOPE  H13R 6257   1.947   5.086   5.069 -1.9242 -0.1315 -5.2083
   49DOPE  H13S 6258   2.060   4.940   5.058 -0.8743 -3.4051 -0.9693
   49DOPE  C214 6259   1.876   4.894   5.169  0.1186 -0.1490  0.5163
   49DOPE  H14R 6260   1.872   4.788   5.136 -0.9032  0.1353 -0.3022
   49DOPE  H14S 6261   1.774   4.936   5.176  0.6017  1.5648 -1.6574
   49DOPE  C215 6262   1.944   4.903   5.304  0.1561  0.3903 -1.1527
   49DOPE  H15R 6263   1.927   5.007   5.340 -0.9717 -0.2913  0.3880
   49DOPE  H15S 6264   2.052   4.885   5.285  0.2486 -2.0010  1.1621
   49DOPE  C216 6265   1.889   4.800   5.406  0.4702  0.1234  1.1513
   49DOPE  H16R 6266   1.906   4.703   5.354  0.5366  0.2718  0.8936
   49DOPE  H16S 6267   1.781   4.813   5.425  0.0303  0.1625 -1.1500
   49DOPE  C217 6268   1.959   4.796   5.536 -0.7430  0.1994 -0.0751
   49DOPE  H17R 6269   1.967   4.903   5.566 -0.1899  0.3295 -0.6736
   49DOPE  H17S 6270   2.064   4.769   5.513 -1.2595 -1.9151 -0.1156
   49DOPE  C218 6271   1.891   4.699   5.639 -0.2845 -0.7528 -0.5078
   49DOPE  H18R 6272   1.953   4.673   5.728 -0.0053  1.0457 -0.1362
   49DOPE  H18S 6273   1.872   4.599   5.596 -0.9408 -1.4358  1.2779
   49DOPE  H18T 6274   1.798   4.747   5.675  1.2629  2.6749 -0.6503
   49DOPE   C33 6275   2.339   5.267   4.375  1.0104 -0.4864  0.5691
   49DOPE   H3X 6276   2.334   5.378   4.374 -0.8842 -0.5387  0.3802
   49DOPE   H3Y 6277   2.445   5.237   4.362  0.6347 -1.5452 -0.2542
   49DOPE   C34 6278   2.299   5.206   4.512  0.4929  0.1286 -0.5824
   49DOPE   H4X 6279   2.188   5.206   4.525  0.5603  0.2265 -0.0053
   49DOPE   H4Y 6280   2.337   5.102   4.508  0.9512  0.0267  3.0718
   49DOPE   C35 6281   2.362   5.279   4.629  0.4593 -0.2882 -0.5470
   49DOPE   H5X 6282   2.348   5.388   4.617  1.2071  0.2480  2.6028
   49DOPE   H5Y 6283   2.472   5.266   4.618  0.6048  0.3747  0.0502
   49DOPE   C36 6284   2.304   5.239   4.765  0.1096 -0.2769  0.0190
   49DOPE   H6X 6285   2.304   5.128   4.768  0.6880 -0.2870 -0.1586
   49DOPE   H6Y 6286   2.203   5.277   4.789  0.0222 -0.3512 -0.2255
   49DOPE   C37 6287   2.395   5.274   4.888  0.1032 -0.3408 -0.2928
   49DOPE   H7X 6288   2.498   5.273   4.847 -0.1553  0.6214 -1.0038
   49DOPE   H7Y 6289   2.368   5.379   4.914 -2.2549 -0.4574 -2.0011
   49DOPE   C38 6290   2.372   5.178   5.007 -0.5522  0.6779  0.0318
   49DOPE   H8X 6291   2.453   5.201   5.079 -1.9278 -2.4150  2.8146
   49DOPE   H8Y 6292   2.382   5.076   4.964 -1.8220 -0.9676  3.3243
   49DOPE   C39 6293   2.231   5.197   5.066  0.0915  0.4428  0.2714
   49DOPE   H9X 6294   2.159   5.184   4.983  0.2306 -0.9412  0.3425
   49DOPE  C310 6295   2.200   5.193   5.195 -0.4494 -0.3737 -0.1317
   49DOPE  H10X 6296   2.091   5.185   5.214 -0.4925 -1.9995 -0.8861
   49DOPE  C311 6297   2.298   5.184   5.311  0.3567 -0.2080 -0.3172
   49DOPE  H11X 6298   2.404   5.183   5.278  1.2284  0.6252  2.1908
   49DOPE  H11Y 6299   2.283   5.282   5.362  0.2175 -1.7984  2.9657
   49DOPE  C312 6300   2.269   5.065   5.404 -0.2748 -0.0056  0.3777
   49DOPE  H12X 6301   2.287   4.980   5.334  0.6675  0.4710  0.0271
   49DOPE  H12Y 6302   2.163   5.063   5.438 -0.0807 -1.2072  0.9860
   49DOPE  C313 6303   2.363   5.066   5.526 -0.7417 -0.1767 -0.5728
   49DOPE  H13X 6304   2.470   5.047   5.503 -0.1771  1.9641  0.0372
   49DOPE  H13Y 6305   2.361   5.173   5.555  1.5299  0.1925 -1.5353
   49DOPE  C314 6306   2.328   4.969   5.636 -0.4750  0.5468  0.0592
   49DOPE  H14X 6307   2.364   4.869   5.606 -1.1938  0.4059 -0.3469
   49DOPE  H14Y 6308   2.217   4.964   5.631 -0.3670 -0.7506 -2.3550
   49DOPE  C315 6309   2.377   5.008   5.767 -0.1483 -0.0155 -0.2876
   49DOPE  H15X 6310   2.328   5.103   5.796  2.6676  1.1397  1.1568
   49DOPE  H15Y 6311   2.483   5.035   5.749 -0.5138  0.7179 -1.3699
   49DOPE  C316 6312   2.364   4.905   5.885 -0.2320 -0.0673 -0.3542
   49DOPE  H16X 6313   2.258   4.873   5.895  0.2503 -1.3796  0.8554
   49DOPE  H16Y 6314   2.407   4.948   5.978 -2.1695 -1.8837  1.4907
   49DOPE  C317 6315   2.444   4.770   5.866  0.0940 -0.2787  0.3532
   49DOPE  H17X 6316   2.413   4.716   5.774  0.8101  1.0515 -0.7118
   49DOPE  H17Y 6317   2.547   4.801   5.837  1.3778 -2.9296  1.7608
   49DOPE  C318 6318   2.432   4.666   5.982 -0.4590  0.0626  0.2941
   49DOPE  H18X 6319   2.332   4.684   6.026 -0.6856  0.1540 -0.2589
   49DOPE  H18Y 6320   2.433   4.565   5.935 -1.0541  0.3199 -0.2827
   49DOPE  H18Z 6321   2.508   4.681   6.062  0.8812 -0.9895 -0.7179
   50DOPE     N 6322   6.503   4.286   3.392 -0.4497 -0.3243  0.2994
   50DOPE   HN1 6323   6.465   4.305   3.297  2.1263 -0.5551 -0.8752
   50DOPE   HN2 6324   6.552   4.375   3.414  1.1522 -1.2399  0.5461
   50DOPE   HN3 6325   6.578   4.215   3.383 -0.0846  0.1011 -0.0431
   50DOPE   C12 6326   6.399   4.238   3.491  0.1594 -0.1563 -0.3828
   50DOPE  H12A 6327   6.404   4.127   3.488  1.9440 -0.0857 -1.9202
   50DOPE  H12B 6328   6.298   4.275   3.465 -0.1557 -0.6676  0.0812
   50DOPE   C11 6329   6.444   4.294   3.633  0.7152 -0.6916 -0.2877
   50DOPE  H11A 6330   6.388   4.226   3.702 -2.2766  0.3873 -1.5161
   50DOPE  H11B 6331   6.407   4.397   3.652 -2.3796 -1.8963  1.0115
   50DOPE     P 6332   6.665   4.324   3.785 -0.0605 -0.1947  0.0506
   50DOPE   O13 6333   6.749   4.436   3.744 -0.1368  0.2009 -0.1060
   50DOPE   O14 6334   6.745   4.216   3.845  0.3574 -0.5790  0.6922
   50DOPE   O11 6335   6.545   4.371   3.871 -0.0977  0.3257 -0.1825
   50DOPE   O12 6336   6.583   4.273   3.660 -0.4969 -0.4920  0.8778
   50DOPE    C1 6337   6.482   4.282   3.964  0.2890 -0.0271 -0.2965
   50DOPE    HA 6338   6.515   4.176   3.956 -0.1083 -0.0599 -1.7524
   50DOPE    HB 6339   6.373   4.272   3.941  0.1232 -0.4250  0.5968
   50DOPE    C2 6340   6.507   4.332   4.111  0.3020 -0.3155  0.1317
   50DOPE    HS 6341   6.458   4.256   4.175  0.7902 -0.9755 -0.2554
   50DOPE   O21 6342   6.448   4.459   4.149  0.0959 -0.5306  0.3677
   50DOPE   C21 6343   6.314   4.472   4.149  0.2758 -0.7997  0.7723
   50DOPE   O22 6344   6.239   4.386   4.102 -0.3479  0.5913 -0.3636
   50DOPE   C22 6345   6.270   4.611   4.186 -0.4374 -0.4176  0.1455
   50DOPE   H2R 6346   6.218   4.659   4.100  0.3934  1.5845  0.7046
   50DOPE   H2S 6347   6.356   4.679   4.202 -0.5801 -0.0708 -0.4990
   50DOPE    C3 6348   6.652   4.346   4.150  0.1744 -0.6905 -0.1375
   50DOPE    HX 6349   6.686   4.445   4.115 -0.4180 -1.1337 -2.0660
   50DOPE    HY 6350   6.718   4.272   4.100  0.3997  1.4856 -3.3584
   50DOPE   O31 6351   6.667   4.341   4.295 -0.0672  0.6623 -0.1419
   50DOPE   C31 6352   6.688   4.226   4.347 -0.4160 -0.2984 -0.5559
   50DOPE   O32 6353   6.676   4.115   4.300  0.0634  0.7407 -0.3413
   50DOPE   C32 6354   6.731   4.250   4.488 -0.8423  0.2965 -0.0415
   50DOPE   H2X 6355   6.805   4.333   4.488 -0.2421 -0.2129  0.6175
   50DOPE   H2Y 6356   6.652   4.294   4.553 -2.4295 -0.9313 -1.0792
   50DOPE   C23 6357   6.173   4.610   4.306  0.1226 -0.6375  0.4610
   50DOPE   H3R 6358   6.096   4.530   4.301  1.5068 -1.9754 -0.6584
   50DOPE   H3S 6359   6.127   4.711   4.301 -0.5045 -0.9239  0.2856
   50DOPE   C24 6360   6.254   4.609   4.438 -0.1570 -0.3592 -0.6075
   50DOPE   H4R 6361   6.317   4.700   4.440 -1.1681  0.5234 -3.6181
   50DOPE   H4S 6362   6.331   4.530   4.421 -1.0218 -1.1327 -1.0536
   50DOPE   C25 6363   6.172   4.597   4.563 -0.6371 -0.2066 -0.3100
   50DOPE   H5R 6364   6.111   4.505   4.555 -1.5880  0.4109 -0.3859
   50DOPE   H5S 6365   6.093   4.675   4.574 -2.5779 -1.7780 -2.2518
   50DOPE   C26 6366   6.267   4.592   4.688 -0.1639  0.2548  0.0586
   50DOPE   H6R 6367   6.291   4.700   4.699  0.6756  0.2652 -1.5929
   50DOPE   H6S 6368   6.353   4.525   4.665 -0.9185 -0.9675  0.7257
   50DOPE   C27 6369   6.190   4.531   4.806  0.1582  0.0660 -0.3183
   50DOPE   H7R 6370   6.163   4.426   4.785 -0.0165  0.2900 -1.2829
   50DOPE   H7S 6371   6.093   4.584   4.812  0.3290  0.6883 -2.2547
   50DOPE   C28 6372   6.273   4.532   4.940  0.1327  0.6575  0.8591
   50DOPE   H8R 6373   6.374   4.494   4.917 -0.6956 -1.7360  0.9386
   50DOPE   H8S 6374   6.230   4.457   5.009 -1.6626  1.1811  0.3872
   50DOPE   C29 6375   6.260   4.671   4.997 -0.2482  0.5885  0.1516
   50DOPE   H9R 6376   6.298   4.752   4.933  0.4511  0.9390  0.9859
   50DOPE  C210 6377   6.214   4.711   5.110  0.0020 -0.4791  0.0147
   50DOPE  H10R 6378   6.219   4.820   5.120 -1.1062 -0.1821 -2.0401
   50DOPE  C211 6379   6.157   4.635   5.223  0.1864  0.0002  0.1393
   50DOPE  H11R 6380   6.217   4.543   5.238  0.0443 -0.1158  0.0012
   50DOPE  H11S 6381   6.051   4.611   5.197  0.2569  1.4460 -1.7289
   50DOPE  C212 6382   6.154   4.716   5.360  0.0827  0.5753  0.3616
   50DOPE  H12R 6383   6.096   4.810   5.348 -0.5957  0.1248  0.0297
   50DOPE  H12S 6384   6.252   4.737   5.408 -0.3314  0.0676  1.4534
   50DOPE  C213 6385   6.079   4.626   5.460  0.8599  0.8686  0.2651
   50DOPE  H13R 6386   6.137   4.532   5.468 -1.2779 -0.3885  1.9003
   50DOPE  H13S 6387   5.982   4.597   5.413  0.2511 -0.5250  2.2568
   50DOPE  C214 6388   6.065   4.698   5.594 -1.1580  0.1862 -0.2876
   50DOPE  H14R 6389   5.993   4.781   5.575 -0.7856 -0.1801 -4.3050
   50DOPE  H14S 6390   6.166   4.731   5.626 -0.6716 -0.6450 -0.9095
   50DOPE  C215 6391   6.014   4.604   5.705 -0.4554  0.1158 -0.5365
   50DOPE  H15R 6392   6.076   4.515   5.728 -0.2907  0.3307 -0.1455
   50DOPE  H15S 6393   5.918   4.568   5.662 -0.0586 -0.4992 -0.9230
   50DOPE  C216 6394   5.988   4.682   5.838  0.5249  0.1598 -0.2867
   50DOPE  H16R 6395   5.952   4.787   5.829  3.2651  1.3619  1.6093
   50DOPE  H16S 6396   6.081   4.710   5.891  0.6308 -0.4539 -0.1436
   50DOPE  C217 6397   5.884   4.602   5.929  0.7002  0.9147 -0.3387
   50DOPE  H17R 6398   5.940   4.519   5.978 -1.1877  1.2149  2.5173
   50DOPE  H17S 6399   5.797   4.556   5.877  0.5942 -1.0626  1.4261
   50DOPE  C218 6400   5.837   4.690   6.050 -0.2367 -0.3749 -0.4102
   50DOPE  H18R 6401   5.921   4.736   6.106 -0.6444 -0.3528  0.1892
   50DOPE  H18S 6402   5.770   4.643   6.125  0.7537  0.0846  0.7744
   50DOPE  H18T 6403   5.772   4.770   6.008 -0.2868  1.1236  2.3014
   50DOPE   C33 6404   6.776   4.123   4.563 -0.3321  0.3724  0.1108
   50DOPE   H3X 6405   6.877   4.104   4.523  0.1630  2.5913  0.1697
   50DOPE   H3Y 6406   6.703   4.041   4.548 -0.6338  0.9009 -1.5680
   50DOPE   C34 6407   6.790   4.143   4.714 -0.0593 -0.0140 -0.5155
   50DOPE   H4X 6408   6.858   4.230   4.727 -1.2457  0.7554  0.9403
   50DOPE   H4Y 6409   6.692   4.175   4.757 -0.1396 -0.4526 -0.3589
   50DOPE   C35 6410   6.844   4.026   4.788  0.1951 -0.4260  0.5234
   50DOPE   H5X 6411   6.939   3.996   4.739  0.6771  1.1417  0.4490
   50DOPE   H5Y 6412   6.777   3.938   4.782 -0.9080  0.3209  1.2360
   50DOPE   C36 6413   6.875   4.042   4.938 -0.0463 -0.6153  0.5573
   50DOPE   H6X 6414   6.955   4.119   4.949  0.9188 -1.5508  0.2108
   50DOPE   H6Y 6415   6.904   3.939   4.969  2.6347 -0.3493 -0.8377
   50DOPE   C37 6416   6.757   4.072   5.031 -0.2175  0.1531  0.6443
   50DOPE   H7X 6417   6.701   4.162   4.997  2.0085  1.4233  0.1299
   50DOPE   H7Y 6418   6.691   3.983   5.038 -0.8287  0.6756  1.8784
   50DOPE   C38 6419   6.801   4.093   5.179  0.3520  0.3619 -0.3878
   50DOPE   H8X 6420   6.710   4.114   5.241  0.7146  1.0626 -0.0709
   50DOPE   H8Y 6421   6.859   4.188   5.178 -0.3413  0.7977 -1.3117
   50DOPE   C39 6422   6.887   3.984   5.232 -0.1528 -0.0782 -0.6685
   50DOPE   H9X 6423   6.973   3.953   5.171  0.9399 -0.5029  1.0387
   50DOPE  C310 6424   6.875   3.917   5.347 -0.5453 -0.1301 -0.1779
   50DOPE  H10X 6425   6.958   3.848   5.370 -1.5281 -0.6837  1.9632
   50DOPE  C311 6426   6.768   3.941   5.451 -0.8765  0.0025  0.1815
   50DOPE  H11X 6427   6.814   3.997   5.535 -0.6525  3.2130 -1.9404
   50DOPE  H11Y 6428   6.692   4.011   5.412  1.8931  3.0451 -0.2110
   50DOPE  C312 6429   6.706   3.816   5.508 -0.5296  0.1056 -0.1892
   50DOPE  H12X 6430   6.654   3.766   5.423  0.6392  1.1871 -1.5984
   50DOPE  H12Y 6431   6.631   3.842   5.585  0.1788 -1.0798  0.9412
   50DOPE  C313 6432   6.807   3.723   5.579 -0.1226  0.4199  0.2660
   50DOPE  H13X 6433   6.856   3.656   5.506 -0.3385 -1.2556  1.6003
   50DOPE  H13Y 6434   6.877   3.774   5.649  0.4006 -2.6440  2.1696
   50DOPE  C314 6435   6.734   3.621   5.669 -0.1921  0.8519  0.0795
   50DOPE  H14X 6436   6.656   3.680   5.722 -1.2744 -2.2968  2.2553
   50DOPE  H14Y 6437   6.809   3.594   5.747  1.3630 -0.2943 -1.7323
   50DOPE  C315 6438   6.663   3.513   5.595  0.7105  0.7674  0.0959
   50DOPE  H15X 6439   6.735   3.459   5.530  0.1802  0.8749 -0.5871
   50DOPE  H15Y 6440   6.576   3.545   5.535 -1.3953 -1.0472  2.0012
   50DOPE  C316 6441   6.583   3.428   5.690  0.2625 -0.8922  0.3095
   50DOPE  H16X 6442   6.526   3.355   5.628 -1.9241 -0.0604  1.2077
   50DOPE  H16Y 6443   6.510   3.497   5.739 -0.1222 -2.4516  2.0862
   50DOPE  C317 6444   6.670   3.354   5.800  0.1371 -0.0874  0.4216
   50DOPE  H17X 6445   6.749   3.297   5.748 -0.3290 -0.6535  0.3203
   50DOPE  H17Y 6446   6.719   3.434   5.859  0.7688 -0.2821  0.1673
   50DOPE  C318 6447   6.586   3.263   5.897  0.4405  0.0318 -0.5654
   50DOPE  H18X 6448   6.657   3.211   5.966 -1.6614 -0.2811  1.5027
   50DOPE  H18Y 6449   6.517   3.320   5.963  0.8574  2.7856 -2.3670
   50DOPE  H18Z 6450   6.528   3.180   5.851 -2.8315  0.6540  2.0472
   51DOPE     N 6451   3.642   5.977   3.800 -0.3272  0.3657  0.3783
   51DOPE   HN1 6452   3.545   6.010   3.782 -0.6881 -0.6101  0.4742
   51DOPE   HN2 6453   3.706   6.040   3.748 -1.1103 -0.4173 -1.6139
   51DOPE   HN3 6454   3.646   5.881   3.761 -2.1400  0.1289  0.7039
   51DOPE   C12 6455   3.659   5.997   3.948  0.2511  0.7394  0.8580
   51DOPE  H12A 6456   3.764   5.985   3.981 -0.0439 -2.0343  1.0571
   51DOPE  H12B 6457   3.607   5.910   3.995  0.2789  0.0141 -0.4098
   51DOPE   C11 6458   3.600   6.129   3.994 -0.0110 -1.1978 -0.1942
   51DOPE  H11A 6459   3.672   6.198   3.945  0.2323 -2.7123 -2.1351
   51DOPE  H11B 6460   3.618   6.136   4.103  1.2434  1.8641 -0.4789
   51DOPE     P 6461   3.344   6.105   4.023  0.0015  0.0245  0.0605
   51DOPE   O13 6462   3.244   6.057   3.923 -0.2790  0.1317  0.2575
   51DOPE   O14 6463   3.303   6.220   4.104  0.3700 -0.3365 -0.4496
   51DOPE   O11 6464   3.399   5.990   4.118 -0.0335  0.0888  0.2479
   51DOPE   O12 6465   3.469   6.156   3.946 -0.4563 -0.1024  0.6025
   51DOPE    C1 6466   3.304   5.902   4.181  0.7581  0.2695  0.2333
   51DOPE    HA 6467   3.361   5.812   4.212  2.4989  1.2949  0.1499
   51DOPE    HB 6468   3.226   5.870   4.110  0.5419  0.5565  0.3415
   51DOPE    C2 6469   3.231   5.971   4.295 -0.1285 -1.1038 -0.1600
   51DOPE    HS 6470   3.169   6.053   4.253  0.7332  0.3460  1.2430
   51DOPE   O21 6471   3.342   6.022   4.378  0.3571  0.4765 -0.2888
   51DOPE   C21 6472   3.318   6.126   4.451 -0.1373 -0.4018 -0.3436
   51DOPE   O22 6473   3.207   6.176   4.472 -0.1707 -0.1383  0.0148
   51DOPE   C22 6474   3.454   6.179   4.498  0.3263 -0.8244 -0.5574
   51DOPE   H2R 6475   3.450   6.289   4.515  3.1837 -0.7990  0.4443
   51DOPE   H2S 6476   3.527   6.164   4.415  2.4438  0.7008  0.9216
   51DOPE    C3 6477   3.132   5.871   4.371  0.2867  0.0300 -0.5618
   51DOPE    HX 6478   3.187   5.778   4.396  0.8836  1.2244  3.0664
   51DOPE    HY 6479   3.056   5.836   4.297 -0.1275 -1.5723  0.5685
   51DOPE   O31 6480   3.086   5.922   4.503 -0.2297 -0.5142 -0.2303
   51DOPE   C31 6481   2.972   5.990   4.482 -0.1977  0.2464 -1.4628
   51DOPE   O32 6482   2.924   6.013   4.374  0.4995  0.2684  0.5421
   51DOPE   C32 6483   2.929   6.040   4.627  0.1465  0.0538  0.9927
   51DOPE   H2X 6484   2.919   6.150   4.609 -0.0549 -0.1609 -0.3062
   51DOPE   H2Y 6485   2.836   5.986   4.651  0.1394 -0.2981  0.1841
   51DOPE   C23 6486   3.514   6.115   4.626 -0.4189 -0.0173 -0.4667
   51DOPE   H3R 6487   3.623   6.137   4.626 -0.5461  0.8592 -2.3535
   51DOPE   H3S 6488   3.504   6.005   4.614  1.4741 -0.4531  1.4572
   51DOPE   C24 6489   3.444   6.177   4.749 -0.5071 -0.0933  0.7217
   51DOPE   H4R 6490   3.457   6.108   4.836  0.8713  2.2950  2.5271
   51DOPE   H4S 6491   3.335   6.191   4.735 -0.3435 -0.1487 -0.7271
   51DOPE   C25 6492   3.508   6.315   4.793 -0.2177  0.7009  0.6830
   51DOPE   H5R 6493   3.471   6.384   4.713  0.2974  0.7301  0.4619
   51DOPE   H5S 6494   3.619   6.306   4.783 -0.2851 -0.9259  1.1964
   51DOPE   C26 6495   3.450   6.344   4.930 -0.4861  0.5729 -0.3578
   51DOPE   H6R 6496   3.516   6.423   4.972  0.0222 -0.9040  1.7945
   51DOPE   H6S 6497   3.456   6.259   5.002 -0.7404  0.5289 -0.3854
   51DOPE   C27 6498   3.296   6.389   4.926  0.1327  0.7217  0.6116
   51DOPE   H7R 6499   3.238   6.297   4.948  1.1287  0.5237  2.6624
   51DOPE   H7S 6500   3.272   6.425   4.823 -1.0443  1.3471  1.0792
   51DOPE   C28 6501   3.255   6.500   5.019  0.5067 -0.8437  0.0837
   51DOPE   H8R 6502   3.266   6.463   5.123  1.7849 -0.8558 -0.0360
   51DOPE   H8S 6503   3.146   6.523   5.012  0.2617 -1.9819  0.0015
   51DOPE   C29 6504   3.345   6.616   4.977 -0.0629 -0.7605 -0.5398
   51DOPE   H9R 6505   3.372   6.606   4.871 -2.3434 -1.4537 -1.1072
   51DOPE  C210 6506   3.374   6.726   5.051 -0.3530  0.0930 -0.1749
   51DOPE  H10R 6507   3.436   6.803   5.002  2.1637 -1.1173  0.9278
   51DOPE  C211 6508   3.319   6.763   5.187  0.7491  0.9129  0.2614
   51DOPE  H11R 6509   3.235   6.695   5.214  0.5540  1.3488  0.7526
   51DOPE  H11S 6510   3.276   6.863   5.205 -1.0120  0.0597  1.0507
   51DOPE  C212 6511   3.416   6.748   5.302  0.0132  0.7885  0.2839
   51DOPE  H12R 6512   3.506   6.811   5.292 -0.1544  0.6993 -3.2670
   51DOPE  H12S 6513   3.456   6.644   5.310 -0.9113  0.0470 -2.9531
   51DOPE  C213 6514   3.345   6.782   5.438  0.2131 -0.3339  0.2170
   51DOPE  H13R 6515   3.266   6.711   5.470 -0.6344  2.0499  4.2378
   51DOPE  H13S 6516   3.292   6.876   5.410 -2.3670 -1.0944  2.1192
   51DOPE  C214 6517   3.423   6.802   5.560  0.5721 -0.6686  0.2220
   51DOPE  H14R 6518   3.489   6.886   5.528 -3.3137  2.2445 -0.8083
   51DOPE  H14S 6519   3.491   6.717   5.585  0.5911 -0.7773 -0.1871
   51DOPE  C215 6520   3.329   6.853   5.672 -0.2979  0.0220 -0.1414
   51DOPE  H15R 6521   3.275   6.765   5.712 -1.0260 -1.0414 -3.1616
   51DOPE  H15S 6522   3.245   6.911   5.629 -0.8012 -1.1798 -0.8274
   51DOPE  C216 6523   3.404   6.946   5.774  0.2358  0.8048 -0.2083
   51DOPE  H16R 6524   3.330   7.002   5.835  2.7390  0.6061  3.2977
   51DOPE  H16S 6525   3.447   7.028   5.712 -1.0002  2.2326  0.7512
   51DOPE  C217 6526   3.503   6.875   5.870 -0.0889  0.1939 -0.0662
   51DOPE  H17R 6527   3.578   6.817   5.811  0.7306 -1.0879  2.1186
   51DOPE  H17S 6528   3.459   6.793   5.931 -0.7228 -0.2579 -1.1060
   51DOPE  C218 6529   3.591   6.973   5.950  0.2003 -0.0917 -0.1876
   51DOPE  H18R 6530   3.527   7.008   6.034  0.4907 -0.1929  0.0750
   51DOPE  H18S 6531   3.628   7.060   5.892  1.1919 -0.0088  0.5531
   51DOPE  H18T 6532   3.679   6.928   5.999 -0.7530  0.9920  2.7065
   51DOPE   C33 6533   3.039   6.015   4.735  0.4067 -0.2180  0.8178
   51DOPE   H3X 6534   3.130   6.071   4.707  0.0542  0.5690  1.2252
   51DOPE   H3Y 6535   3.063   5.906   4.739 -3.3215 -1.3477 -2.1578
   51DOPE   C34 6536   2.997   6.064   4.872 -0.1835 -0.6187  0.3278
   51DOPE   H4X 6537   3.011   6.174   4.879 -0.4480 -0.5354 -0.4216
   51DOPE   H4Y 6538   2.896   6.029   4.900 -1.5134  0.7117 -2.4200
   51DOPE   C35 6539   3.083   5.990   4.983  0.2219  0.5981 -0.2299
   51DOPE   H5X 6540   3.188   6.022   4.968  0.8750  1.5936  4.8399
   51DOPE   H5Y 6541   3.072   5.886   4.946 -2.7032  1.4244 -2.0603
   51DOPE   C36 6542   3.044   6.002   5.131 -0.0135  0.5134  0.0622
   51DOPE   H6X 6543   3.046   6.113   5.136  2.5462  0.5137  0.0938
   51DOPE   H6Y 6544   3.123   5.963   5.198  0.5682  0.7942 -0.4440
   51DOPE   C37 6545   2.907   5.947   5.167 -0.7454 -0.2641 -0.1137
   51DOPE   H7X 6546   2.829   6.012   5.121 -1.2284  1.0424  2.3621
   51DOPE   H7Y 6547   2.905   5.844   5.126 -2.4579  0.0114 -0.7888
   51DOPE   C38 6548   2.895   5.920   5.319 -0.1643 -0.4751  0.1224
   51DOPE   H8X 6549   2.980   5.860   5.358  0.0318  0.4098  1.0948
   51DOPE   H8Y 6550   2.804   5.857   5.329  0.8975 -2.2196 -0.7178
   51DOPE   C39 6551   2.886   6.052   5.387  0.6146  0.2110  0.1731
   51DOPE   H9X 6552   2.786   6.096   5.375  1.2230  1.1627 -1.7504
   51DOPE  C310 6553   2.981   6.104   5.469 -0.2308 -0.1447 -0.0781
   51DOPE  H10X 6554   2.964   6.199   5.522  3.5395  0.5331  0.2194
   51DOPE  C311 6555   3.104   6.031   5.524 -0.3301 -0.5420 -0.3002
   51DOPE  H11X 6556   3.072   5.970   5.611 -0.4820  0.9235  0.7027
   51DOPE  H11Y 6557   3.163   5.970   5.453  2.1994  2.1452 -0.6927
   51DOPE  C312 6558   3.202   6.137   5.563 -0.1986  0.6267 -1.0509
   51DOPE  H12X 6559   3.278   6.094   5.631  0.9884  0.5794 -2.3775
   51DOPE  H12Y 6560   3.158   6.214   5.631  1.2117 -0.1026  0.7734
   51DOPE  C313 6561   3.268   6.208   5.449 -0.6257  0.7380  0.5977
   51DOPE  H13X 6562   3.296   6.129   5.376 -3.2703  0.1772  0.0915
   51DOPE  H13Y 6563   3.199   6.278   5.398 -1.9637 -0.4856  0.6569
   51DOPE  C314 6564   3.404   6.284   5.483  0.5040 -0.1056  0.4713
   51DOPE  H14X 6565   3.458   6.214   5.550  0.4374  0.8729  1.5893
   51DOPE  H14Y 6566   3.383   6.375   5.544 -2.0773 -1.1459  1.2788
   51DOPE  C315 6567   3.481   6.325   5.359  0.5540 -0.1020 -0.2081
   51DOPE  H15X 6568   3.416   6.384   5.291 -1.7822 -0.4091  1.6496
   51DOPE  H15Y 6569   3.504   6.230   5.305  2.4177  0.2271 -0.0712
   51DOPE  C316 6570   3.611   6.387   5.405 -0.1962  0.2055  0.2478
   51DOPE  H16X 6571   3.658   6.312   5.472  0.1840  0.1063 -0.1186
   51DOPE  H16Y 6572   3.595   6.477   5.468 -1.6018 -0.6996  1.2388
   51DOPE  C317 6573   3.714   6.409   5.290  0.4443  0.5328  0.3677
   51DOPE  H17X 6574   3.747   6.315   5.240  2.8297  1.4189  0.1311
   51DOPE  H17Y 6575   3.664   6.458   5.203  0.2208  2.6508  1.6360
   51DOPE  C318 6576   3.843   6.483   5.322 -0.3231 -0.5227 -0.2830
   51DOPE  H18X 6577   3.911   6.432   5.393  0.7407 -1.1556 -1.7069
   51DOPE  H18Y 6578   3.905   6.495   5.231  0.0385  0.6942  0.1066
   51DOPE  H18Z 6579   3.821   6.586   5.356 -1.2250 -1.0382  0.7514
   52DOPE     N 6580   5.050   4.906   3.128  0.7151 -0.6580 -0.3236
   52DOPE   HN1 6581   4.991   4.893   3.043  2.5271 -0.0070 -1.7499
   52DOPE   HN2 6582   4.987   4.927   3.208 -0.2690 -1.6418 -0.8056
   52DOPE   HN3 6583   5.097   4.996   3.105  1.0184 -1.2683 -2.2601
   52DOPE   C12 6584   5.144   4.796   3.158 -0.8016  0.5224 -0.0347
   52DOPE  H12A 6585   5.207   4.792   3.067 -1.4380  0.5678 -0.4832
   52DOPE  H12B 6586   5.087   4.703   3.180 -1.5716  1.0246  0.1507
   52DOPE   C11 6587   5.220   4.830   3.291 -0.2392  0.3124  0.7713
   52DOPE  H11A 6588   5.141   4.824   3.370 -0.1495 -1.4433  0.7607
   52DOPE  H11B 6589   5.258   4.933   3.277  1.8298 -0.6265 -1.1444
   52DOPE     P 6590   5.453   4.745   3.249 -0.2367 -0.0357  0.1545
   52DOPE   O13 6591   5.471   4.880   3.195 -0.0521 -0.2761  0.4608
   52DOPE   O14 6592   5.442   4.633   3.149  0.7803  0.8034  0.0155
   52DOPE   O11 6593   5.566   4.710   3.355  0.2807  0.1784 -0.1930
   52DOPE   O12 6594   5.321   4.738   3.331 -0.1756 -0.5817 -0.2442
   52DOPE    C1 6595   5.586   4.794   3.466 -0.4248 -0.2039 -0.7154
   52DOPE    HA 6596   5.490   4.836   3.504 -1.2144 -2.3838 -0.1587
   52DOPE    HB 6597   5.654   4.877   3.438  3.2256 -1.9237  2.2012
   52DOPE    C2 6598   5.647   4.718   3.590 -0.6074  0.5571  0.5318
   52DOPE    HS 6599   5.671   4.790   3.670  0.4938 -1.0643  1.7354
   52DOPE   O21 6600   5.777   4.655   3.563 -1.0737 -0.1957 -0.5846
   52DOPE   C21 6601   5.886   4.736   3.583 -0.1517  0.1000 -0.6047
   52DOPE   O22 6602   5.882   4.855   3.609 -0.4147  0.5261 -0.1396
   52DOPE   C22 6603   6.010   4.647   3.580 -0.0906  0.1227  0.2522
   52DOPE   H2R 6604   6.089   4.688   3.514  0.1024 -0.1353  0.3238
   52DOPE   H2S 6605   5.986   4.549   3.534  0.0416 -0.5219  1.5096
   52DOPE    C3 6606   5.547   4.628   3.651 -0.7163  0.5037  0.1853
   52DOPE    HX 6607   5.559   4.529   3.604 -1.6782  0.1701  0.5947
   52DOPE    HY 6608   5.445   4.667   3.631 -0.6083  1.5445  1.4738
   52DOPE   O31 6609   5.571   4.626   3.794  0.1977  0.0019  0.6719
   52DOPE   C31 6610   5.644   4.522   3.843  0.0103 -0.3243 -0.1687
   52DOPE   O32 6611   5.708   4.446   3.775 -0.1786  0.5042 -0.4180
   52DOPE   C32 6612   5.644   4.539   3.993  0.2269 -0.7894 -0.5372
   52DOPE   H2X 6613   5.677   4.643   4.011  1.9745 -0.8667 -2.7503
   52DOPE   H2Y 6614   5.541   4.515   4.025  0.4087  0.7881  1.3676
   52DOPE   C23 6615   6.083   4.611   3.714  0.3378  0.0942  0.2359
   52DOPE   H3R 6616   6.170   4.547   3.687  0.5213  0.2819  0.3702
   52DOPE   H3S 6617   6.015   4.548   3.775 -0.1525  0.6080  0.2232
   52DOPE   C24 6618   6.136   4.729   3.799  0.2267 -0.4072 -0.4319
   52DOPE   H4R 6619   6.165   4.807   3.725 -1.3556  0.5242 -0.1088
   52DOPE   H4S 6620   6.223   4.689   3.856  1.3719  1.4482 -0.8185
   52DOPE   C25 6621   6.032   4.800   3.890 -0.1391 -0.4465 -0.2601
   52DOPE   H5R 6622   5.984   4.723   3.953 -0.4418  0.5369  0.7313
   52DOPE   H5S 6623   5.965   4.861   3.827  1.3963  0.0396 -1.4949
   52DOPE   C26 6624   6.091   4.904   3.977 -0.3255 -0.6918  0.0195
   52DOPE   H6R 6625   6.099   5.000   3.922  0.2456 -0.7915 -0.0769
   52DOPE   H6S 6626   6.195   4.871   3.998  0.3015  0.3673 -1.2849
   52DOPE   C27 6627   5.998   4.926   4.101 -0.3201  0.3753 -0.2398
   52DOPE   H7R 6628   5.986   4.829   4.154 -1.3448  0.5660 -0.1017
   52DOPE   H7S 6629   5.892   4.943   4.075 -0.1152  1.9665 -0.1400
   52DOPE   C28 6630   6.023   5.042   4.201  0.1597 -0.6416 -0.1369
   52DOPE   H8R 6631   5.937   5.061   4.268  3.0989  2.4641  3.2146
   52DOPE   H8S 6632   6.020   5.139   4.146 -1.0703 -0.4256  0.2796
   52DOPE   C29 6633   6.152   5.031   4.274  0.8025 -0.0139  0.0845
   52DOPE   H9R 6634   6.236   5.024   4.202  1.2387 -0.4752  0.6286
   52DOPE  C210 6635   6.183   5.021   4.405  0.0907 -0.1630 -0.5377
   52DOPE  H10R 6636   6.287   4.996   4.432  0.0039 -1.0858 -1.0253
   52DOPE  C211 6637   6.071   5.024   4.512 -0.2218  0.0644  0.2823
   52DOPE  H11R 6638   6.009   4.932   4.506  0.9437 -0.6812 -1.0732
   52DOPE  H11S 6639   6.009   5.116   4.503 -1.4323 -0.8531 -1.3222
   52DOPE  C212 6640   6.145   5.039   4.643 -0.7601 -0.1724  0.1279
   52DOPE  H12R 6641   6.213   5.126   4.654 -0.2442 -0.5227 -0.2067
   52DOPE  H12S 6642   6.209   4.949   4.657 -2.7683 -1.5374  0.9959
   52DOPE  C213 6643   6.039   5.046   4.754 -0.3535  0.3489  0.2929
   52DOPE  H13R 6644   5.977   4.958   4.727 -2.1937  1.2640  1.3194
   52DOPE  H13S 6645   5.974   5.135   4.741 -0.7001  0.4907  2.5687
   52DOPE  C214 6646   6.099   5.061   4.891 -0.1622  0.8239 -0.1176
   52DOPE  H14R 6647   6.151   5.158   4.903  0.5589  0.3736  0.4883
   52DOPE  H14S 6648   6.177   4.988   4.920  2.3225  4.6838  4.4681
   52DOPE  C215 6649   5.986   5.063   5.004 -0.4444  0.0710  0.1675
   52DOPE  H15R 6650   5.952   4.958   5.017 -0.7775 -0.1436 -2.0318
   52DOPE  H15S 6651   5.897   5.117   4.963  1.0261  1.3688 -1.4877
   52DOPE  C216 6652   6.012   5.137   5.138 -0.6585 -0.4539 -0.1275
   52DOPE  H16R 6653   6.000   5.246   5.122  1.8406 -0.0234  0.4854
   52DOPE  H16S 6654   6.112   5.120   5.183 -1.4846 -2.1410  1.1768
   52DOPE  C217 6655   5.912   5.095   5.248  0.0235  0.7030  0.9154
   52DOPE  H17R 6656   5.905   4.984   5.247 -3.1034  0.7955  1.3436
   52DOPE  H17S 6657   5.811   5.127   5.213  0.3693  0.4873 -0.3247
   52DOPE  C218 6658   5.938   5.157   5.385  0.6753 -0.0604  0.4586
   52DOPE  H18R 6659   5.854   5.119   5.447  1.9079 -0.9967  1.6142
   52DOPE  H18S 6660   6.037   5.122   5.423  1.7817  2.6850  0.2880
   52DOPE  H18T 6661   5.932   5.267   5.384  0.9603 -0.0121  2.0078
   52DOPE   C33 6662   5.750   4.447   4.052  0.3844  0.3943  0.2378
   52DOPE   H3X 6663   5.842   4.488   4.007 -0.4910  0.8732 -1.1772
   52DOPE   H3Y 6664   5.743   4.345   4.007 -1.6996  1.2775 -1.6122
   52DOPE   C34 6665   5.755   4.441   4.206 -0.0862  0.9999  0.5097
   52DOPE   H4X 6666   5.673   4.377   4.245 -0.1700  0.9858  0.3111
   52DOPE   H4Y 6667   5.851   4.387   4.219 -1.0832 -1.6644 -2.0494
   52DOPE   C35 6668   5.744   4.570   4.271 -0.2759 -0.3617 -1.1860
   52DOPE   H5X 6669   5.643   4.615   4.261 -0.6510 -0.8114  0.2010
   52DOPE   H5Y 6670   5.820   4.642   4.237  1.2724 -1.1042  0.4980
   52DOPE   C36 6671   5.781   4.556   4.422 -0.1961  0.5225  1.5113
   52DOPE   H6X 6672   5.874   4.496   4.432  1.4356  2.4812 -0.7163
   52DOPE   H6Y 6673   5.697   4.497   4.465  0.7106 -0.1561  2.3896
   52DOPE   C37 6674   5.786   4.689   4.493  0.0346  0.5008 -0.6963
   52DOPE   H7X 6675   5.865   4.756   4.453  0.0627  0.6765 -0.3542
   52DOPE   H7Y 6676   5.695   4.749   4.467 -0.4401 -0.0464 -0.3034
   52DOPE   C38 6677   5.793   4.669   4.642  0.5210 -0.1894  0.3442
   52DOPE   H8X 6678   5.824   4.763   4.694 -1.0753  0.9264 -0.6149
   52DOPE   H8Y 6679   5.880   4.605   4.667 -0.6494 -1.4117  1.4150
   52DOPE   C39 6680   5.663   4.606   4.698 -0.4012  0.6956  0.7020
   52DOPE   H9X 6681   5.581   4.576   4.631 -0.1901 -1.3167  1.2782
   52DOPE  C310 6682   5.629   4.595   4.823  0.0932 -0.7780 -1.0545
   52DOPE  H10X 6683   5.526   4.565   4.849  0.3948  0.4974  2.1238
   52DOPE  C311 6684   5.710   4.638   4.945 -0.0784  0.4872 -0.0814
   52DOPE  H11X 6685   5.819   4.618   4.944 -0.1391  0.1789 -0.7297
   52DOPE  H11Y 6686   5.699   4.749   4.952  1.1629  0.5547  1.3721
   52DOPE  C312 6687   5.651   4.583   5.073  0.2817 -0.0040  0.6440
   52DOPE  H12X 6688   5.670   4.474   5.074 -1.8150 -0.4083  1.1892
   52DOPE  H12Y 6689   5.540   4.590   5.079  0.2163 -0.2614 -0.1726
   52DOPE  C313 6690   5.712   4.652   5.190  0.4936  0.6687 -1.1818
   52DOPE  H13X 6691   5.815   4.616   5.214 -0.0154 -1.5988 -2.1094
   52DOPE  H13Y 6692   5.729   4.760   5.171 -1.1113  1.3961  1.1583
   52DOPE  C314 6693   5.626   4.643   5.317 -0.1631 -0.1167 -0.4900
   52DOPE  H14X 6694   5.603   4.537   5.340 -0.6707  0.2685  0.8489
   52DOPE  H14Y 6695   5.531   4.693   5.287  0.2207 -0.3195 -2.1574
   52DOPE  C315 6696   5.684   4.714   5.444 -0.0536  0.0292  0.1223
   52DOPE  H15X 6697   5.678   4.823   5.423  0.9248 -0.0743 -0.7671
   52DOPE  H15Y 6698   5.787   4.674   5.457 -0.0823  0.0296  0.3515
   52DOPE  C316 6699   5.589   4.667   5.555  0.3102 -0.5561 -0.0471
   52DOPE  H16X 6700   5.595   4.557   5.569 -0.1063 -0.4471  1.1078
   52DOPE  H16Y 6701   5.488   4.698   5.521  0.2171 -2.1292 -1.3242
   52DOPE  C317 6702   5.620   4.734   5.687  0.1239 -0.2790 -0.1487
   52DOPE  H17X 6703   5.713   4.685   5.725 -0.0172  0.3221  1.0225
   52DOPE  H17Y 6704   5.667   4.832   5.667  0.2535 -0.6141 -1.6438
   52DOPE  C318 6705   5.519   4.722   5.800 -0.2070  0.3685 -0.6169
   52DOPE  H18X 6706   5.480   4.618   5.810 -0.2503  0.4829  0.4982
   52DOPE  H18Y 6707   5.553   4.758   5.899 -1.7049  0.9773 -0.2969
   52DOPE  H18Z 6708   5.430   4.781   5.770 -0.7021  0.5707  1.1570
   53DOPE     N 6709   5.071   6.376   3.791 -0.4884 -0.4307 -0.5255
   53DOPE   HN1 6710   5.175   6.380   3.789 -0.3776 -2.1794  0.3197
   53DOPE   HN2 6711   5.026   6.311   3.724 -1.2631  0.0194 -0.4582
   53DOPE   HN3 6712   5.032   6.466   3.756  1.1431 -0.1981 -1.9030
   53DOPE   C12 6713   5.033   6.334   3.929 -0.1550 -0.6540 -0.5321
   53DOPE  H12A 6714   5.087   6.408   3.992  0.0358 -0.8695 -0.4448
   53DOPE  H12B 6715   5.077   6.233   3.943  2.3320  0.6713  2.2624
   53DOPE   C11 6716   4.886   6.321   3.952 -0.1653  0.7107 -0.4104
   53DOPE  H11A 6717   4.837   6.417   3.925  1.9784  2.2562  0.8266
   53DOPE  H11B 6718   4.865   6.305   4.060  0.0399  0.5418 -0.3935
   53DOPE     P 6719   4.767   6.079   3.917 -0.5766 -0.4417 -0.5891
   53DOPE   O13 6720   4.776   5.970   3.812  0.0175 -0.6617 -0.1463
   53DOPE   O14 6721   4.632   6.117   3.963  0.6737  0.2771  0.0808
   53DOPE   O11 6722   4.856   6.027   4.039 -0.0790  0.3947  0.3439
   53DOPE   O12 6723   4.838   6.216   3.872 -0.0110  0.0129  0.7764
   53DOPE    C1 6724   4.979   5.966   4.004 -0.5488 -0.0758  0.0391
   53DOPE    HA 6725   5.042   6.024   3.933  0.6385 -0.4245  0.7632
   53DOPE    HB 6726   4.962   5.869   3.953 -1.1905 -0.2443  0.5609
   53DOPE    C2 6727   5.069   5.952   4.132  0.8960  0.5525 -0.4117
   53DOPE    HS 6728   5.151   5.881   4.108  1.3420  1.1846 -0.7682
   53DOPE   O21 6729   4.984   5.900   4.242  0.0933 -0.2415  0.2781
   53DOPE   C21 6730   4.943   5.777   4.222  0.8463 -0.3073  0.6271
   53DOPE   O22 6731   4.967   5.703   4.128  0.0909 -0.3840 -0.4289
   53DOPE   C22 6732   4.850   5.737   4.336  0.1436 -0.0423  0.6750
   53DOPE   H2R 6733   4.752   5.786   4.318  0.1024 -0.0327  0.9215
   53DOPE   H2S 6734   4.905   5.779   4.423  0.3599 -1.0613  1.0468
   53DOPE    C3 6735   5.128   6.084   4.178 -0.5223  0.4195  1.4329
   53DOPE    HX 6736   5.037   6.142   4.203 -1.0852 -0.3333  1.1517
   53DOPE    HY 6737   5.184   6.136   4.097 -1.9182 -0.5217 -0.2174
   53DOPE   O31 6738   5.213   6.062   4.296  0.5410 -0.0512  0.0472
   53DOPE   C31 6739   5.274   6.172   4.340  0.6411 -0.4091 -0.3762
   53DOPE   O32 6740   5.267   6.280   4.286  0.0062 -0.1503  0.1805
   53DOPE   C32 6741   5.364   6.141   4.458  0.0096  0.5921  1.0243
   53DOPE   H2X 6742   5.428   6.054   4.431 -1.2937 -0.2605  0.5746
   53DOPE   H2Y 6743   5.435   6.226   4.461 -2.7175  3.0683 -0.1040
   53DOPE   C23 6744   4.827   5.589   4.333 -0.0297 -0.1894 -0.2784
   53DOPE   H3R 6745   4.923   5.536   4.351 -0.0785 -0.2242 -0.1175
   53DOPE   H3S 6746   4.798   5.543   4.236  0.0015  1.0500 -0.8863
   53DOPE   C24 6747   4.748   5.532   4.453  0.4513 -0.1367  0.0300
   53DOPE   H4R 6748   4.743   5.422   4.449 -2.3398 -0.0352 -2.0985
   53DOPE   H4S 6749   4.647   5.578   4.449  0.6283  0.2845  0.2748
   53DOPE   C25 6750   4.818   5.537   4.586 -0.5955 -0.4786  0.7157
   53DOPE   H5R 6751   4.849   5.638   4.618 -1.3480  0.2359 -0.7454
   53DOPE   H5S 6752   4.911   5.477   4.571  0.5069  1.4976 -0.7534
   53DOPE   C26 6753   4.728   5.483   4.697 -0.4709 -0.4028  1.1768
   53DOPE   H6R 6754   4.706   5.378   4.671  3.1272 -1.3065  1.1686
   53DOPE   H6S 6755   4.635   5.542   4.682  1.0126  2.5883  2.8411
   53DOPE   C27 6756   4.791   5.501   4.834  0.8420  0.0980  0.1677
   53DOPE   H7R 6757   4.812   5.609   4.848  1.1109 -0.3282  4.6400
   53DOPE   H7S 6758   4.885   5.442   4.841 -0.2734 -1.7091  0.7069
   53DOPE   C28 6759   4.692   5.449   4.950 -0.5628 -0.0294 -0.2356
   53DOPE   H8R 6760   4.659   5.344   4.931 -0.8595 -0.3784  1.9333
   53DOPE   H8S 6761   4.593   5.500   4.946  0.4478  1.9625 -0.6717
   53DOPE   C29 6762   4.744   5.465   5.085 -0.1397  0.2150  0.2086
   53DOPE   H9R 6763   4.805   5.557   5.087  0.2083 -0.0055 -0.1120
   53DOPE  C210 6764   4.738   5.387   5.194  0.3722 -0.3852 -0.3985
   53DOPE  H10R 6765   4.775   5.433   5.287  2.6352 -1.0944 -0.8913
   53DOPE  C211 6766   4.661   5.259   5.205 -0.6555 -0.5816  0.0460
   53DOPE  H11R 6767   4.601   5.245   5.112  2.4838 -2.8209 -1.8463
   53DOPE  H11S 6768   4.596   5.264   5.295 -0.4324  0.8647  0.1430
   53DOPE  C212 6769   4.743   5.135   5.204 -0.3341 -0.8844  0.3220
   53DOPE  H12R 6770   4.826   5.134   5.130  0.3466 -2.9681  1.0345
   53DOPE  H12S 6771   4.673   5.054   5.173 -0.9481  0.4612 -2.0124
   53DOPE  C213 6772   4.802   5.100   5.342 -0.3571  0.3254  0.3384
   53DOPE  H13R 6773   4.721   5.093   5.418  0.6376 -0.5491  1.3639
   53DOPE  H13S 6774   4.867   5.178   5.388  0.6868 -1.3457  1.8271
   53DOPE  C214 6775   4.870   4.964   5.351  0.3601  0.2787  0.0378
   53DOPE  H14R 6776   4.920   4.962   5.252  2.2304 -1.8519  0.9329
   53DOPE  H14S 6777   4.802   4.877   5.361  1.7852 -1.0844 -1.4858
   53DOPE  C215 6778   4.963   4.973   5.471  0.4390 -0.1730 -0.3480
   53DOPE  H15R 6779   4.899   4.999   5.558 -2.2548 -1.2309 -1.9087
   53DOPE  H15S 6780   5.036   5.055   5.457  1.2705 -0.4295  2.0365
   53DOPE  C216 6781   5.035   4.844   5.507 -0.1625 -0.0503 -0.2969
   53DOPE  H16R 6782   5.139   4.849   5.545  0.0958 -2.3880 -0.5440
   53DOPE  H16S 6783   5.053   4.791   5.411  0.4059 -0.4649  0.0316
   53DOPE  C217 6784   4.961   4.763   5.618  0.3410 -0.2955  0.0986
   53DOPE  H17R 6785   4.989   4.656   5.608 -0.2307 -0.3314 -1.4946
   53DOPE  H17S 6786   4.855   4.774   5.589  0.1686 -1.1793  0.3600
   53DOPE  C218 6787   4.982   4.812   5.762  0.7106 -0.1526  0.2413
   53DOPE  H18R 6788   4.966   4.922   5.762 -1.7139 -0.4375  0.2576
   53DOPE  H18S 6789   5.083   4.787   5.801  0.6279 -2.0718 -0.6875
   53DOPE  H18T 6790   4.907   4.766   5.829  1.4738 -3.5519 -1.0513
   53DOPE   C33 6791   5.288   6.130   4.589 -0.0091 -0.4931  0.0976
   53DOPE   H3X 6792   5.198   6.068   4.569 -0.0389 -1.5341  2.9518
   53DOPE   H3Y 6793   5.264   6.235   4.619  0.6439  0.1485 -1.5066
   53DOPE   C34 6794   5.384   6.067   4.698  0.0763  0.5328 -0.0261
   53DOPE   H4X 6795   5.412   5.960   4.686  1.0512  0.9459 -1.6710
   53DOPE   H4Y 6796   5.478   6.124   4.690  0.1280  0.3494 -0.8397
   53DOPE   C35 6797   5.328   6.082   4.841  0.3101 -0.2095  0.8106
   53DOPE   H5X 6798   5.232   6.027   4.841 -0.3328  0.8640  1.9940
   53DOPE   H5Y 6799   5.292   6.183   4.869  1.0808 -0.0066  1.1030
   53DOPE   C36 6800   5.419   6.027   4.952  0.4087 -0.3828 -0.0070
   53DOPE   H6X 6801   5.522   6.069   4.940  0.6718 -0.6812  1.0392
   53DOPE   H6Y 6802   5.422   5.917   4.959  0.1245 -0.4643 -1.0447
   53DOPE   C37 6803   5.367   6.075   5.087 -0.2368 -0.0358 -0.2410
   53DOPE   H7X 6804   5.368   6.186   5.091 -0.9085 -0.0632  1.0219
   53DOPE   H7Y 6805   5.260   6.049   5.097  0.4932 -3.2646  0.3432
   53DOPE   C38 6806   5.451   6.027   5.209  0.1635 -0.5939 -0.0857
   53DOPE   H8X 6807   5.430   6.077   5.306  2.5438 -0.3496  0.3636
   53DOPE   H8Y 6808   5.558   6.048   5.190  0.4658 -2.1640 -0.2410
   53DOPE   C39 6809   5.434   5.880   5.233  0.3799 -0.3770 -0.0351
   53DOPE   H9X 6810   5.500   5.816   5.173  0.3606 -0.0599 -0.4019
   53DOPE  C310 6811   5.342   5.825   5.316 -0.0834 -0.1961  0.0844
   53DOPE  H10X 6812   5.335   5.715   5.313  0.9331 -0.2497 -0.8471
   53DOPE  C311 6813   5.247   5.904   5.407 -0.1192  0.1341  0.5040
   53DOPE  H11X 6814   5.261   5.881   5.514  1.4249 -2.2707 -0.1312
   53DOPE  H11Y 6815   5.252   6.013   5.389  1.0714 -0.1492 -1.1970
   53DOPE  C312 6816   5.094   5.871   5.389 -0.6677 -0.8091  0.5304
   53DOPE  H12X 6817   5.039   5.903   5.480 -0.9869 -2.2775  0.8809
   53DOPE  H12Y 6818   5.088   5.760   5.385 -2.2673 -0.7496  0.8184
   53DOPE  C313 6819   5.026   5.915   5.260 -0.0402  0.3146  0.2305
   53DOPE  H13X 6820   5.030   6.025   5.247  1.9343  0.5484  2.3072
   53DOPE  H13Y 6821   5.084   5.883   5.171 -0.0502  0.6922  0.0860
   53DOPE  C314 6822   4.880   5.865   5.248  1.0347  0.3973 -0.3704
   53DOPE  H14X 6823   4.834   5.899   5.343  2.6164  0.2255  0.4853
   53DOPE  H14Y 6824   4.870   5.755   5.236 -0.1918  0.4863 -0.2260
   53DOPE  C315 6825   4.792   5.920   5.137  0.9677  0.4822  0.3775
   53DOPE  H15X 6826   4.780   6.028   5.163 -0.2061  0.3435  0.4929
   53DOPE  H15Y 6827   4.689   5.880   5.130  0.6847  1.5211 -2.8596
   53DOPE  C316 6828   4.863   5.908   5.001 -0.8838  0.7844  0.1751
   53DOPE  H16X 6829   4.859   5.800   4.973 -1.2871  0.8488 -0.0203
   53DOPE  H16Y 6830   4.970   5.936   5.006 -0.5662 -0.1907 -0.8879
   53DOPE  C317 6831   4.803   5.990   4.891  0.3133  0.3252 -0.7018
   53DOPE  H17X 6832   4.697   5.954   4.886 -0.8896  3.3315  0.7707
   53DOPE  H17Y 6833   4.810   6.099   4.910  0.3860  0.7024 -2.7054
   53DOPE  C318 6834   4.883   5.959   4.765  0.1755 -0.3765 -0.4531
   53DOPE  H18X 6835   4.832   6.000   4.675 -1.8885  0.7217  1.1406
   53DOPE  H18Y 6836   4.983   6.007   4.765 -0.0839  0.2094  1.4467
   53DOPE  H18Z 6837   4.899   5.851   4.744  0.7408  0.1646 -3.3204
   54DOPE     N 6838   6.753   3.366   3.760 -0.3594  0.0874 -0.5776
   54DOPE   HN1 6839   6.823   3.416   3.701 -0.2359  0.1562 -0.3714
   54DOPE   HN2 6840   6.806   3.306   3.827 -0.1764 -1.1597 -1.7823
   54DOPE   HN3 6841   6.703   3.301   3.695  0.2586 -1.1928  0.1888
   54DOPE   C12 6842   6.688   3.485   3.824 -0.7572 -0.2469  0.2035
   54DOPE  H12A 6843   6.771   3.552   3.856 -0.1715 -0.0481 -1.6161
   54DOPE  H12B 6844   6.628   3.440   3.905 -1.6720 -2.1187 -1.4221
   54DOPE   C11 6845   6.588   3.559   3.728 -0.4563  0.4279 -0.4863
   54DOPE  H11A 6846   6.524   3.640   3.770 -0.4443  0.8414 -1.2436
   54DOPE  H11B 6847   6.514   3.481   3.702 -1.5182  1.9342 -2.2113
   54DOPE     P 6848   6.709   3.735   3.565 -0.1921 -0.0477  0.1232
   54DOPE   O13 6849   6.671   3.784   3.436  0.2775 -0.0429  0.2076
   54DOPE   O14 6850   6.856   3.725   3.585  0.2713  0.4222  0.3706
   54DOPE   O11 6851   6.641   3.821   3.675 -0.8789 -0.1055 -0.4147
   54DOPE   O12 6852   6.651   3.587   3.597 -0.0099 -0.0546  0.2488
   54DOPE    C1 6853   6.535   3.924   3.652 -0.1741 -0.0287 -0.1611
   54DOPE    HA 6854   6.514   3.918   3.543  0.4547 -0.8302 -0.2472
   54DOPE    HB 6855   6.576   4.025   3.676 -1.5880  0.8709 -1.3330
   54DOPE    C2 6856   6.397   3.897   3.730  0.0573 -0.3832  0.0546
   54DOPE    HS 6857   6.344   3.994   3.723  1.9899  0.9987  2.8027
   54DOPE   O21 6858   6.423   3.857   3.863 -0.6260 -0.5988 -0.0127
   54DOPE   C21 6859   6.363   3.927   3.954  0.7913  0.8523 -0.2634
   54DOPE   O22 6860   6.281   4.019   3.933 -0.2887 -0.1253  0.3657
   54DOPE   C22 6861   6.381   3.871   4.092  0.3173  0.4999  0.1667
   54DOPE   H2R 6862   6.474   3.810   4.093  0.3264  0.4767 -1.1596
   54DOPE   H2S 6863   6.306   3.791   4.112  0.9443 -0.0661  0.2932
   54DOPE    C3 6864   6.310   3.787   3.669  0.7080 -0.1725 -0.7375
   54DOPE    HX 6865   6.372   3.694   3.664  1.3697  0.2382 -0.3407
   54DOPE    HY 6866   6.283   3.820   3.567  0.7792  2.4893  0.0439
   54DOPE   O31 6867   6.189   3.762   3.742  0.3500 -0.1675  0.4680
   54DOPE   C31 6868   6.075   3.828   3.710 -0.1105  0.6514 -0.3322
   54DOPE   O32 6869   6.064   3.918   3.633  0.1510 -0.0647 -0.4063
   54DOPE   C32 6870   5.969   3.754   3.796  0.5549 -0.1161 -0.2017
   54DOPE   H2X 6871   5.996   3.759   3.903 -1.8842 -1.6499  0.5731
   54DOPE   H2Y 6872   5.869   3.804   3.794  0.6669  0.1059 -1.0740
   54DOPE   C23 6873   6.392   3.978   4.201 -0.2869  0.0611 -0.5658
   54DOPE   H3R 6874   6.429   4.075   4.161  0.3294  0.1601  0.2183
   54DOPE   H3S 6875   6.465   3.944   4.277  2.2739  1.5789 -2.1685
   54DOPE   C24 6876   6.249   3.986   4.262 -0.4618 -0.0990  0.1380
   54DOPE   H4R 6877   6.222   3.889   4.309 -0.2429  0.8381  2.3154
   54DOPE   H4S 6878   6.175   4.007   4.182  0.8926 -1.1551 -1.4749
   54DOPE   C25 6879   6.244   4.099   4.364 -0.5951 -0.1404 -1.0078
   54DOPE   H5R 6880   6.139   4.108   4.399 -0.6055 -0.5722 -0.9260
   54DOPE   H5S 6881   6.267   4.191   4.306 -0.2013 -0.7193 -1.7866
   54DOPE   C26 6882   6.349   4.085   4.482 -0.0534  0.8250  0.3325
   54DOPE   H6R 6883   6.454   4.096   4.450 -0.0093 -0.0337  0.1388
   54DOPE   H6S 6884   6.346   3.982   4.525 -2.9270  0.8013  0.2878
   54DOPE   C27 6885   6.300   4.179   4.603 -0.4782  0.0854  0.2755
   54DOPE   H7R 6886   6.201   4.146   4.641  0.3499 -0.1654  2.3278
   54DOPE   H7S 6887   6.285   4.283   4.565 -1.4664 -0.3134 -0.4860
   54DOPE   C28 6888   6.390   4.201   4.722 -0.4381  0.1853  0.1068
   54DOPE   H8R 6889   6.347   4.270   4.798  1.0215  0.5030  0.6814
   54DOPE   H8S 6890   6.489   4.240   4.690  0.1887 -0.3845  1.2680
   54DOPE   C29 6891   6.408   4.068   4.795 -0.2609 -0.3362  0.0333
   54DOPE   H9R 6892   6.453   3.992   4.729  0.8568 -0.2999  0.7239
   54DOPE  C210 6893   6.363   4.028   4.917 -0.1682  0.4892  0.6920
   54DOPE  H10R 6894   6.383   3.924   4.947  1.5799  0.7814  0.6375
   54DOPE  C211 6895   6.274   4.105   5.015 -0.3505  0.2356  0.2969
   54DOPE  H11R 6896   6.170   4.069   5.004 -0.7803  1.0076  1.6398
   54DOPE  H11S 6897   6.268   4.211   4.983  1.0106  0.4459  0.6583
   54DOPE  C212 6898   6.327   4.081   5.156  0.2388  0.0179  0.1870
   54DOPE  H12R 6899   6.305   4.168   5.221 -0.1023  0.6431 -0.7470
   54DOPE  H12S 6900   6.438   4.085   5.148  0.2094 -1.0763 -1.1777
   54DOPE  C213 6901   6.273   3.966   5.238  0.5885  0.4175  0.2980
   54DOPE  H13R 6902   6.297   3.873   5.182 -0.7568  0.9730 -1.2707
   54DOPE  H13S 6903   6.162   3.968   5.230  0.4665 -2.4620  0.2520
   54DOPE  C214 6904   6.325   3.969   5.384  0.1512  0.3009 -0.3927
   54DOPE  H14R 6905   6.273   4.046   5.446  1.4767  0.0489  1.0906
   54DOPE  H14S 6906   6.432   3.998   5.383  0.5669 -0.8499  1.9619
   54DOPE  C215 6907   6.302   3.836   5.464 -0.3522 -0.9049  0.3652
   54DOPE  H15R 6908   6.371   3.758   5.426  1.1935  0.9010 -0.7163
   54DOPE  H15S 6909   6.193   3.816   5.469 -0.1058 -2.0469  1.6155
   54DOPE  C216 6910   6.345   3.849   5.610  0.4549 -0.0771  0.2863
   54DOPE  H16R 6911   6.293   3.942   5.641 -2.7267 -2.0745  1.4952
   54DOPE  H16S 6912   6.451   3.869   5.635  0.9076  0.7543 -2.0189
   54DOPE  C217 6913   6.307   3.728   5.698  0.3849 -0.2961  0.2140
   54DOPE  H17R 6914   6.359   3.644   5.646  1.7125  1.0988 -0.7879
   54DOPE  H17S 6915   6.198   3.709   5.694 -0.0479  1.7412  1.2616
   54DOPE  C218 6916   6.355   3.741   5.840 -0.7312  0.3907 -0.0345
   54DOPE  H18R 6917   6.277   3.790   5.901 -2.8983 -2.0789 -0.6391
   54DOPE  H18S 6918   6.453   3.794   5.838  1.2482 -2.9599  0.4486
   54DOPE  H18T 6919   6.372   3.636   5.872 -1.1362  0.2938 -0.1285
   54DOPE   C33 6920   5.927   3.620   3.735 -0.2133 -0.4934  0.2440
   54DOPE   H3X 6921   6.000   3.539   3.757  0.2147 -0.4267 -0.8891
   54DOPE   H3Y 6922   5.917   3.628   3.625  0.9319 -0.9080  0.0966
   54DOPE   C34 6923   5.798   3.560   3.797 -0.3765 -0.1439 -0.0892
   54DOPE   H4X 6924   5.708   3.622   3.774  0.6171  1.1008 -0.7876
   54DOPE   H4Y 6925   5.761   3.464   3.756  0.5889 -1.2242  1.4851
   54DOPE   C35 6926   5.798   3.530   3.941 -0.3393  0.7860  0.1662
   54DOPE   H5X 6927   5.845   3.612   3.999  0.9507 -1.5798  2.7471
   54DOPE   H5Y 6928   5.866   3.443   3.954 -0.0925  0.6729 -1.7044
   54DOPE   C36 6929   5.661   3.498   4.002  0.4365 -0.4043  0.1881
   54DOPE   H6X 6930   5.620   3.424   3.930  4.1107  1.3869 -4.2053
   54DOPE   H6Y 6931   5.601   3.591   3.988  1.3974  0.0557 -1.0740
   54DOPE   C37 6932   5.650   3.437   4.138  0.4322 -0.5411 -0.0247
   54DOPE   H7X 6933   5.544   3.412   4.163  0.4089  0.3115  0.7992
   54DOPE   H7Y 6934   5.703   3.340   4.131  0.1046 -0.6847 -0.6604
   54DOPE   C38 6935   5.687   3.530   4.247  0.2217 -0.0839  0.2213
   54DOPE   H8X 6936   5.780   3.577   4.211 -0.2522  0.0663 -0.8324
   54DOPE   H8Y 6937   5.725   3.482   4.340 -0.8787  0.6003  1.0586
   54DOPE   C39 6938   5.579   3.640   4.276 -0.4670  0.3932 -0.1625
   54DOPE   H9X 6939   5.523   3.689   4.195 -0.1310  2.0521  0.5663
   54DOPE  C310 6940   5.541   3.674   4.402  0.1567 -0.3872 -0.0112
   54DOPE  H10X 6941   5.478   3.765   4.401 -0.0639 -0.5370 -0.9273
   54DOPE  C311 6942   5.594   3.626   4.531  0.4763  0.0678  0.2018
   54DOPE  H11X 6943   5.514   3.567   4.582 -0.2988 -0.0337 -1.0802
   54DOPE  H11Y 6944   5.680   3.556   4.519  0.4312 -0.2839  1.7212
   54DOPE  C312 6945   5.634   3.736   4.629 -0.3320 -0.5917 -0.4540
   54DOPE  H12X 6946   5.561   3.819   4.637  2.8756  2.4107 -0.1505
   54DOPE  H12Y 6947   5.719   3.792   4.586 -0.5582  0.6238  0.6508
   54DOPE  C313 6948   5.659   3.678   4.765 -0.0530  0.5297  0.2246
   54DOPE  H13X 6949   5.568   3.630   4.806  2.4392 -2.2343  3.0137
   54DOPE  H13Y 6950   5.749   3.613   4.766  0.2129  0.9041  0.4104
   54DOPE  C314 6951   5.696   3.784   4.870 -0.0005 -0.5841  0.2660
   54DOPE  H14X 6952   5.651   3.883   4.848 -2.5983 -1.9655 -1.0694
   54DOPE  H14Y 6953   5.806   3.790   4.850 -0.2092 -0.4037 -0.9174
   54DOPE  C315 6954   5.670   3.738   5.007  0.0892  0.6490  0.0615
   54DOPE  H15X 6955   5.702   3.632   5.015 -3.1217 -0.3305  2.2763
   54DOPE  H15Y 6956   5.562   3.743   5.032  0.3603 -0.0741  1.5016
   54DOPE  C316 6957   5.742   3.830   5.106 -0.1109  0.2650  0.1207
   54DOPE  H16X 6958   5.741   3.936   5.073  0.1569  0.2336  0.0044
   54DOPE  H16Y 6959   5.846   3.791   5.120 -0.9526 -1.7961  1.1428
   54DOPE  C317 6960   5.688   3.832   5.254 -0.1465  0.4398 -0.2174
   54DOPE  H17X 6961   5.672   3.724   5.275 -2.0322  0.8524  0.6868
   54DOPE  H17Y 6962   5.759   3.873   5.329  2.0093  3.3251 -3.5391
   54DOPE  C318 6963   5.549   3.893   5.271  0.2394 -0.2783  0.3266
   54DOPE  H18X 6964   5.501   3.872   5.369  0.0362 -1.4012  0.0027
   54DOPE  H18Y 6965   5.551   4.003   5.251 -0.7804 -0.3499 -0.2309
   54DOPE  H18Z 6966   5.488   3.848   5.190  1.9128  2.2556 -2.5852
   55DOPE     N 6967   0.898   5.540   3.739  0.5646 -0.5219  0.0210
   55DOPE   HN1 6968   0.815   5.480   3.759 -0.4907  0.4958 -1.1591
   55DOPE   HN2 6969   0.961   5.546   3.822  1.5540  4.1932 -0.8104
   55DOPE   HN3 6970   0.869   5.629   3.694 -0.0511  0.1053  1.5914
   55DOPE   C12 6971   0.976   5.457   3.642 -0.4953 -0.3673 -0.3179
   55DOPE  H12A 6972   1.058   5.525   3.609 -0.2750 -0.2068  0.5296
   55DOPE  H12B 6973   0.910   5.439   3.555 -0.5258  0.6674 -0.5170
   55DOPE   C11 6974   1.035   5.339   3.707  0.2932  0.3054 -0.4896
   55DOPE  H11A 6975   1.093   5.270   3.642 -1.4042 -0.7622 -0.9649
   55DOPE  H11B 6976   0.953   5.278   3.751  1.1376  1.2597  2.6262
   55DOPE     P 6977   1.265   5.397   3.835  0.2092 -0.7550  0.1138
   55DOPE   O13 6978   1.289   5.505   3.936  0.2102  0.1871 -0.6125
   55DOPE   O14 6979   1.328   5.424   3.704  0.4585  0.3845  0.1379
   55DOPE   O11 6980   1.324   5.263   3.889 -0.3427 -0.0782  0.7848
   55DOPE   O12 6981   1.108   5.376   3.822 -0.1148  0.4969 -0.3399
   55DOPE    C1 6982   1.257   5.137   3.909  0.5626  0.3045  0.3342
   55DOPE    HA 6983   1.319   5.048   3.935  1.7353  0.6373 -1.1680
   55DOPE    HB 6984   1.208   5.104   3.815 -1.0219  0.9129  0.9267
   55DOPE    C2 6985   1.148   5.156   4.020  0.2397 -0.2444 -0.4258
   55DOPE    HS 6986   1.081   5.236   3.981  2.3257  1.9716  0.2688
   55DOPE   O21 6987   1.215   5.192   4.143  0.0783  0.0497  0.1535
   55DOPE   C21 6988   1.154   5.254   4.235  0.0716  0.0407 -0.1131
   55DOPE   O22 6989   1.043   5.308   4.226  0.7958 -0.2077  0.4995
   55DOPE   C22 6990   1.244   5.254   4.360  0.3935  0.4313  0.6531
   55DOPE   H2R 6991   1.327   5.327   4.347 -1.6705  3.4244  2.7128
   55DOPE   H2S 6992   1.281   5.153   4.389 -1.2837 -0.7985 -1.2414
   55DOPE    C3 6993   1.074   5.016   4.028  0.1478  0.5602  0.2950
   55DOPE    HX 6994   1.154   4.950   4.067  0.6053  0.3680 -0.8929
   55DOPE    HY 6995   1.055   4.987   3.922  0.7377 -1.8446  0.8063
   55DOPE   O31 6996   0.957   5.026   4.119  0.2638  0.0837  0.3746
   55DOPE   C31 6997   0.848   5.078   4.055  0.4411 -0.3393 -0.3200
   55DOPE   O32 6998   0.842   5.114   3.940 -0.6490  0.1038  0.2504
   55DOPE   C32 6999   0.727   5.077   4.154  0.7354  0.2153  0.7087
   55DOPE   H2X 7000   0.637   5.096   4.092  0.9216  1.2508  0.7230
   55DOPE   H2Y 7001   0.712   4.986   4.216 -1.5797  1.3532  1.9495
   55DOPE   C23 7002   1.162   5.295   4.484  0.5633  0.0171  0.0329
   55DOPE   H3R 7003   1.057   5.258   4.479 -0.2529  1.9623  1.3438
   55DOPE   H3S 7004   1.158   5.406   4.476  1.2430  0.0444  0.0169
   55DOPE   C24 7005   1.205   5.262   4.632 -0.7999 -0.8180 -0.2612
   55DOPE   H4R 7006   1.312   5.286   4.650 -0.4917 -1.1212 -1.5560
   55DOPE   H4S 7007   1.184   5.154   4.644 -2.5185 -0.4789  0.0750
   55DOPE   C25 7008   1.114   5.334   4.739  0.7906  0.0585 -0.2249
   55DOPE   H5R 7009   1.009   5.327   4.705  0.6735 -0.0368  0.1555
   55DOPE   H5S 7010   1.139   5.443   4.738  0.7437  0.0670 -0.4727
   55DOPE   C26 7011   1.142   5.270   4.881  0.3824 -0.4560  0.1634
   55DOPE   H6R 7012   1.250   5.270   4.908  0.5346 -1.6062 -0.3623
   55DOPE   H6S 7013   1.100   5.167   4.880  0.1548 -0.3962 -2.2356
   55DOPE   C27 7014   1.054   5.349   4.988 -0.5167  0.2533  0.5658
   55DOPE   H7R 7015   0.952   5.369   4.949 -1.0538 -0.4908  1.5441
   55DOPE   H7S 7016   1.108   5.443   5.013  1.1006 -1.0958  2.4419
   55DOPE   C28 7017   1.040   5.286   5.129 -0.4139  0.4772 -0.2857
   55DOPE   H8R 7018   0.978   5.196   5.105  1.0723 -0.8109  0.4983
   55DOPE   H8S 7019   0.985   5.358   5.193 -0.9668 -0.2341  0.0486
   55DOPE   C29 7020   1.173   5.246   5.191 -0.0692  0.0821 -0.2422
   55DOPE   H9R 7021   1.233   5.177   5.130  0.8581  0.6201  0.0494
   55DOPE  C210 7022   1.236   5.298   5.295  0.3036 -0.4017 -0.3123
   55DOPE  H10R 7023   1.341   5.273   5.316  0.2009 -1.0810 -0.5924
   55DOPE  C211 7024   1.174   5.407   5.383  0.1700  0.0123  0.4881
   55DOPE  H11R 7025   1.066   5.423   5.365  0.1168 -0.5084  0.3436
   55DOPE  H11S 7026   1.228   5.502   5.363  0.9183 -0.1593  1.5770
   55DOPE  C212 7027   1.182   5.362   5.527  0.1985 -0.7927 -0.0859
   55DOPE  H12R 7028   1.123   5.268   5.541 -0.1685 -0.8353 -1.6529
   55DOPE  H12S 7029   1.131   5.438   5.590 -1.0577  0.7391 -2.7576
   55DOPE  C213 7030   1.329   5.344   5.585  0.6881 -0.0648  0.0825
   55DOPE  H13R 7031   1.386   5.423   5.531 -0.3475  0.2681 -0.5369
   55DOPE  H13S 7032   1.370   5.241   5.583 -3.4074 -1.8786 -0.6710
   55DOPE  C214 7033   1.339   5.387   5.732  0.1110 -0.2606 -0.1922
   55DOPE  H14R 7034   1.308   5.312   5.807 -0.0019  0.3725  0.4038
   55DOPE  H14S 7035   1.296   5.488   5.749 -1.1132 -0.6229 -1.0226
   55DOPE  C215 7036   1.485   5.407   5.777 -0.0574  0.6918  0.3832
   55DOPE  H15R 7037   1.541   5.482   5.716  0.5239  0.8065  1.0382
   55DOPE  H15S 7038   1.533   5.307   5.783 -1.5974 -0.2410 -1.6834
   55DOPE  C216 7039   1.494   5.445   5.918 -0.2507 -0.2945  0.1997
   55DOPE  H16R 7040   1.441   5.382   5.992 -0.4396 -1.6006 -1.0017
   55DOPE  H16S 7041   1.448   5.546   5.927  0.8577  0.1048  1.8128
   55DOPE  C217 7042   1.643   5.459   5.964 -0.3988  0.8163  0.1241
   55DOPE  H17R 7043   1.706   5.527   5.902 -0.9295 -0.4789 -1.9476
   55DOPE  H17S 7044   1.693   5.360   5.959  1.7430  1.5932  3.1179
   55DOPE  C218 7045   1.645   5.509   6.102  0.9766 -0.1572 -0.9639
   55DOPE  H18R 7046   1.593   5.607   6.113  1.7597  0.1960 -0.2970
   55DOPE  H18S 7047   1.750   5.526   6.135  1.8814 -3.4154 -1.8148
   55DOPE  H18T 7048   1.609   5.438   6.179 -0.8653  2.0869  0.3481
   55DOPE   C33 7049   0.723   5.197   4.263 -0.1331 -0.1716 -0.1295
   55DOPE   H3X 7050   0.663   5.277   4.214 -0.9063 -0.0126  1.0308
   55DOPE   H3Y 7051   0.823   5.242   4.274 -1.6571  3.7168 -0.5549
   55DOPE   C34 7052   0.649   5.157   4.388 -0.2598 -0.3223 -0.4072
   55DOPE   H4X 7053   0.552   5.116   4.354 -0.9033  1.2718 -0.5969
   55DOPE   H4Y 7054   0.707   5.078   4.440  0.4314 -0.2544 -1.0512
   55DOPE   C35 7055   0.619   5.283   4.474 -0.1812  0.4777 -0.3792
   55DOPE   H5X 7056   0.543   5.249   4.549 -0.3036 -0.2208 -0.8130
   55DOPE   H5Y 7057   0.566   5.358   4.412 -2.1108  0.1752  0.7915
   55DOPE   C36 7058   0.748   5.353   4.522 -0.5045 -0.2178  0.5822
   55DOPE   H6X 7059   0.792   5.392   4.428 -0.6572 -1.4831 -0.0349
   55DOPE   H6Y 7060   0.813   5.276   4.569  0.1661  0.1007  0.1846
   55DOPE   C37 7061   0.724   5.467   4.619 -0.5262  0.4667 -0.5516
   55DOPE   H7X 7062   0.827   5.508   4.624 -0.1702 -0.4000 -0.6103
   55DOPE   H7Y 7063   0.661   5.548   4.575  0.0234  2.2584  1.7566
   55DOPE   C38 7064   0.684   5.421   4.758  0.1936  0.2352 -0.2614
   55DOPE   H8X 7065   0.763   5.356   4.802 -0.0142  0.4565  0.4502
   55DOPE   H8Y 7066   0.599   5.352   4.737 -0.3279  1.0228 -0.7850
   55DOPE   C39 7067   0.646   5.542   4.840 -0.4369  0.3781 -0.1043
   55DOPE   H9X 7068   0.614   5.629   4.781  1.3804 -0.2874 -2.1746
   55DOPE  C310 7069   0.657   5.549   4.973  0.2478  0.1397 -0.0496
   55DOPE  H10X 7070   0.619   5.643   5.017 -1.9677 -0.9053  0.4328
   55DOPE  C311 7071   0.698   5.441   5.081  0.3621  0.3428  0.4341
   55DOPE  H11X 7072   0.685   5.340   5.036 -0.5997  1.3368 -1.6798
   55DOPE  H11Y 7073   0.801   5.457   5.119 -0.3144  3.7590  1.1098
   55DOPE  C312 7074   0.619   5.447   5.213  0.2001  0.2727 -0.6227
   55DOPE  H12X 7075   0.517   5.402   5.206 -1.0763  2.6610  1.2681
   55DOPE  H12Y 7076   0.613   5.550   5.252 -0.7400  0.0812 -0.2261
   55DOPE  C313 7077   0.691   5.361   5.326  1.1250  0.5402  0.0081
   55DOPE  H13X 7078   0.681   5.254   5.299  1.7942  0.8905 -1.7053
   55DOPE  H13Y 7079   0.799   5.384   5.334  1.4458 -0.4478 -1.2195
   55DOPE  C314 7080   0.636   5.385   5.462 -0.3898  0.1746  0.2524
   55DOPE  H14X 7081   0.532   5.344   5.455  0.5705 -2.1837 -1.5436
   55DOPE  H14Y 7082   0.631   5.494   5.482 -0.4345  0.0525  0.9278
   55DOPE  C315 7083   0.716   5.317   5.568 -0.1120  0.2168 -0.7108
   55DOPE  H15X 7084   0.827   5.326   5.561  0.1194 -2.0442 -0.5614
   55DOPE  H15Y 7085   0.700   5.210   5.543 -0.9431  0.4977 -1.4702
   55DOPE  C316 7086   0.667   5.362   5.711 -0.6782 -0.5181 -0.3610
   55DOPE  H16X 7087   0.556   5.356   5.709 -0.8688  1.8277  0.3394
   55DOPE  H16Y 7088   0.689   5.467   5.742  0.9044 -0.8920 -0.1448
   55DOPE  C317 7089   0.727   5.272   5.824 -0.3183 -0.0507 -0.7598
   55DOPE  H17X 7090   0.718   5.164   5.800 -0.2305 -0.3736  0.5839
   55DOPE  H17Y 7091   0.835   5.296   5.827 -0.2865 -0.2205  1.7006
   55DOPE  C318 7092   0.643   5.306   5.952 -0.7491  0.0910  0.2323
   55DOPE  H18X 7093   0.534   5.287   5.941 -1.0126 -0.8150  3.4755
   55DOPE  H18Y 7094   0.675   5.251   6.043 -0.2581 -0.2554 -0.1450
   55DOPE  H18Z 7095   0.647   5.414   5.977  0.0648 -0.0573  0.8009
   56DOPE     N 7096   0.618   0.247   3.547  0.1167  0.0594 -0.4728
   56DOPE   HN1 7097   0.543   0.223   3.615 -0.7457 -2.1207 -2.0650
   56DOPE   HN2 7098   0.662   0.334   3.584  0.2043 -0.1704 -0.0292
   56DOPE   HN3 7099   0.566   0.277   3.462 -1.4648  0.4793  0.5892
   56DOPE   C12 7100   0.711   0.135   3.530 -0.5387  0.6579  0.2317
   56DOPE  H12A 7101   0.792   0.178   3.468 -0.0580  0.0324  0.4231
   56DOPE  H12B 7102   0.657   0.054   3.477  0.7109  0.4932 -0.8358
   56DOPE   C11 7103   0.781   0.091   3.656 -0.1226 -0.0708  0.1982
   56DOPE  H11A 7104   0.877   0.038   3.637  0.3624  0.8164  0.1276
   56DOPE  H11B 7105   0.709   0.025   3.711  0.2724 -1.5083 -0.9422
   56DOPE     P 7106   0.934   0.239   3.818  0.2248 -0.2406  0.1115
   56DOPE   O13 7107   0.919   0.364   3.893  0.6450 -0.6603 -0.1103
   56DOPE   O14 7108   1.052   0.233   3.721  0.8680 -0.3693 -0.0184
   56DOPE   O11 7109   0.960   0.112   3.905  0.1300  0.8452 -0.3920
   56DOPE   O12 7110   0.811   0.200   3.733  0.5353  0.1475 -0.0071
   56DOPE    C1 7111   0.849   0.057   3.978 -0.0538 -0.3269  0.4417
   56DOPE    HA 7112   0.861  -0.052   3.992  0.7927 -0.2959  0.0103
   56DOPE    HB 7113   0.755   0.064   3.918  0.3572  1.1644 -0.0767
   56DOPE    C2 7114   0.824   0.131   4.108  0.3659  0.0732 -0.0813
   56DOPE    HS 7115   0.804   0.234   4.072  0.8394 -0.1178 -0.9131
   56DOPE   O21 7116   0.938   0.114   4.197 -0.0907  0.3163 -0.1751
   56DOPE   C21 7117   0.937   0.198   4.300  0.4902 -0.0956  0.9222
   56DOPE   O22 7118   0.850   0.285   4.315 -0.1279 -0.0800 -0.0617
   56DOPE   C22 7119   1.053   0.170   4.392  0.6498 -0.1447  0.0837
   56DOPE   H2R 7120   1.150   0.169   4.337  0.5388 -0.7750 -0.1046
   56DOPE   H2S 7121   1.043   0.065   4.425  2.0477 -0.7370 -1.2485
   56DOPE    C3 7122   0.696   0.074   4.186 -0.4217 -0.8354  0.7440
   56DOPE    HX 7123   0.614   0.080   4.111 -0.8560 -2.5602  1.0378
   56DOPE    HY 7124   0.667   0.144   4.267  1.5738 -0.5071  1.2274
   56DOPE   O31 7125   0.696  -0.063   4.226  0.2149 -0.1958  0.2528
   56DOPE   C31 7126   0.718  -0.075   4.357 -0.3159  0.0222  0.1274
   56DOPE   O32 7127   0.734   0.009   4.442  0.0097 -0.2599  0.4584
   56DOPE   C32 7128   0.695  -0.223   4.380 -0.0170  0.3320  0.0083
   56DOPE   H2X 7129   0.590  -0.243   4.350  0.1563  1.3649 -1.3816
   56DOPE   H2Y 7130   0.753  -0.276   4.301  2.1729 -1.8594  2.8824
   56DOPE   C23 7131   1.078   0.273   4.507  0.3378 -0.2889  0.1220
   56DOPE   H3R 7132   1.085   0.368   4.450  0.4599  0.0633  0.7175
   56DOPE   H3S 7133   1.172   0.244   4.559  0.9895 -1.3006 -1.5416
   56DOPE   C24 7134   0.963   0.274   4.606  0.1678 -0.1557 -0.3235
   56DOPE   H4R 7135   0.868   0.290   4.552  0.2918 -1.0888 -0.8476
   56DOPE   H4S 7136   0.970   0.355   4.682 -0.3280 -0.6503  0.2591
   56DOPE   C25 7137   0.934   0.140   4.674 -0.1171 -0.0167  0.0972
   56DOPE   H5R 7138   1.016   0.119   4.746  0.7668  0.3766 -0.7802
   56DOPE   H5S 7139   0.928   0.065   4.592 -0.6908 -1.5409  1.4627
   56DOPE   C26 7140   0.801   0.126   4.747  0.0091  0.2513 -0.1263
   56DOPE   H6R 7141   0.778   0.018   4.748  1.2702 -0.1087 -2.3501
   56DOPE   H6S 7142   0.717   0.181   4.698  0.1207 -0.0018 -0.6037
   56DOPE   C27 7143   0.807   0.162   4.896  0.6991  0.0355  0.6943
   56DOPE   H7R 7144   0.819   0.272   4.897  0.6665  0.0368  1.0025
   56DOPE   H7S 7145   0.894   0.120   4.950  1.0866 -1.7644 -1.1811
   56DOPE   C28 7146   0.669   0.144   4.965  0.1689 -0.3117 -0.7368
   56DOPE   H8R 7147   0.588   0.181   4.899 -1.4252 -1.8125  0.2979
   56DOPE   H8S 7148   0.651   0.198   5.061 -0.0851 -1.1545 -0.2979
   56DOPE   C29 7149   0.658  -0.009   4.986  0.1100 -0.3861  0.2860
   56DOPE   H9R 7150   0.632  -0.058   4.891 -0.6297 -0.0490  0.3002
   56DOPE  C210 7151   0.658  -0.079   5.102 -0.2724  0.7866 -0.1289
   56DOPE  H10R 7152   0.670  -0.188   5.095  0.8162  0.9623 -1.4223
   56DOPE  C211 7153   0.685  -0.016   5.235 -0.6083  0.2472 -0.0968
   56DOPE  H11R 7154   0.697   0.093   5.220  1.2673 -0.3339 -3.8697
   56DOPE  H11S 7155   0.776  -0.053   5.287 -1.0304 -0.4737  0.1424
   56DOPE  C212 7156   0.571  -0.045   5.330 -0.2151  0.6164  0.0498
   56DOPE  H12R 7157   0.559  -0.155   5.344  0.1008  0.6480  0.6109
   56DOPE  H12S 7158   0.484   0.003   5.279  0.8063  0.1832 -2.2174
   56DOPE  C213 7159   0.591   0.030   5.469 -0.4566  0.2266  0.6329
   56DOPE  H13R 7160   0.601   0.135   5.434 -1.4089 -0.2722 -1.3293
   56DOPE  H13S 7161   0.684  -0.004   5.519 -1.4273 -1.0144  1.6613
   56DOPE  C214 7162   0.482   0.013   5.567  0.2378  0.1184 -0.4138
   56DOPE  H14R 7163   0.483  -0.096   5.589 -0.9903 -0.1953 -1.7165
   56DOPE  H14S 7164   0.382   0.047   5.532  0.7362  1.2546 -0.7959
   56DOPE  C215 7165   0.495   0.106   5.695 -0.1376  0.3672  0.3849
   56DOPE  H15R 7166   0.493   0.214   5.666 -1.2521  0.3378  0.2892
   56DOPE  H15S 7167   0.593   0.079   5.739  0.1187  0.0258 -0.3983
   56DOPE  C216 7168   0.388   0.086   5.797  0.2928  0.2713 -0.5146
   56DOPE  H16R 7169   0.366  -0.022   5.813  0.4755 -0.1603 -2.9128
   56DOPE  H16S 7170   0.300   0.145   5.764  0.2584 -0.0745 -1.0537
   56DOPE  C217 7171   0.431   0.145   5.929 -0.5772  0.0539  0.2472
   56DOPE  H17R 7172   0.482   0.238   5.897 -1.4864  0.2433 -0.7219
   56DOPE  H17S 7173   0.504   0.076   5.977 -0.5956  0.1949  0.4759
   56DOPE  C218 7174   0.316   0.177   6.026 -0.0939  0.1319  0.1099
   56DOPE  H18R 7175   0.273   0.089   6.079 -0.6341  0.9955  1.1446
   56DOPE  H18S 7176   0.242   0.239   5.970 -0.2846 -2.5032 -2.8617
   56DOPE  H18T 7177   0.350   0.240   6.111 -2.0228  0.7394  0.4742
   56DOPE   C33 7178   0.730  -0.276   4.514 -1.0167  0.1979  0.2157
   56DOPE   H3X 7179   0.688  -0.377   4.532  0.1980 -0.3325  0.1815
   56DOPE   H3Y 7180   0.688  -0.211   4.593  0.8865 -0.8071  2.1666
   56DOPE   C34 7181   0.885  -0.281   4.541  0.5825  0.3519  0.3975
   56DOPE   H4X 7182   0.940  -0.332   4.459  1.1950  0.7307  0.5751
   56DOPE   H4Y 7183   0.935  -0.182   4.538 -0.5891  0.9955 -3.2091
   56DOPE   C35 7184   0.903  -0.356   4.681 -0.0765 -0.4280 -0.2696
   56DOPE   H5X 7185   0.838  -0.444   4.665  0.5556 -1.0841  0.6518
   56DOPE   H5Y 7186   0.867  -0.289   4.762  0.7355 -1.2873  0.8415
   56DOPE   C36 7187   1.044  -0.393   4.707 -0.7606 -0.0139 -0.5678
   56DOPE   H6X 7188   1.112  -0.313   4.669  1.9107 -0.8444  2.0788
   56DOPE   H6Y 7189   1.077  -0.486   4.657 -0.8457 -1.3384  1.6836
   56DOPE   C37 7190   1.088  -0.419   4.858  1.0344 -0.7682  0.3545
   56DOPE   H7X 7191   1.036  -0.507   4.902  1.9845 -0.1581  2.8275
   56DOPE   H7Y 7192   1.196  -0.442   4.847  1.1915  0.7654 -1.9089
   56DOPE   C38 7193   1.076  -0.295   4.943 -0.0661  0.1290 -0.2448
   56DOPE   H8X 7194   0.968  -0.271   4.947  0.2936  2.2040 -1.5462
   56DOPE   H8Y 7195   1.128  -0.212   4.890  0.1704 -1.0217 -1.8594
   56DOPE   C39 7196   1.134  -0.331   5.071  0.2670  0.5480  0.1395
   56DOPE   H9X 7197   1.243  -0.323   5.077  0.3663 -0.0818 -0.6432
   56DOPE  C310 7198   1.071  -0.372   5.181  0.0303 -0.0607 -0.3786
   56DOPE  H10X 7199   1.131  -0.399   5.269  0.8938 -0.1677 -0.9909
   56DOPE  C311 7200   0.923  -0.380   5.194  0.8285 -0.0600 -0.0428
   56DOPE  H11X 7201   0.863  -0.287   5.182 -0.0209 -0.4209  1.1300
   56DOPE  H11Y 7202   0.873  -0.445   5.119  1.7102  1.1928 -1.7784
   56DOPE  C312 7203   0.883  -0.433   5.338  0.0637 -0.5384  0.0073
   56DOPE  H12X 7204   0.925  -0.368   5.417 -3.2583  0.1351  1.4010
   56DOPE  H12Y 7205   0.939  -0.528   5.345  1.3331  0.1077 -0.8962
   56DOPE  C313 7206   0.735  -0.455   5.376 -0.4241  0.2424 -0.3371
   56DOPE  H13X 7207   0.683  -0.364   5.341 -3.0839 -0.4371  1.5083
   56DOPE  H13Y 7208   0.684  -0.538   5.322 -1.9889  0.0148  1.3698
   56DOPE  C314 7209   0.712  -0.468   5.528 -0.3716 -0.2392  0.0191
   56DOPE  H14X 7210   0.772  -0.557   5.557 -1.5934 -1.0711  0.0683
   56DOPE  H14Y 7211   0.604  -0.486   5.548 -0.8805  0.8117 -1.6322
   56DOPE  C315 7212   0.764  -0.350   5.618  0.0139 -0.1965 -0.1153
   56DOPE  H15X 7213   0.748  -0.252   5.569 -3.8009  0.3144  1.8254
   56DOPE  H15Y 7214   0.872  -0.368   5.635  0.3359 -1.0952 -2.6605
   56DOPE  C316 7215   0.678  -0.334   5.749  0.7102  0.1887 -0.3775
   56DOPE  H16X 7216   0.578  -0.295   5.722  0.4512 -0.2197 -0.0095
   56DOPE  H16Y 7217   0.726  -0.257   5.813 -0.6105  0.8534 -0.1516
   56DOPE  C317 7218   0.664  -0.469   5.825 -0.0310 -0.0898 -1.0745
   56DOPE  H17X 7219   0.585  -0.540   5.791  0.7420 -0.1912 -2.7506
   56DOPE  H17Y 7220   0.762  -0.521   5.825 -0.6411 -1.2737 -0.5658
   56DOPE  C318 7221   0.637  -0.436   5.972  1.1455 -0.6473 -0.5665
   56DOPE  H18X 7222   0.709  -0.356   6.002  2.0118 -1.1719 -1.1904
   56DOPE  H18Y 7223   0.532  -0.403   5.986  1.4484 -0.3944  1.2984
   56DOPE  H18Z 7224   0.652  -0.521   6.042  1.1364  0.0601  0.3192
   57DOPE     N 7225   6.711   2.304   4.082  0.8356 -0.2204  0.4032
   57DOPE   HN1 7226   6.768   2.297   3.996 -0.6388  2.1555 -0.8504
   57DOPE   HN2 7227   6.655   2.215   4.080 -0.1677  0.3686  1.1561
   57DOPE   HN3 7228   6.647   2.383   4.062 -0.5593 -0.7415  2.3938
   57DOPE   C12 7229   6.794   2.310   4.205 -0.1713  0.0373 -0.0080
   57DOPE  H12A 7230   6.732   2.307   4.296  0.0067 -2.8721  0.1125
   57DOPE  H12B 7231   6.857   2.401   4.198 -1.9864  1.3311 -0.2392
   57DOPE   C11 7232   6.895   2.193   4.215 -0.1040 -0.3697  0.7808
   57DOPE  H11A 7233   6.959   2.203   4.305  2.0965 -0.4280 -0.7072
   57DOPE  H11B 7234   6.962   2.211   4.128 -1.7516 -1.1679 -0.7281
   57DOPE     P 7235   6.903   1.941   4.133  0.1775 -0.1895  0.1331
   57DOPE   O13 7236   6.990   1.994   4.032 -0.3780 -0.3476  0.4635
   57DOPE   O14 7237   6.805   1.837   4.092  0.2916 -0.6093 -0.4387
   57DOPE   O11 7238   6.996   1.878   4.244 -0.3526  0.2737  0.4799
   57DOPE   O12 7239   6.835   2.060   4.209  0.2298  0.5580  0.5285
   57DOPE    C1 7240   7.139   1.868   4.233  0.5558  0.2602  0.0391
   57DOPE    HA 7241   7.182   1.971   4.225 -2.2795  1.4966 -0.2691
   57DOPE    HB 7242   7.167   1.805   4.146  0.2949 -1.3012  1.0438
   57DOPE    C2 7243   7.196   1.780   4.349  0.5217  0.8202  0.2216
   57DOPE    HS 7244   7.285   1.718   4.323 -0.2976 -0.6540  0.8167
   57DOPE   O21 7245   7.096   1.699   4.402 -0.1902  0.2822  0.1869
   57DOPE   C21 7246   7.056   1.604   4.321  0.6174 -0.1816 -0.4755
   57DOPE   O22 7247   7.116   1.563   4.228  0.4159 -0.2188 -0.1826
   57DOPE   C22 7248   6.915   1.546   4.366 -0.4117  0.6813  0.2946
   57DOPE   H2R 7249   6.939   1.442   4.399  0.5738 -0.2660 -3.0382
   57DOPE   H2S 7250   6.844   1.546   4.281  0.4912 -1.5631 -0.5440
   57DOPE    C3 7251   7.246   1.881   4.461  1.3486 -0.4968  0.9436
   57DOPE    HX 7252   7.325   1.946   4.418 -1.6626  1.6668 -1.6929
   57DOPE    HY 7253   7.292   1.825   4.546 -0.1829 -1.1831  1.3651
   57DOPE   O31 7254   7.141   1.967   4.505 -0.1573  0.0289 -0.1231
   57DOPE   C31 7255   7.067   1.947   4.614 -0.3784 -0.0857 -0.3491
   57DOPE   O32 7256   7.081   1.860   4.697 -0.2723  0.3149 -0.4664
   57DOPE   C32 7257   6.959   2.054   4.620 -0.0533  0.3298  0.0659
   57DOPE   H2X 7258   7.012   2.151   4.623  0.7566 -0.0536 -1.2891
   57DOPE   H2Y 7259   6.903   2.059   4.525  2.3391 -1.0299 -1.5030
   57DOPE   C23 7260   6.847   1.614   4.490  0.3353  0.0387  0.2967
   57DOPE   H3R 7261   6.816   1.718   4.467 -0.9375 -0.4748 -0.3450
   57DOPE   H3S 7262   6.934   1.625   4.559  0.8314  1.1241 -0.4677
   57DOPE   C24 7263   6.732   1.537   4.537  0.0953  0.5931  0.5738
   57DOPE   H4R 7264   6.774   1.439   4.566  0.2191  0.0565 -1.2717
   57DOPE   H4S 7265   6.664   1.519   4.450  0.5448  0.2216  0.2986
   57DOPE   C25 7266   6.649   1.604   4.645 -0.5185 -0.3939 -0.1059
   57DOPE   H5R 7267   6.549   1.555   4.647 -1.4349  1.4219  0.0838
   57DOPE   H5S 7268   6.624   1.708   4.616 -0.2799 -0.6979 -1.5168
   57DOPE   C26 7269   6.715   1.606   4.787  0.7009 -0.3438  0.6979
   57DOPE   H6R 7270   6.815   1.655   4.781 -0.0361  1.1517  0.0737
   57DOPE   H6S 7271   6.722   1.503   4.827  0.5004 -1.0265 -0.9821
   57DOPE   C27 7272   6.633   1.701   4.876  0.4646 -0.7468 -0.6606
   57DOPE   H7R 7273   6.527   1.671   4.860  0.2070 -0.3675  0.2394
   57DOPE   H7S 7274   6.654   1.806   4.845 -0.1845 -0.8745 -1.5635
   57DOPE   C28 7275   6.665   1.686   5.022  0.0833  0.4546 -0.2601
   57DOPE   H8R 7276   6.774   1.700   5.040  0.1111  0.3550 -0.3472
   57DOPE   H8S 7277   6.652   1.578   5.049 -2.2697  1.0449  1.3145
   57DOPE   C29 7278   6.572   1.768   5.108  0.0027  1.1628 -0.0250
   57DOPE   H9R 7279   6.469   1.773   5.069 -0.5835 -2.5523  0.6509
   57DOPE  C210 7280   6.604   1.823   5.226 -0.5413 -0.6778  0.4456
   57DOPE  H10R 7281   6.526   1.884   5.276  0.9265  1.4230  0.3041
   57DOPE  C211 7282   6.735   1.819   5.298 -0.5546  0.1907  0.0549
   57DOPE  H11R 7283   6.802   1.868   5.225  1.1663 -1.8026  0.1982
   57DOPE  H11S 7284   6.774   1.716   5.315  0.4407  0.1113 -2.4144
   57DOPE  C212 7285   6.731   1.892   5.432  0.0297 -0.4579 -0.2017
   57DOPE  H12R 7286   6.690   1.995   5.428 -0.0277 -0.4855 -0.3061
   57DOPE  H12S 7287   6.838   1.900   5.462  0.2586  1.5353 -1.3750
   57DOPE  C213 7288   6.650   1.822   5.543  0.2303  0.8201  0.1210
   57DOPE  H13R 7289   6.686   1.717   5.549 -0.7803  0.5141  1.3778
   57DOPE  H13S 7290   6.541   1.821   5.524  0.4503 -0.6571 -1.1689
   57DOPE  C214 7291   6.683   1.889   5.678  0.1755 -0.6528  0.2407
   57DOPE  H14R 7292   6.652   1.996   5.680  0.4455 -0.5820  1.2418
   57DOPE  H14S 7293   6.794   1.899   5.679  0.2660  0.0833 -3.3188
   57DOPE  C215 7294   6.644   1.820   5.809  0.2894  0.1805 -0.1398
   57DOPE  H15R 7295   6.596   1.724   5.781 -0.7326  1.2231 -2.1610
   57DOPE  H15S 7296   6.563   1.880   5.856  2.8127  2.7583  1.2805
   57DOPE  C216 7297   6.760   1.797   5.909 -0.0878  0.5884 -0.6542
   57DOPE  H16R 7298   6.827   1.727   5.855 -1.7124 -0.1291 -1.8210
   57DOPE  H16S 7299   6.733   1.736   5.998 -0.1341  1.3742 -0.1182
   57DOPE  C217 7300   6.834   1.926   5.943 -0.0136  0.1316 -0.5878
   57DOPE  H17R 7301   6.898   1.975   5.866  2.7292  1.1076  2.1065
   57DOPE  H17S 7302   6.911   1.885   6.011 -0.8430 -2.6138 -1.1747
   57DOPE  C218 7303   6.748   2.040   5.999  0.3925 -1.1824 -0.4519
   57DOPE  H18R 7304   6.693   2.019   6.093 -2.0212  0.8301 -1.2873
   57DOPE  H18S 7305   6.671   2.073   5.926  0.9981 -0.2656 -0.6940
   57DOPE  H18T 7306   6.810   2.127   6.032  1.9231 -1.3720 -2.6029
   57DOPE   C33 7307   6.854   2.040   4.728  0.3649  0.1426 -0.5091
   57DOPE   H3X 7308   6.808   1.939   4.726  0.3233  0.1045  1.0682
   57DOPE   H3Y 7309   6.778   2.117   4.706 -0.3961 -0.4604 -0.0462
   57DOPE   C34 7310   6.910   2.074   4.866  0.5874 -0.3728 -0.3132
   57DOPE   H4X 7311   6.990   2.000   4.889  0.3929 -0.7008 -0.6918
   57DOPE   H4Y 7312   6.955   2.175   4.855  1.0645 -0.2072  2.3928
   57DOPE   C35 7313   6.809   2.081   4.983  0.0160  0.0495  0.3897
   57DOPE   H5X 7314   6.805   1.977   5.021 -0.9436 -0.4173 -0.8951
   57DOPE   H5Y 7315   6.714   2.103   4.931  0.3753 -0.1600 -0.3818
   57DOPE   C36 7316   6.842   2.176   5.104 -0.7590  0.0592 -0.1213
   57DOPE   H6X 7317   6.843   2.282   5.072  1.2639 -0.1165 -0.7388
   57DOPE   H6Y 7318   6.943   2.145   5.138 -1.1353 -1.5850 -0.3907
   57DOPE   C37 7319   6.744   2.185   5.218 -0.5920 -0.1548  0.8899
   57DOPE   H7X 7320   6.645   2.217   5.180 -1.2345  0.4006  2.9232
   57DOPE   H7Y 7321   6.734   2.085   5.266 -1.6142 -0.4580  0.0721
   57DOPE   C38 7322   6.791   2.285   5.319 -0.3646  0.3000 -0.3241
   57DOPE   H8X 7323   6.711   2.295   5.396 -1.2653 -0.8939 -1.0673
   57DOPE   H8Y 7324   6.810   2.385   5.276 -0.5759  0.4822  0.0025
   57DOPE   C39 7325   6.926   2.244   5.378 -0.5164  0.0164 -0.0727
   57DOPE   H9X 7326   7.010   2.229   5.308  0.0964 -1.0985  0.8786
   57DOPE  C310 7327   6.957   2.225   5.509 -0.4619 -0.4333  0.7567
   57DOPE  H10X 7328   7.059   2.193   5.532 -0.1533 -0.0013  0.0162
   57DOPE  C311 7329   6.861   2.238   5.624 -0.2205 -0.5562 -0.1967
   57DOPE  H11X 7330   6.756   2.215   5.594 -1.3374  3.6502 -0.1154
   57DOPE  H11Y 7331   6.885   2.163   5.703  1.1217 -0.1186 -0.1673
   57DOPE  C312 7332   6.853   2.378   5.697  0.4863  0.4409  0.3743
   57DOPE  H12X 7333   6.809   2.456   5.630 -0.0080 -1.1216 -1.2105
   57DOPE  H12Y 7334   6.955   2.393   5.737  0.8481 -1.7567  0.4021
   57DOPE  C313 7335   6.744   2.365   5.808 -0.6937 -1.1362  0.5380
   57DOPE  H13X 7336   6.649   2.332   5.761  0.6159 -1.6655 -1.9004
   57DOPE  H13Y 7337   6.777   2.290   5.883 -0.7592 -1.3884  0.3163
   57DOPE  C314 7338   6.730   2.496   5.900  0.1911 -0.5324  0.1046
   57DOPE  H14X 7339   6.715   2.591   5.844  0.9987  0.9324  2.2110
   57DOPE  H14Y 7340   6.833   2.520   5.936  0.9349 -2.5216 -0.5431
   57DOPE  C315 7341   6.620   2.472   6.008 -0.6424  0.1218 -0.1091
   57DOPE  H15X 7342   6.649   2.385   6.071 -4.0581 -0.6604  0.6119
   57DOPE  H15Y 7343   6.525   2.452   5.954 -0.6808 -2.6899  0.8235
   57DOPE  C316 7344   6.602   2.590   6.113 -0.1061  0.5339  0.0689
   57DOPE  H16X 7345   6.555   2.675   6.057  1.4649 -0.2298 -2.5953
   57DOPE  H16Y 7346   6.691   2.622   6.171 -0.4808  0.5254  0.6626
   57DOPE  C317 7347   6.498   2.563   6.215 -0.4061 -0.3149 -0.6530
   57DOPE  H17X 7348   6.397   2.544   6.171 -1.3870  1.8731  0.4888
   57DOPE  H17Y 7349   6.528   2.461   6.249  0.6720  0.0375 -0.5060
   57DOPE  C318 7350   6.493   2.655   6.338 -0.1468 -0.1369 -0.1787
   57DOPE  H18X 7351   6.446   2.751   6.308  1.6245  0.5599 -0.8644
   57DOPE  H18Y 7352   6.430   2.618   6.422 -0.2939  0.3189 -0.0907
   57DOPE  H18Z 7353   6.596   2.678   6.372  0.0343 -0.5476 -0.4357
   58DOPE     N 7354   0.382   5.659   3.970  0.5232 -0.1655  0.2720
   58DOPE   HN1 7355   0.455   5.693   3.905  0.7976 -0.0374  0.6390
   58DOPE   HN2 7356   0.430   5.618   4.053 -0.7027 -0.4187  0.8751
   58DOPE   HN3 7357   0.326   5.593   3.913 -0.0277  0.5588 -0.0359
   58DOPE   C12 7358   0.303   5.786   4.000  0.3095 -0.2286 -0.4677
   58DOPE  H12A 7359   0.369   5.846   4.066 -2.7312  1.0135  1.6871
   58DOPE  H12B 7360   0.208   5.764   4.054  0.0634  0.3753 -0.6438
   58DOPE   C11 7361   0.275   5.854   3.870 -0.6126 -0.0867 -0.5233
   58DOPE  H11A 7362   0.372   5.879   3.821 -0.0933 -1.0631 -0.0261
   58DOPE  H11B 7363   0.223   5.951   3.881  1.6978  1.6621 -3.4521
   58DOPE     P 7364   0.030   5.784   3.771  0.0510 -0.2398  0.1848
   58DOPE   O13 7365  -0.016   5.685   3.672  0.0447  0.0342  0.1061
   58DOPE   O14 7366   0.003   5.932   3.745 -0.5545  0.4168  0.1890
   58DOPE   O11 7367  -0.027   5.745   3.918  0.1835  0.3455  0.0127
   58DOPE   O12 7368   0.188   5.773   3.790 -0.0812 -0.0578 -0.7925
   58DOPE    C1 7369  -0.103   5.623   3.953  0.1112 -0.4418  0.8768
   58DOPE    HA 7370  -0.081   5.556   3.867  0.4630  3.4185 -2.3376
   58DOPE    HB 7371  -0.211   5.646   3.963 -0.2314 -1.1092 -0.8425
   58DOPE    C2 7372  -0.066   5.562   4.093  0.2963  0.7794 -0.4096
   58DOPE    HS 7373  -0.137   5.485   4.131  0.0213  1.3957  0.3759
   58DOPE   O21 7374  -0.047   5.655   4.200 -0.1332 -0.2310 -0.5147
   58DOPE   C21 7375  -0.149   5.735   4.235  0.2220  0.3508  0.3413
   58DOPE   O22 7376  -0.262   5.733   4.192  0.4515  0.0562  0.3225
   58DOPE   C22 7377  -0.105   5.802   4.365 -0.1916  0.0459 -0.0756
   58DOPE   H2R 7378  -0.003   5.847   4.360 -0.8394  1.6118 -0.0419
   58DOPE   H2S 7379  -0.121   5.730   4.447 -0.3554 -0.4471 -0.5344
   58DOPE    C3 7380   0.067   5.482   4.079 -0.7844  0.1867  0.3342
   58DOPE    HX 7381   0.145   5.554   4.045 -0.1278 -0.0640  1.2852
   58DOPE    HY 7382   0.059   5.415   3.990 -2.5036  0.8099 -0.0112
   58DOPE   O31 7383   0.101   5.417   4.204 -0.2470  0.4836  0.6030
   58DOPE   C31 7384   0.236   5.385   4.208  0.4949  0.0055  0.0721
   58DOPE   O32 7385   0.316   5.410   4.119 -0.1261  0.4154 -0.5911
   58DOPE   C32 7386   0.261   5.327   4.344  0.1667  0.3024 -0.4215
   58DOPE   H2X 7387   0.357   5.272   4.341 -0.3547 -0.6411 -0.2405
   58DOPE   H2Y 7388   0.274   5.410   4.417  0.9418 -0.4898  0.3737
   58DOPE   C23 7389  -0.198   5.927   4.387  0.4976 -1.0928  0.2180
   58DOPE   H3R 7390  -0.303   5.896   4.367 -0.3430  0.2230  2.2062
   58DOPE   H3S 7391  -0.185   6.022   4.331  1.3035 -1.3234 -0.0024
   58DOPE   C24 7392  -0.208   5.965   4.533 -0.2416 -0.6071  0.7359
   58DOPE   H4R 7393  -0.239   5.873   4.587  0.6933 -1.9012 -0.7955
   58DOPE   H4S 7394  -0.284   6.040   4.562  0.9736  0.4007  1.4051
   58DOPE   C25 7395  -0.070   6.004   4.592  0.1725 -0.1052 -0.6787
   58DOPE   H5R 7396  -0.021   6.088   4.537 -0.2604  0.1081 -0.7444
   58DOPE   H5S 7397   0.002   5.920   4.594  0.5682  0.2367 -0.1025
   58DOPE   C26 7398  -0.094   6.031   4.748 -0.0172 -0.1896  0.3824
   58DOPE   H6R 7399  -0.108   5.932   4.795 -0.7695  0.2473  1.1299
   58DOPE   H6S 7400  -0.189   6.090   4.757 -0.8514 -1.3584 -0.5184
   58DOPE   C27 7401   0.021   6.110   4.826 -0.1531  0.1990 -0.0136
   58DOPE   H7R 7402   0.009   6.221   4.825  0.4983  0.3219  1.8736
   58DOPE   H7S 7403   0.109   6.065   4.776 -0.1181 -2.5016  2.2433
   58DOPE   C28 7404   0.029   6.078   4.971 -0.2582  0.3084  1.0007
   58DOPE   H8R 7405   0.048   5.969   4.983  1.2064  0.1674 -1.8094
   58DOPE   H8S 7406  -0.075   6.098   5.004 -0.6432 -0.8064  0.5312
   58DOPE   C29 7407   0.133   6.146   5.058  0.1655 -0.6456 -0.6943
   58DOPE   H9R 7408   0.225   6.176   5.006 -0.5842  0.2502 -1.5531
   58DOPE  C210 7409   0.124   6.183   5.187 -0.7070  0.7549  0.4069
   58DOPE  H10R 7410   0.203   6.245   5.232 -1.1803  0.9707  0.9520
   58DOPE  C211 7411   0.014   6.155   5.283  0.0535 -0.4871 -0.3825
   58DOPE  H11R 7412  -0.073   6.103   5.237 -0.4997  0.1249 -0.0553
   58DOPE  H11S 7413  -0.027   6.250   5.324 -1.9149 -1.1658 -0.6676
   58DOPE  C212 7414   0.067   6.057   5.391 -0.0510  0.6272 -0.1197
   58DOPE  H12R 7415   0.144   6.107   5.454  1.2625 -3.5990  1.9957
   58DOPE  H12S 7416   0.119   5.975   5.337 -0.4290 -0.6783  1.4102
   58DOPE  C213 7417  -0.054   5.996   5.471 -0.0392  0.2701  0.4325
   58DOPE  H13R 7418  -0.128   5.944   5.407  1.6170  1.0620 -2.3046
   58DOPE  H13S 7419  -0.112   6.084   5.506 -1.6414 -0.4491 -0.3295
   58DOPE  C214 7420  -0.009   5.909   5.590 -0.1658  0.2559  0.6370
   58DOPE  H14R 7421   0.096   5.875   5.572 -0.4463 -1.1100  1.4052
   58DOPE  H14S 7422  -0.069   5.816   5.590  0.6428 -0.3640 -2.3789
   58DOPE  C215 7423  -0.019   5.963   5.731 -0.9150 -0.3798  0.7484
   58DOPE  H15R 7424  -0.125   5.983   5.756 -0.5563  1.6332  0.8295
   58DOPE  H15S 7425   0.031   6.062   5.726  0.9044 -1.2931 -0.4337
   58DOPE  C216 7426   0.053   5.889   5.845  1.1728 -0.4379  0.5781
   58DOPE  H16R 7427   0.156   5.859   5.818  1.2836  2.1931 -2.4336
   58DOPE  H16S 7428  -0.014   5.801   5.859  0.2409 -0.0479 -1.2133
   58DOPE  C217 7429   0.052   5.951   5.979 -0.0495  0.1412 -0.1877
   58DOPE  H17R 7430  -0.054   5.964   6.012  0.0240  0.4978 -0.0846
   58DOPE  H17S 7431   0.095   6.053   5.964 -0.3228  0.2744 -0.0863
   58DOPE  C218 7432   0.121   5.886   6.099 -0.6852  0.6087  0.5364
   58DOPE  H18R 7433   0.228   5.864   6.077 -0.6024 -1.1318  2.4105
   58DOPE  H18S 7434   0.083   5.782   6.107  1.8161 -0.4403 -0.0705
   58DOPE  H18T 7435   0.105   5.952   6.187 -0.5962  0.9043  0.3334
   58DOPE   C33 7436   0.150   5.244   4.408  0.0452 -0.0767 -0.4139
   58DOPE   H3X 7437   0.143   5.157   4.340  0.1421  2.0089 -3.2645
   58DOPE   H3Y 7438   0.056   5.304   4.403 -0.4469 -0.5966  1.5974
   58DOPE   C34 7439   0.183   5.197   4.542 -0.5822  0.3701 -0.1644
   58DOPE   H4X 7440   0.151   5.092   4.557  4.2664 -1.0571  2.4026
   58DOPE   H4Y 7441   0.293   5.192   4.561 -1.1864  0.5301  4.7787
   58DOPE   C35 7442   0.129   5.290   4.649 -0.1168  0.2121  0.1039
   58DOPE   H5X 7443   0.021   5.266   4.657 -0.0080 -1.5193 -2.3956
   58DOPE   H5Y 7444   0.142   5.396   4.620 -0.4450  0.3393  0.4130
   58DOPE   C36 7445   0.196   5.270   4.788 -0.3137 -0.3648  0.2630
   58DOPE   H6X 7446   0.149   5.353   4.845  0.7137 -0.6336  1.5312
   58DOPE   H6Y 7447   0.304   5.289   4.802 -0.2545 -1.5719  1.7424
   58DOPE   C37 7448   0.151   5.143   4.866 -0.2931  0.1318  0.3377
   58DOPE   H7X 7449   0.048   5.117   4.832  0.1994 -1.3311 -0.1002
   58DOPE   H7Y 7450   0.207   5.055   4.826 -1.6560 -1.3515  1.5345
   58DOPE   C38 7451   0.163   5.152   5.019  0.3601  0.8138 -0.3273
   58DOPE   H8X 7452   0.260   5.199   5.045  1.8249 -1.5018 -1.3264
   58DOPE   H8Y 7453   0.160   5.046   5.053  2.7802  1.8681  3.7534
   58DOPE   C39 7454   0.054   5.250   5.069 -0.7176  0.1743 -0.0117
   58DOPE   H9X 7455   0.065   5.353   5.031  3.7219 -0.5029 -1.2376
   58DOPE  C310 7456  -0.036   5.233   5.166 -0.6932 -0.3917 -0.1641
   58DOPE  H10X 7457  -0.109   5.313   5.183 -0.4274 -0.2422  0.2634
   58DOPE  C311 7458  -0.037   5.118   5.265  0.0572  0.4493  0.3745
   58DOPE  H11X 7459  -0.142   5.083   5.277  0.0694 -1.1629 -3.0605
   58DOPE  H11Y 7460   0.015   5.028   5.226 -2.2834  0.2704 -2.7556
   58DOPE  C312 7461   0.020   5.162   5.399  0.1531  0.4247 -0.5480
   58DOPE  H12X 7462  -0.009   5.266   5.422 -2.1258  0.1102 -1.6815
   58DOPE  H12Y 7463   0.129   5.147   5.385  0.3904  2.8902 -1.7332
   58DOPE  C313 7464  -0.010   5.073   5.527 -0.8760 -0.4040 -0.5948
   58DOPE  H13X 7465   0.069   5.092   5.603 -0.5311  2.3666 -1.5349
   58DOPE  H13Y 7466  -0.109   5.103   5.569 -0.3383 -0.9083  1.0953
   58DOPE  C314 7467  -0.011   4.915   5.510  0.2355 -0.6598 -0.1703
   58DOPE  H14X 7468   0.095   4.886   5.497 -0.1959 -2.2730 -0.3382
   58DOPE  H14Y 7469  -0.052   4.875   5.414 -0.5415  0.2800 -0.2466
   58DOPE  C315 7470  -0.053   4.837   5.638 -0.1195 -0.0851  0.0484
   58DOPE  H15X 7471  -0.156   4.856   5.674  0.2456  1.9648  0.1718
   58DOPE  H15Y 7472   0.013   4.870   5.721  0.4846 -1.6848  0.2395
   58DOPE  C316 7473  -0.038   4.686   5.629  0.0506  0.1432 -0.2120
   58DOPE  H16X 7474   0.062   4.654   5.592 -0.4127 -2.4850  0.6041
   58DOPE  H16Y 7475  -0.108   4.650   5.550 -2.2773 -1.9551  2.6163
   58DOPE  C317 7476  -0.067   4.613   5.761 -0.5092 -0.3992  0.4248
   58DOPE  H17X 7477  -0.036   4.506   5.753 -1.8423 -0.6897 -1.5951
   58DOPE  H17Y 7478  -0.001   4.651   5.842  0.5220 -0.2931 -0.4580
   58DOPE  C318 7479  -0.217   4.629   5.796 -0.5257  0.0978  0.6311
   58DOPE  H18X 7480  -0.233   4.577   5.893 -0.9136  1.6508  1.4434
   58DOPE  H18Y 7481  -0.253   4.731   5.821 -2.2747 -0.8623  2.4072
   58DOPE  H18Z 7482  -0.284   4.572   5.728  0.3452 -2.9913  2.1928
   59DOPE     N 7483   5.893   0.481   3.745 -0.6735 -0.1085  0.4212
   59DOPE   HN1 7484   5.894   0.378   3.760  3.5511 -0.1263  1.0219
   59DOPE   HN2 7485   5.827   0.520   3.815  0.5026  1.1571  0.8497
   59DOPE   HN3 7486   5.859   0.504   3.649  1.5684 -0.7835 -0.5999
   59DOPE   C12 7487   6.039   0.526   3.767 -0.4194  0.2172 -0.1038
   59DOPE  H12A 7488   6.052   0.553   3.874  1.7530  1.7876 -0.6879
   59DOPE  H12B 7489   6.050   0.620   3.709  0.5722  1.3946  1.8887
   59DOPE   C11 7490   6.136   0.423   3.707  0.4585 -0.5087 -0.7215
   59DOPE  H11A 7491   6.240   0.457   3.723  1.0184 -0.2579 -4.2587
   59DOPE  H11B 7492   6.119   0.425   3.598 -2.1292 -0.5580 -0.3899
   59DOPE     P 7493   6.203   0.245   3.881 -0.4336  0.1663  0.4117
   59DOPE   O13 7494   6.299   0.155   3.812 -0.1170 -0.4624  0.4872
   59DOPE   O14 7495   6.129   0.190   3.997  0.3120  0.2035  0.4974
   59DOPE   O11 7496   6.268   0.374   3.940 -0.0495  0.7676 -0.5693
   59DOPE   O12 7497   6.100   0.300   3.772  0.3484 -0.1359  0.2905
   59DOPE    C1 7498   6.386   0.373   4.028 -0.2085  0.1341  0.0156
   59DOPE    HA 7499   6.480   0.349   3.974 -0.8126  0.1645 -1.0785
   59DOPE    HB 7500   6.372   0.306   4.116 -0.8898 -0.8259 -0.8086
   59DOPE    C2 7501   6.413   0.521   4.079 -0.0792  0.2207  0.3602
   59DOPE    HS 7502   6.437   0.584   3.990  3.3947  0.0377  1.0108
   59DOPE   O21 7503   6.534   0.510   4.150  0.2629  0.4292 -0.3957
   59DOPE   C21 7504   6.591   0.625   4.183 -0.5576 -0.4831 -0.1753
   59DOPE   O22 7505   6.576   0.734   4.132  0.1186  0.7146  0.0959
   59DOPE   C22 7506   6.699   0.590   4.286 -0.0872 -0.1234 -0.6182
   59DOPE   H2R 7507   6.797   0.569   4.238 -0.1938 -1.1073 -0.4223
   59DOPE   H2S 7508   6.664   0.496   4.333 -0.9128  0.3044 -0.3415
   59DOPE    C3 7509   6.294   0.584   4.156  1.0317 -0.2230 -0.5257
   59DOPE    HX 7510   6.200   0.585   4.097  0.6817  2.1945 -0.0351
   59DOPE    HY 7511   6.325   0.691   4.165  2.9195 -0.8621  1.3044
   59DOPE   O31 7512   6.274   0.527   4.295  0.4692 -0.5556  0.0240
   59DOPE   C31 7513   6.179   0.453   4.327  0.4083 -0.1009 -0.8521
   59DOPE   O32 7514   6.079   0.440   4.253  0.3888 -0.0176 -0.0089
   59DOPE   C32 7515   6.200   0.397   4.468  0.4719 -0.3293  0.0035
   59DOPE   H2X 7516   6.162   0.293   4.452  1.2423 -0.6218  0.0211
   59DOPE   H2Y 7517   6.307   0.398   4.497  0.0619 -1.3611  1.7019
   59DOPE   C23 7518   6.711   0.700   4.394 -0.6795  0.5091  0.3847
   59DOPE   H3R 7519   6.715   0.802   4.351 -0.6444  0.0835 -0.6484
   59DOPE   H3S 7520   6.808   0.694   4.447 -0.7790  3.2893  1.0012
   59DOPE   C24 7521   6.598   0.688   4.497  1.0054  0.5224  0.3487
   59DOPE   H4R 7522   6.606   0.582   4.531 -1.8003 -0.4573 -1.7053
   59DOPE   H4S 7523   6.506   0.712   4.441  1.4499 -0.5469 -0.9002
   59DOPE   C25 7524   6.601   0.787   4.614 -0.3950  0.2244 -0.5316
   59DOPE   H5R 7525   6.578   0.889   4.577 -1.4810 -0.0929 -0.7529
   59DOPE   H5S 7526   6.708   0.785   4.644 -0.2652  0.7276 -0.9422
   59DOPE   C26 7527   6.508   0.769   4.728  0.6799  0.4681  0.2041
   59DOPE   H6R 7528   6.536   0.682   4.791  1.7945  1.9095  1.8050
   59DOPE   H6S 7529   6.404   0.757   4.692  1.1848 -0.8828 -0.8850
   59DOPE   C27 7530   6.508   0.882   4.841 -0.0840  0.3661  0.2757
   59DOPE   H7R 7531   6.528   0.976   4.785  1.5996  0.7722  1.4862
   59DOPE   H7S 7532   6.597   0.872   4.906 -1.0069  0.4374  1.6017
   59DOPE   C28 7533   6.387   0.886   4.934  0.2673 -0.2649  0.1231
   59DOPE   H8R 7534   6.290   0.880   4.880 -0.9916 -2.1201  2.3856
   59DOPE   H8S 7535   6.375   0.986   4.982  1.6950  1.4682 -2.8301
   59DOPE   C29 7536   6.396   0.778   5.038 -0.1023  0.1957  0.1167
   59DOPE   H9R 7537   6.382   0.679   4.992  1.2860 -0.1504  0.3926
   59DOPE  C210 7538   6.422   0.793   5.172  0.2757  0.1356  0.0714
   59DOPE  H10R 7539   6.440   0.703   5.232 -0.6465 -1.4081 -1.8601
   59DOPE  C211 7540   6.452   0.930   5.238  0.0084  0.7475 -0.3648
   59DOPE  H11R 7541   6.393   1.016   5.200  0.0884  1.3144  0.7553
   59DOPE  H11S 7542   6.561   0.952   5.229  0.1980 -0.1384 -0.3721
   59DOPE  C212 7543   6.412   0.924   5.390  0.3665  0.0738  0.7405
   59DOPE  H12R 7544   6.301   0.922   5.401  0.2798  0.2719 -0.0397
   59DOPE  H12S 7545   6.438   1.017   5.445  1.2921 -0.6831  1.6170
   59DOPE  C213 7546   6.483   0.818   5.472 -0.0066 -0.2105 -0.6546
   59DOPE  H13R 7547   6.593   0.810   5.459 -0.1249 -0.0527 -1.8055
   59DOPE  H13S 7548   6.438   0.720   5.445 -1.6371  0.6086 -0.9785
   59DOPE  C214 7549   6.458   0.845   5.626 -0.0608  0.5698  0.4301
   59DOPE  H14R 7550   6.497   0.947   5.643  2.2657 -0.1889  0.0340
   59DOPE  H14S 7551   6.514   0.766   5.681  0.1399  0.8329  0.6092
   59DOPE  C215 7552   6.308   0.840   5.673  0.1158  0.0200  0.2888
   59DOPE  H15R 7553   6.253   0.748   5.644  1.7666 -0.7560 -0.5312
   59DOPE  H15S 7554   6.250   0.922   5.626 -1.8507 -0.3395  1.9422
   59DOPE  C216 7555   6.288   0.871   5.823  0.7301 -0.1368  0.1935
   59DOPE  H16R 7556   6.336   0.784   5.874 -0.0934  0.9987  3.0784
   59DOPE  H16S 7557   6.182   0.879   5.855  0.4192 -0.7726 -0.6423
   59DOPE  C217 7558   6.356   0.999   5.876  0.2676  0.0301  0.0660
   59DOPE  H17R 7559   6.319   1.080   5.811 -0.3142 -0.2071  0.0956
   59DOPE  H17S 7560   6.466   0.990   5.858  0.2401 -1.6716  0.5248
   59DOPE  C218 7561   6.330   1.031   6.025 -0.4192  0.2802  0.0969
   59DOPE  H18R 7562   6.325   0.949   6.100 -2.7671 -0.2908 -0.6023
   59DOPE  H18S 7563   6.231   1.079   6.039 -0.4506  0.6503 -1.2254
   59DOPE  H18T 7564   6.406   1.103   6.063 -2.8228  2.9765  0.1790
   59DOPE   C33 7565   6.110   0.465   4.573  0.7918  0.1957  0.5875
   59DOPE   H3X 7566   6.109   0.391   4.657 -3.2103 -0.5251  0.0869
   59DOPE   H3Y 7567   6.003   0.466   4.543  1.0518  0.8333 -0.3382
   59DOPE   C34 7568   6.130   0.613   4.607 -0.0187  0.1847  0.2450
   59DOPE   H4X 7569   6.232   0.606   4.649 -0.6019 -0.9234  1.5541
   59DOPE   H4Y 7570   6.132   0.679   4.517  3.2395 -1.0610 -0.7251
   59DOPE   C35 7571   6.033   0.659   4.714  0.0771  0.7260 -0.1433
   59DOPE   H5X 7572   5.929   0.626   4.694  1.0060 -1.0606 -2.5698
   59DOPE   H5Y 7573   6.043   0.769   4.723  1.3010  0.4929  1.8996
   59DOPE   C36 7574   6.065   0.609   4.859 -0.1898  0.9555 -0.0569
   59DOPE   H6X 7575   6.173   0.607   4.886 -0.4075 -0.0494  0.8264
   59DOPE   H6Y 7576   6.047   0.499   4.864  3.0024  0.3591  0.5978
   59DOPE   C37 7577   5.986   0.689   4.969  0.1992  0.4784 -0.2241
   59DOPE   H7X 7578   6.016   0.795   4.961  5.2757 -0.6809 -0.2248
   59DOPE   H7Y 7579   5.879   0.693   4.939 -0.2689  1.0454  1.4482
   59DOPE   C38 7580   5.991   0.626   5.105  1.0193 -0.8969  0.1626
   59DOPE   H8X 7581   6.001   0.516   5.096 -0.6426 -1.1701  1.1500
   59DOPE   H8Y 7582   5.891   0.637   5.152  0.6375  0.7455 -0.9367
   59DOPE   C39 7583   6.083   0.692   5.208 -1.1901 -0.2611  0.3123
   59DOPE   H9X 7584   6.150   0.764   5.159 -2.3017  0.5377 -0.1055
   59DOPE  C310 7585   6.097   0.657   5.334 -0.2643 -0.3055 -1.0293
   59DOPE  H10X 7586   6.157   0.718   5.403 -0.0053 -1.7349  0.0672
   59DOPE  C311 7587   6.019   0.545   5.405 -0.6163 -0.0313 -0.2264
   59DOPE  H11X 7588   5.921   0.530   5.356  0.2383 -1.0328 -1.7457
   59DOPE  H11Y 7589   6.074   0.456   5.369  2.8174  0.4344  3.1562
   59DOPE  C312 7590   6.017   0.537   5.561 -1.0188 -0.2423 -0.1838
   59DOPE  H12X 7591   6.118   0.533   5.606 -1.4417 -0.4884  0.7762
   59DOPE  H12Y 7592   5.962   0.444   5.587  0.2968 -1.0067 -0.0699
   59DOPE  C313 7593   5.951   0.653   5.630 -0.2332 -0.0432  0.3485
   59DOPE  H13X 7594   6.001   0.745   5.592 -0.8568  0.5217  0.8666
   59DOPE  H13Y 7595   5.845   0.661   5.597  0.0706  1.6924 -0.3151
   59DOPE  C314 7596   5.935   0.649   5.784 -0.0100  0.0088  0.2457
   59DOPE  H14X 7597   5.908   0.750   5.819 -1.0704 -0.0385 -0.3963
   59DOPE  H14Y 7598   6.039   0.627   5.818 -0.1222 -1.3894 -0.2228
   59DOPE  C315 7599   5.826   0.552   5.820  0.1889 -0.5083 -0.1101
   59DOPE  H15X 7600   5.860   0.452   5.788  3.4202  0.4904 -0.1392
   59DOPE  H15Y 7601   5.736   0.568   5.757  0.2629 -1.0248 -0.3515
   59DOPE  C316 7602   5.783   0.547   5.966  0.7634  0.2932  0.4717
   59DOPE  H16X 7603   5.697   0.478   5.975  1.4975 -0.6077  0.7439
   59DOPE  H16Y 7604   5.750   0.648   6.000 -0.6576  0.1889 -0.5216
   59DOPE  C317 7605   5.897   0.502   6.056 -0.0262  0.1523  0.3328
   59DOPE  H17X 7606   5.987   0.567   6.049  0.9584 -0.7016  3.6245
   59DOPE  H17Y 7607   5.862   0.507   6.161  1.8792  1.0697  0.9784
   59DOPE  C318 7608   5.934   0.359   6.054 -0.0924 -0.7111  0.0896
   59DOPE  H18X 7609   5.947   0.318   6.156 -1.0362 -1.2285  0.0197
   59DOPE  H18Y 7610   5.856   0.296   6.006  1.2143 -1.4850 -1.0737
   59DOPE  H18Z 7611   6.032   0.347   6.003  0.6276 -0.0296  1.2740
   60DOPE     N 7612   1.209   6.213   4.305 -0.3838 -0.0752  0.0327
   60DOPE   HN1 7613   1.260   6.292   4.262  0.9153 -0.3161  1.0574
   60DOPE   HN2 7614   1.283   6.155   4.350 -0.0166  0.0056 -0.4643
   60DOPE   HN3 7615   1.161   6.155   4.233  1.7021  1.2719 -2.5924
   60DOPE   C12 7616   1.115   6.276   4.411 -0.7520  0.1387  0.3707
   60DOPE  H12A 7617   1.119   6.386   4.399  1.2270  0.1210  0.5726
   60DOPE  H12B 7618   1.161   6.248   4.508 -0.4563 -0.6373  0.0111
   60DOPE   C11 7619   0.974   6.233   4.396 -0.1944 -0.4174  0.8532
   60DOPE  H11A 7620   0.913   6.257   4.485  1.2424 -0.4185  1.8859
   60DOPE  H11B 7621   0.968   6.122   4.402  0.4100 -0.4155  1.6748
   60DOPE     P 7622   0.898   6.196   4.133 -0.1981 -0.0936 -0.1093
   60DOPE   O13 7623   1.033   6.150   4.104 -0.9149  0.2474  0.0093
   60DOPE   O14 7624   0.827   6.280   4.029 -0.4678  0.0158  0.0200
   60DOPE   O11 7625   0.809   6.074   4.162  0.2058  0.2859  0.8073
   60DOPE   O12 7626   0.913   6.278   4.267 -0.3531 -0.1841 -0.7519
   60DOPE    C1 7627   0.699   6.082   4.254  0.2866 -0.6292 -0.2678
   60DOPE    HA 7628   0.620   6.157   4.231  1.2297  0.8416  1.0161
   60DOPE    HB 7629   0.731   6.125   4.351  0.6995  0.4269 -0.8546
   60DOPE    C2 7630   0.642   5.946   4.292  0.2212 -0.7514 -0.5259
   60DOPE    HS 7631   0.627   5.898   4.193 -1.1336 -0.0884 -0.6648
   60DOPE   O21 7632   0.513   5.967   4.358  0.0080  0.1820 -0.2363
   60DOPE   C21 7633   0.433   5.867   4.376 -0.5175 -0.0839 -0.4617
   60DOPE   O22 7634   0.418   5.771   4.303 -0.5690  0.4853  0.1150
   60DOPE   C22 7635   0.345   5.906   4.493 -0.0594  0.4252  0.8046
   60DOPE   H2R 7636   0.278   5.983   4.449 -0.5184 -1.2320 -1.5387
   60DOPE   H2S 7637   0.400   5.961   4.573 -1.0161  0.5058  1.4165
   60DOPE    C3 7638   0.750   5.858   4.364 -0.2599  0.0977  0.9520
   60DOPE    HX 7639   0.836   5.849   4.295 -0.9488  0.5266  0.0116
   60DOPE    HY 7640   0.711   5.754   4.377 -1.1981  0.1832 -0.7941
   60DOPE   O31 7641   0.791   5.912   4.487  0.3037  0.5119  0.0089
   60DOPE   C31 7642   0.708   5.886   4.593 -0.5386  0.8042  0.2420
   60DOPE   O32 7643   0.610   5.820   4.593  1.1978  0.1010  0.0430
   60DOPE   C32 7644   0.761   5.963   4.719 -0.3555  0.8673  0.0034
   60DOPE   H2X 7645   0.833   5.891   4.762 -1.1098 -0.0089 -0.1697
   60DOPE   H2Y 7646   0.814   6.056   4.687  0.0306  0.0209 -1.9503
   60DOPE   C23 7647   0.267   5.803   4.569 -0.0144  0.0238 -0.2784
   60DOPE   H3R 7648   0.313   5.702   4.570  0.4681  0.1558  3.2099
   60DOPE   H3S 7649   0.169   5.773   4.528 -0.8045 -1.4409  2.4450
   60DOPE   C24 7650   0.281   5.830   4.721 -0.0696 -0.0638  0.3741
   60DOPE   H4R 7651   0.257   5.936   4.744  0.3726  0.3841 -1.1204
   60DOPE   H4S 7652   0.389   5.830   4.746  0.3167  2.1495 -1.0284
   60DOPE   C25 7653   0.209   5.736   4.815  0.2396 -0.0242 -0.9469
   60DOPE   H5R 7654   0.229   5.635   4.774  0.1765 -0.1696 -0.6239
   60DOPE   H5S 7655   0.098   5.740   4.803 -0.1483 -0.6642  1.6356
   60DOPE   C26 7656   0.256   5.757   4.962 -0.2174 -0.4739 -0.8855
   60DOPE   H6R 7657   0.251   5.863   4.993  0.7641 -0.0521 -2.0925
   60DOPE   H6S 7658   0.364   5.735   4.972 -0.5394 -2.2720 -1.0136
   60DOPE   C27 7659   0.188   5.655   5.058 -0.0836  0.5663  0.2676
   60DOPE   H7R 7660   0.163   5.562   5.003 -0.2555 -0.1775  1.5466
   60DOPE   H7S 7661   0.097   5.706   5.097  0.3806  0.4622  1.5415
   60DOPE   C28 7662   0.273   5.623   5.185 -0.2079  0.2135 -0.2388
   60DOPE   H8R 7663   0.266   5.722   5.236  0.8726  0.1875 -0.0337
   60DOPE   H8S 7664   0.380   5.605   5.166 -0.5314  0.1804 -2.2446
   60DOPE   C29 7665   0.226   5.502   5.256 -0.7807 -0.6103  0.0429
   60DOPE   H9R 7666   0.240   5.409   5.198  0.1155 -0.7675  0.4909
   60DOPE  C210 7667   0.179   5.490   5.379  0.7387 -0.1756  0.7360
   60DOPE  H10R 7668   0.142   5.396   5.420  1.0585 -1.2795 -1.3712
   60DOPE  C211 7669   0.159   5.610   5.474 -0.0627  0.9631  0.3772
   60DOPE  H11R 7670   0.063   5.660   5.449 -0.3764 -0.1095 -0.6681
   60DOPE  H11S 7671   0.244   5.681   5.469  1.6765 -0.9114  1.7562
   60DOPE  C212 7672   0.176   5.587   5.624 -0.3161 -0.6222  0.6579
   60DOPE  H12R 7673   0.181   5.684   5.678  1.8427  0.8330 -1.9238
   60DOPE  H12S 7674   0.277   5.548   5.649 -0.0261  1.0334  2.2959
   60DOPE  C213 7675   0.059   5.503   5.674 -0.2216  0.2321  0.1657
   60DOPE  H13R 7676  -0.020   5.484   5.599  0.1849 -1.7324  0.1903
   60DOPE  H13S 7677   0.017   5.561   5.759  1.2984 -1.4043  2.1341
   60DOPE  C214 7678   0.099   5.364   5.725  0.6351 -0.5285  0.2630
   60DOPE  H14R 7679   0.191   5.362   5.788  1.7115 -0.2097 -1.2320
   60DOPE  H14S 7680   0.121   5.298   5.638  0.1393  0.0409 -0.3096
   60DOPE  C215 7681  -0.012   5.308   5.814 -0.2528  0.4200  0.1553
   60DOPE  H15R 7682  -0.089   5.255   5.754  2.9976  0.5201 -4.6628
   60DOPE  H15S 7683  -0.061   5.392   5.869 -1.6921  0.9057 -1.7436
   60DOPE  C216 7684   0.060   5.214   5.914 -0.0692 -0.3957  0.2542
   60DOPE  H16R 7685   0.119   5.274   5.986  0.7256  1.0029 -1.5032
   60DOPE  H16S 7686   0.138   5.152   5.866  0.8397  0.8547  0.0942
   60DOPE  C217 7687  -0.035   5.122   5.995  0.0585 -0.0350  0.9047
   60DOPE  H17R 7688   0.025   5.044   6.047 -1.1634 -0.4203  1.7709
   60DOPE  H17S 7689  -0.104   5.072   5.923 -0.2132 -0.4434  1.4392
   60DOPE  C218 7690  -0.115   5.200   6.101 -0.6086 -0.6712 -0.4285
   60DOPE  H18R 7691  -0.047   5.277   6.143  0.9502 -1.5764 -1.1695
   60DOPE  H18S 7692  -0.151   5.141   6.187 -0.7168 -1.4926 -1.0251
   60DOPE  H18T 7693  -0.197   5.253   6.048  0.1331 -0.1940 -1.1202
   60DOPE   C33 7694   0.640   6.002   4.802  0.9587  0.3938  0.0184
   60DOPE   H3X 7695   0.584   5.909   4.824  3.4271 -1.1183  0.2918
   60DOPE   H3Y 7696   0.575   6.072   4.745  0.6535 -0.3796 -0.6002
   60DOPE   C34 7697   0.674   6.064   4.936 -0.1503  0.7039 -0.3525
   60DOPE   H4X 7698   0.759   6.000   4.969  1.7383  1.5192 -3.3197
   60DOPE   H4Y 7699   0.722   6.163   4.923 -0.4479  0.5823 -2.8555
   60DOPE   C35 7700   0.555   6.066   5.035  0.1418  0.4307  0.3614
   60DOPE   H5X 7701   0.462   6.068   4.974  1.7658 -1.8175 -2.4547
   60DOPE   H5Y 7702   0.567   6.163   5.088  1.5890  1.1022 -1.0853
   60DOPE   C36 7703   0.568   5.946   5.131 -0.1509  0.9144 -0.6030
   60DOPE   H6X 7704   0.672   5.944   5.169 -1.1238 -0.4275  2.2430
   60DOPE   H6Y 7705   0.542   5.855   5.072 -4.8051  0.6291  1.5030
   60DOPE   C37 7706   0.473   5.960   5.254 -0.0557  0.4383  0.2997
   60DOPE   H7X 7707   0.374   5.996   5.217 -0.3698  0.1113  0.8028
   60DOPE   H7Y 7708   0.450   5.869   5.313 -0.7120  1.6034  1.9326
   60DOPE   C38 7709   0.527   6.059   5.361  0.0058  0.8223 -0.1011
   60DOPE   H8X 7710   0.544   6.154   5.306 -1.3921 -0.1419 -2.3427
   60DOPE   H8Y 7711   0.621   6.022   5.406 -0.0314 -0.3195 -0.9240
   60DOPE   C39 7712   0.419   6.088   5.463 -0.3704 -0.3334 -0.4730
   60DOPE   H9X 7713   0.349   6.163   5.425 -1.8350 -0.8004  1.1961
   60DOPE  C310 7714   0.388   6.021   5.571 -0.6128 -0.4647 -0.3228
   60DOPE  H10X 7715   0.308   6.066   5.632  0.8466  0.6984  0.8233
   60DOPE  C311 7716   0.467   5.908   5.637  0.0204 -0.0098 -0.5464
   60DOPE  H11X 7717   0.396   5.827   5.664 -0.1559  0.2176 -0.3140
   60DOPE  H11Y 7718   0.533   5.854   5.566 -2.2047 -1.7759 -1.4044
   60DOPE  C312 7719   0.541   5.941   5.764  0.3404  0.0879 -0.1787
   60DOPE  H12X 7720   0.486   6.012   5.829 -1.3371 -0.9353 -0.4211
   60DOPE  H12Y 7721   0.627   6.000   5.726  0.6054  0.5852  1.1514
   60DOPE  C313 7722   0.578   5.817   5.849 -0.3326  0.0492 -0.0072
   60DOPE  H13X 7723   0.508   5.739   5.811 -1.4965  1.8351 -1.7135
   60DOPE  H13Y 7724   0.684   5.789   5.831 -0.8492 -1.5328 -0.6887
   60DOPE  C314 7725   0.553   5.835   6.003 -0.5671 -0.5637  0.4028
   60DOPE  H14X 7726   0.461   5.896   6.011  0.6589  1.8853 -2.2370
   60DOPE  H14Y 7727   0.642   5.890   6.040 -2.0393  3.1785 -1.1742
   60DOPE  C315 7728   0.536   5.697   6.079  1.1878 -0.2275  0.6033
   60DOPE  H15X 7729   0.524   5.724   6.186 -1.0445  1.7952 -0.0568
   60DOPE  H15Y 7730   0.630   5.640   6.066  0.2521 -1.6150 -0.3478
   60DOPE  C316 7731   0.413   5.615   6.021  0.0933  0.2518 -0.2662
   60DOPE  H16X 7732   0.439   5.579   5.919 -2.9813 -0.0374 -1.0392
   60DOPE  H16Y 7733   0.325   5.682   6.017 -0.3680  0.0338  3.1216
   60DOPE  C317 7734   0.382   5.491   6.104 -0.1772 -0.1209  0.2834
   60DOPE  H17X 7735   0.336   5.413   6.040 -0.8482 -0.4509  1.1504
   60DOPE  H17Y 7736   0.487   5.465   6.131 -0.2488  0.9560  1.7153
   60DOPE  C318 7737   0.294   5.515   6.229 -0.2476 -0.1364  1.0389
   60DOPE  H18X 7738   0.196   5.563   6.209 -0.2353 -0.4471  0.1695
   60DOPE  H18Y 7739   0.280   5.411   6.266 -0.9395 -1.3062 -2.1390
   60DOPE  H18Z 7740   0.352   5.572   6.304  0.2988  0.4217  0.2128
   6123SM     N 7741   3.678   3.752   8.522 -0.1421  0.4447 -0.3925
   6123SM   C15 7742   3.701   3.606   8.554  0.2895 -0.1320  0.4151
   6123SM  H15A 7743   3.607   3.557   8.571 -0.7738  0.9360 -1.9493
   6123SM  H15B 7744   3.751   3.584   8.648  0.7850  1.8388  0.6574
   6123SM  H15C 7745   3.758   3.562   8.473 -0.2926 -0.6544  0.2882
   6123SM   C14 7746   3.593   3.819   8.622  0.4721 -0.1358  0.0898
   6123SM  H14A 7747   3.576   3.922   8.595  0.9888 -0.0670  0.0318
   6123SM  H14B 7748   3.629   3.811   8.724 -0.3352 -1.4880  0.2975
   6123SM  H14C 7749   3.494   3.774   8.622 -0.0523  0.9754 -0.3631
   6123SM   C13 7750   3.803   3.827   8.515  0.4761 -0.0245 -0.9484
   6123SM  H13A 7751   3.835   3.836   8.618  0.8463  0.6111 -1.1093
   6123SM  H13B 7752   3.786   3.926   8.474 -0.5213 -0.6651 -2.1476
   6123SM  H13C 7753   3.875   3.783   8.447 -0.1048 -1.8675 -0.4327
   6123SM   C12 7754   3.613   3.762   8.385 -0.1894 -0.6309  0.5726
   6123SM  H12A 7755   3.677   3.695   8.329  0.1770 -1.2183  1.6565
   6123SM  H12B 7756   3.634   3.865   8.359  1.6490 -1.1307 -0.1348
   6123SM   C11 7757   3.473   3.721   8.361  0.2856 -0.5418 -0.6985
   6123SM  H11A 7758   3.466   3.616   8.397  1.0061 -0.4482 -0.2717
   6123SM  H11B 7759   3.444   3.718   8.254 -1.7831  2.3390 -0.3549
   6123SM     P 7760   3.312   3.935   8.371  0.3135 -0.0809  0.0865
   6123SM   O13 7761   3.226   4.003   8.471  0.7049  0.6044 -0.1150
   6123SM   O14 7762   3.422   4.005   8.306  0.3775 -0.3120 -0.1876
   6123SM   O11 7763   3.211   3.881   8.258 -0.1719 -0.5125  0.3544
   6123SM   O12 7764   3.376   3.804   8.427 -0.0780 -0.2545  0.5125
   6123SM   C1S 7765   3.108   3.791   8.286  0.1677  0.0995  0.3737
   6123SM   H1S 7766   3.033   3.848   8.344  0.4630 -0.5401  1.4230
   6123SM   H1T 7767   3.141   3.706   8.350 -0.6919 -1.0367 -0.6477
   6123SM    NF 7768   2.918   3.642   8.207  0.6105 -0.4573  0.0289
   6123SM   HNF 7769   2.938   3.545   8.207 -0.2188 -0.7230 -2.7309
   6123SM   C2S 7770   3.023   3.733   8.163 -0.2941 -0.1954 -0.1908
   6123SM   H2S 7771   2.978   3.817   8.106  0.2590 -0.4552 -1.0272
   6123SM   C3S 7772   3.117   3.656   8.069  0.1688 -0.5219  0.1994
   6123SM   H3S 7773   3.139   3.565   8.129  0.4298  1.1059  2.6703
   6123SM    O3 7774   3.243   3.722   8.046  0.0014 -0.2248  0.4263
   6123SM   HO3 7775   3.258   3.770   8.127  1.8210  1.2185 -0.6749
   6123SM   C4S 7776   3.049   3.620   7.938 -0.1473  0.2902  0.4255
   6123SM   H4S 7777   3.000   3.704   7.885  2.2847 -0.4778 -3.4708
   6123SM   C5S 7778   3.033   3.499   7.883  0.3105  0.0239 -0.4627
   6123SM   H5S 7779   3.062   3.407   7.936 -1.2697  1.1117  2.5163
   6123SM   C6S 7780   2.962   3.463   7.759 -0.4815 -0.4036  0.0344
   6123SM   H6S 7781   2.902   3.373   7.781 -0.9882 -0.2727 -0.7677
   6123SM   H6T 7782   3.045   3.422   7.697 -0.2840 -1.5395  1.0169
   6123SM   C7S 7783   2.898   3.563   7.660 -0.4291 -0.8677  0.6110
   6123SM   H7S 7784   2.981   3.629   7.626 -1.2794 -0.2870 -0.3723
   6123SM   H7T 7785   2.839   3.639   7.716  2.2857  1.9535 -0.0713
   6123SM   C8S 7786   2.813   3.490   7.551 -0.2006 -0.8154 -0.2093
   6123SM   H8S 7787   2.715   3.478   7.601  0.8116  0.6403  2.3296
   6123SM   H8T 7788   2.836   3.382   7.535 -0.0203 -0.7919 -0.1120
   6123SM   C9S 7789   2.821   3.557   7.416  0.7420  0.3340 -0.6728
   6123SM   H9S 7790   2.926   3.552   7.378  1.1040 -0.0995  0.3628
   6123SM   H9T 7791   2.804   3.666   7.427  1.0748  0.2362  1.0168
   6123SM  C10S 7792   2.736   3.496   7.308 -0.5487  0.8242 -0.1146
   6123SM  H10S 7793   2.632   3.527   7.327 -0.5691  0.2077  0.8099
   6123SM  H10T 7794   2.758   3.387   7.307  0.9571  1.0590  1.8657
   6123SM  C11S 7795   2.768   3.551   7.165  0.1902  0.3121  0.1033
   6123SM  H11S 7796   2.868   3.509   7.142 -0.6426 -0.2416 -2.8484
   6123SM  H11T 7797   2.771   3.662   7.170  0.4010  0.3644 -1.0001
   6123SM  C12S 7798   2.668   3.507   7.060 -0.2595  0.5570  0.5118
   6123SM  H12S 7799   2.562   3.536   7.077 -1.1355 -1.5338 -1.0042
   6123SM  H12T 7800   2.660   3.396   7.059 -0.4782  0.5711  0.5862
   6123SM  C13S 7801   2.701   3.556   6.921  0.1485  0.0348  0.0742
   6123SM  H13S 7802   2.809   3.542   6.900 -0.2614 -0.4714 -1.8607
   6123SM  H13T 7803   2.680   3.665   6.916  0.2934  0.1465  1.4620
   6123SM  C14S 7804   2.632   3.488   6.809  0.7477  0.0735 -0.0020
   6123SM  H14S 7805   2.524   3.508   6.820  0.4485 -1.2947 -0.3582
   6123SM  H14T 7806   2.646   3.379   6.793  0.8120 -0.2817  2.2385
   6123SM  C15S 7807   2.664   3.550   6.671 -0.3847 -0.1901 -0.9889
   6123SM  H15S 7808   2.767   3.540   6.633  0.5134  2.3165  0.5428
   6123SM  H15T 7809   2.638   3.656   6.691 -1.7415 -0.2747 -2.1347
   6123SM  C16S 7810   2.573   3.492   6.556 -0.6881 -0.4293 -0.5671
   6123SM  H16S 7811   2.467   3.522   6.573  0.0506  0.8923  2.3068
   6123SM  H16T 7812   2.585   3.382   6.574  0.3211 -0.3373 -0.6446
   6123SM  C17S 7813   2.609   3.510   6.415 -0.5832  0.1252  0.6428
   6123SM  H17S 7814   2.542   3.449   6.352  1.4203  0.2085 -1.7246
   6123SM  H17T 7815   2.705   3.454   6.409 -0.6908  0.0289 -0.3717
   6123SM  C18S 7816   2.638   3.654   6.375  0.3539  0.0380 -0.3916
   6123SM  H18S 7817   2.648   3.713   6.469 -0.9244  1.6127 -1.1923
   6123SM  H18T 7818   2.560   3.709   6.318 -1.4173  0.9520  2.6218
   6123SM  H18U 7819   2.737   3.663   6.325  0.3160  0.2896 -0.4234
   6123SM   C1F 7820   2.806   3.682   8.271 -0.0311 -0.1890  0.4315
   6123SM    OF 7821   2.793   3.796   8.314 -0.5241  0.1771  0.3249
   6123SM   C2F 7822   2.704   3.579   8.296  0.6024 -0.7657  0.0153
   6123SM   H2F 7823   2.651   3.604   8.390 -1.6452  2.1296 -1.8275
   6123SM   H2G 7824   2.758   3.482   8.299  0.8548 -0.7056 -1.6271
   6123SM   C3F 7825   2.588   3.595   8.197 -0.0655  0.6141 -0.2300
   6123SM   H3F 7826   2.560   3.701   8.179 -2.1865  0.0195 -0.7620
   6123SM   H3G 7827   2.490   3.550   8.223 -0.2564  0.1427 -1.7014
   6123SM   C4F 7828   2.619   3.545   8.056 -0.7756 -0.2876  0.2008
   6123SM   H4F 7829   2.618   3.434   8.067 -0.3026 -0.0891  2.9539
   6123SM   H4G 7830   2.717   3.583   8.022 -0.0287 -1.3039  1.1722
   6123SM   C5F 7831   2.509   3.591   7.958  0.2533  0.6133 -0.1629
   6123SM   H5F 7832   2.499   3.701   7.951  1.3871  0.8263  1.1461
   6123SM   H5G 7833   2.410   3.575   8.006 -0.8060  2.3485 -1.6637
   6123SM   C6F 7834   2.520   3.522   7.821 -0.1673 -0.2952  0.2847
   6123SM   H6F 7835   2.516   3.412   7.831 -1.1532 -0.2930  0.0829
   6123SM   H6G 7836   2.616   3.549   7.772  0.0948 -0.1249  0.8807
   6123SM   C7F 7837   2.405   3.568   7.718  0.1017  0.0260  0.0308
   6123SM   H7F 7838   2.417   3.677   7.704 -2.3203  0.0500 -3.0310
   6123SM   H7G 7839   2.302   3.550   7.756 -0.7640  1.2478 -1.6017
   6123SM   C8F 7840   2.416   3.488   7.588  0.4468  0.1304  0.4440
   6123SM   H8F 7841   2.399   3.382   7.614  1.1639  0.2478  1.4407
   6123SM   H8G 7842   2.520   3.493   7.548  0.2099  2.4056 -0.0288
   6123SM   C9F 7843   2.325   3.527   7.471 -0.1871 -0.0054 -0.2255
   6123SM   H9F 7844   2.357   3.617   7.415 -0.9184  0.9705  0.9043
   6123SM   H9G 7845   2.224   3.542   7.515  1.0129  2.3301  1.9771
   6123SM  C10F 7846   2.313   3.410   7.372 -0.2253  0.1642  0.0949
   6123SM  H10F 7847   2.237   3.335   7.405  0.7931 -1.2182 -0.5886
   6123SM  H10G 7848   2.409   3.356   7.387  0.7673  2.2452  1.5392
   6123SM  C11F 7849   2.275   3.453   7.227 -0.2498  0.3416 -0.0119
   6123SM  H11F 7850   2.321   3.544   7.183  1.1031  0.0737  0.8037
   6123SM  H11G 7851   2.168   3.478   7.240 -0.2012 -0.4706  2.4742
   6123SM  C12F 7852   2.291   3.334   7.129  0.0888 -0.0691  0.3509
   6123SM  H12F 7853   2.262   3.238   7.177 -0.3372 -0.9255 -1.5242
   6123SM  H12G 7854   2.396   3.323   7.094  0.5306  1.1034  1.2664
   6123SM  C13F 7855   2.212   3.354   6.994  0.0864  0.2308 -0.3942
   6123SM  H13F 7856   2.241   3.446   6.940  0.5287 -0.5681 -1.5378
   6123SM  H13G 7857   2.103   3.358   7.019  0.1945  1.1008 -0.0335
   6123SM  C14F 7858   2.229   3.232   6.893  0.2144  1.5656  0.2163
   6123SM  H14F 7859   2.161   3.252   6.808  1.2068  0.0872 -0.9859
   6123SM  H14G 7860   2.205   3.134   6.940 -1.7686  0.0070 -3.6400
   6123SM  C15F 7861   2.374   3.224   6.833 -0.4145  0.6611  0.2916
   6123SM  H15F 7862   2.442   3.245   6.919  0.3370 -0.1149 -0.1050
   6123SM  H15G 7863   2.375   3.311   6.764 -0.8778  0.7986  0.4544
   6123SM  C16F 7864   2.408   3.092   6.761  0.3930  0.6649  0.1198
   6123SM  H16F 7865   2.335   3.071   6.679  0.7627  0.4055 -0.1469
   6123SM  H16G 7866   2.389   3.008   6.831 -0.2388  1.7548  1.2978
   6123SM  C17F 7867   2.552   3.077   6.698 -0.5727 -0.4378 -0.1500
   6123SM  H17F 7868   2.632   3.103   6.770 -0.2407 -0.8575 -0.3616
   6123SM  H17G 7869   2.542   3.151   6.616 -1.3269  0.4927  0.7601
   6123SM  C18F 7870   2.575   2.944   6.634 -0.3859  0.3358 -0.1575
   6123SM  H18F 7871   2.489   2.913   6.570 -0.7523 -3.5096  1.8996
   6123SM  H18G 7872   2.562   2.864   6.710 -3.3211 -1.3805 -2.2378
   6123SM  C19F 7873   2.709   2.931   6.563 -0.1045 -0.8736 -0.4459
   6123SM  H19F 7874   2.789   2.960   6.635 -0.7464 -2.0246  0.7673
   6123SM  H19G 7875   2.714   3.016   6.491  0.0699 -1.3830 -1.0504
   6123SM  C20F 7876   2.746   2.792   6.499  0.5992 -0.3788  0.4478
   6123SM  H20F 7877   2.663   2.757   6.434 -2.1542  0.5051  3.2513
   6123SM  H20G 7878   2.756   2.718   6.581 -2.7909  2.0614  3.3457
   6123SM  C21F 7879   2.870   2.795   6.408 -0.5466 -0.0075  0.1688
   6123SM  H21F 7880   2.846   2.854   6.317 -0.3272 -1.2703 -0.7349
   6123SM  H21G 7881   2.903   2.695   6.373 -1.6561 -0.1795 -0.4245
   6123SM  C22F 7882   2.995   2.860   6.468 -0.6032  0.9906  0.2743
   6123SM  H22F 7883   2.973   2.965   6.497  2.3740  1.3753  1.4837
   6123SM  H22G 7884   3.072   2.857   6.387 -0.9780  1.0698 -0.0891
   6123SM  C23F 7885   3.040   2.783   6.587  0.2977  0.7001  0.7364
   6123SM  H23F 7886   2.955   2.757   6.653 -1.4274 -0.7029 -1.8677
   6123SM  H23G 7887   3.112   2.837   6.653  1.7453  1.5291 -1.3882
   6123SM  H23H 7888   3.079   2.682   6.564  1.3316  0.4884  3.1653
   6223SM     N 7889   2.698   3.228   8.947  0.2623  0.1069  0.1363
   6223SM   C15 7890   2.653   3.139   9.048  0.0364  0.7099 -1.3916
   6223SM  H15A 7891   2.646   3.173   9.150 -0.9047 -2.1672 -0.3987
   6223SM  H15B 7892   2.722   3.057   9.060 -0.3830  0.4408 -0.7616
   6223SM  H15C 7893   2.563   3.086   9.022  0.8940 -1.1337 -0.7738
   6223SM   C14 7894   2.648   3.166   8.822  0.0887  0.0143  0.7556
   6223SM  H14A 7895   2.678   3.062   8.818  0.2370  0.0706  0.3297
   6223SM  H14B 7896   2.687   3.215   8.734 -1.9605  0.9957  0.3286
   6223SM  H14C 7897   2.540   3.171   8.814  0.1904  3.9092  0.1156
   6223SM   C13 7898   2.637   3.367   8.959 -0.4294 -0.3315  0.7894
   6223SM  H13A 7899   2.665   3.420   8.869  2.8053 -0.2680  1.7259
   6223SM  H13B 7900   2.683   3.428   9.035  0.5966 -1.6332  1.2446
   6223SM  H13C 7901   2.530   3.363   8.976 -0.6760  0.6764 -0.3786
   6223SM   C12 7902   2.848   3.230   8.947 -0.1293 -0.1956 -0.4007
   6223SM  H12A 7903   2.889   3.242   9.046  0.0780 -2.5522 -0.1437
   6223SM  H12B 7904   2.872   3.327   8.906 -2.0133  0.4196 -0.1419
   6223SM   C11 7905   2.929   3.115   8.878 -0.8690  0.1626  0.3006
   6223SM  H11A 7906   3.030   3.158   8.860 -1.3902  0.5991 -1.8580
   6223SM  H11B 7907   2.901   3.090   8.774  0.4967 -0.2742  0.0092
   6223SM     P 7908   2.875   2.861   8.925  0.1597  0.1346  0.5624
   6223SM   O13 7909   2.962   2.756   8.972  0.2506 -0.2301 -0.1914
   6223SM   O14 7910   2.738   2.870   8.983  0.1421 -0.2368  0.0979
   6223SM   O11 7911   2.858   2.850   8.774  0.0097  0.8193 -0.2772
   6223SM   O12 7912   2.948   2.997   8.957 -0.3670  1.2910  0.3725
   6223SM   C1S 7913   2.982   2.829   8.695 -0.1543 -0.0734 -0.8235
   6223SM   H1S 7914   3.050   2.759   8.747 -2.0130  0.0094  1.8884
   6223SM   H1T 7915   3.038   2.923   8.675  0.5605 -0.6326 -1.5223
   6223SM    NF 7916   3.093   2.740   8.484  0.1079  0.7178  0.1569
   6223SM   HNF 7917   3.132   2.797   8.412  3.7374 -2.1941 -0.4597
   6223SM   C2S 7918   2.962   2.766   8.544  0.3097 -0.0399 -0.2944
   6223SM   H2S 7919   2.898   2.677   8.564 -0.6349  0.6627 -0.0724
   6223SM   C3S 7920   2.868   2.856   8.465 -0.1074 -0.5219  0.9073
   6223SM   H3S 7921   2.918   2.954   8.447  0.1585 -0.9068 -0.5501
   6223SM    O3 7922   2.752   2.895   8.534 -0.2271  0.6595  0.4539
   6223SM   HO3 7923   2.776   2.884   8.627 -1.5532 -0.0171  0.7411
   6223SM   C4S 7924   2.842   2.789   8.332  0.7694  0.4100  0.3791
   6223SM   H4S 7925   2.917   2.807   8.254  0.6398 -1.4210 -0.2140
   6223SM   C5S 7926   2.738   2.716   8.289  0.5333 -0.3123 -0.6651
   6223SM   H5S 7927   2.662   2.724   8.368  1.5709  1.8015  0.1956
   6223SM   C6S 7928   2.714   2.632   8.168  0.0656  0.2015  0.8248
   6223SM   H6S 7929   2.647   2.688   8.100 -0.7319 -0.8937  0.6836
   6223SM   H6T 7930   2.663   2.534   8.182 -0.1439 -0.0631 -1.4466
   6223SM   C7S 7931   2.847   2.603   8.094 -0.3234  0.5862  0.4809
   6223SM   H7S 7932   2.919   2.565   8.169 -2.1829  0.4194  2.2895
   6223SM   H7T 7933   2.879   2.691   8.036 -0.2848 -0.1164 -0.5876
   6223SM   C8S 7934   2.824   2.488   7.984  0.0966 -0.4857 -0.4533
   6223SM   H8S 7935   2.761   2.412   8.033 -0.8466 -0.6422 -1.8495
   6223SM   H8T 7936   2.923   2.443   7.961 -0.4830 -0.6168 -3.0354
   6223SM   C9S 7937   2.774   2.553   7.856  0.8050 -0.3186 -0.1687
   6223SM   H9S 7938   2.811   2.656   7.840  0.2640 -0.2316 -0.8663
   6223SM   H9T 7939   2.664   2.570   7.861  0.9540  1.2838 -1.5858
   6223SM  C10S 7940   2.789   2.456   7.737  0.1707 -0.0620 -0.0558
   6223SM  H10S 7941   2.738   2.361   7.762  1.2944 -0.3488  1.2547
   6223SM  H10T 7942   2.897   2.429   7.728 -0.1171 -1.2598 -0.0251
   6223SM  C11S 7943   2.741   2.531   7.613  0.5249 -0.5628  0.4488
   6223SM  H11S 7944   2.801   2.622   7.592 -0.7225  0.5387  1.5513
   6223SM  H11T 7945   2.635   2.560   7.625 -0.1533 -2.7774  0.2364
   6223SM  C12S 7946   2.742   2.439   7.486 -0.3356 -0.2215  0.7260
   6223SM  H12S 7947   2.663   2.363   7.501 -2.1689  1.2029 -1.0449
   6223SM  H12T 7948   2.847   2.403   7.473  0.1320  0.8557  1.3382
   6223SM  C13S 7949   2.693   2.513   7.363  0.1258  0.3204 -0.0433
   6223SM  H13S 7950   2.738   2.614   7.367 -1.4210  1.0146  0.4604
   6223SM  H13T 7951   2.583   2.530   7.354 -0.4362 -1.9240  1.5960
   6223SM  C14S 7952   2.739   2.447   7.233  0.2987 -0.7504 -0.3096
   6223SM  H14S 7953   2.849   2.464   7.232  0.2683 -0.5488 -0.9566
   6223SM  H14T 7954   2.710   2.520   7.155  2.1430  2.3419  1.6613
   6223SM  C15S 7955   2.688   2.301   7.211 -0.3603  0.9373 -0.2709
   6223SM  H15S 7956   2.595   2.302   7.272 -1.5140 -0.6471 -1.9192
   6223SM  H15T 7957   2.745   2.226   7.269 -1.6021  2.4802  3.2558
   6223SM  C16S 7958   2.663   2.270   7.064 -0.4985  0.1855 -0.0020
   6223SM  H16S 7959   2.760   2.261   7.009 -1.2441  1.2799 -1.5795
   6223SM  H16T 7960   2.614   2.363   7.029 -0.9910 -0.2469 -0.4926
   6223SM  C17S 7961   2.584   2.141   7.050 -0.1152  0.1037  0.3073
   6223SM  H17S 7962   2.501   2.145   7.125  1.0639  0.2355  1.6515
   6223SM  H17T 7963   2.636   2.046   7.075 -2.4448 -1.0691  1.0076
   6223SM  C18S 7964   2.536   2.107   6.910  0.4517  0.8848  0.1851
   6223SM  H18S 7965   2.627   2.100   6.846  0.3557 -0.3699  0.1771
   6223SM  H18T 7966   2.471   2.182   6.858 -0.9629  0.6766  1.5899
   6223SM  H18U 7967   2.492   2.005   6.914  0.1932  1.0520  2.4727
   6223SM   C1F 7968   3.173   2.644   8.528  0.2858  0.3419 -0.3860
   6223SM    OF 7969   3.145   2.580   8.631  0.4702 -0.2923  0.7792
   6223SM   C2F 7970   3.317   2.630   8.469  0.0179 -0.2756 -0.2533
   6223SM   H2F 7971   3.359   2.530   8.497  0.7743 -0.0804 -0.6571
   6223SM   H2G 7972   3.386   2.705   8.514  1.6167 -0.2903 -2.5245
   6223SM   C3F 7973   3.318   2.666   8.327  0.0955 -0.3712  0.3063
   6223SM   H3F 7974   3.425   2.660   8.299  0.5189  2.2556  1.0034
   6223SM   H3G 7975   3.285   2.771   8.310 -0.6683 -0.8144 -1.0508
   6223SM   C4F 7976   3.244   2.568   8.232  0.1570  0.4387  0.8257
   6223SM   H4F 7977   3.139   2.562   8.268 -0.4913  0.3995 -0.9493
   6223SM   H4G 7978   3.304   2.475   8.231  3.5707  2.4611  2.2301
   6223SM   C5F 7979   3.242   2.609   8.076  0.4010 -0.3337 -0.1551
   6223SM   H5F 7980   3.185   2.533   8.018  1.9821 -1.7791  0.1034
   6223SM   H5G 7981   3.341   2.619   8.026 -0.0811  0.2262 -1.0096
   6223SM   C6F 7982   3.185   2.748   8.062  0.3833 -0.7718  0.0662
   6223SM   H6F 7983   3.257   2.825   8.096  1.1078 -1.0652 -0.7829
   6223SM   H6G 7984   3.092   2.752   8.123  0.5092 -1.4687  0.3108
   6223SM   C7F 7985   3.133   2.772   7.917  0.4761 -0.4301  0.0486
   6223SM   H7F 7986   3.049   2.703   7.895  0.2727 -1.7278  4.1291
   6223SM   H7G 7987   3.218   2.756   7.848  0.2356 -1.1022 -0.0952
   6223SM   C8F 7988   3.081   2.916   7.901  0.8663  0.8736 -0.3195
   6223SM   H8F 7989   3.155   2.976   7.957 -1.2434  1.7260  1.7211
   6223SM   H8G 7990   2.983   2.926   7.952 -0.3359 -2.5165 -1.6140
   6223SM   C9F 7991   3.065   2.956   7.760 -0.1074  0.8479 -0.0762
   6223SM   H9F 7992   2.976   2.908   7.714  0.8389  0.6205 -1.7300
   6223SM   H9G 7993   3.154   2.916   7.707 -0.2895  0.1411  0.1503
   6223SM  C10F 7994   3.041   3.107   7.744  0.4158 -0.0761  0.4251
   6223SM  H10F 7995   3.133   3.162   7.773  2.5588 -3.7744  1.3191
   6223SM  H10G 7996   2.950   3.127   7.804  0.8573 -2.3962  2.0252
   6223SM  C11F 7997   3.016   3.131   7.594 -0.2311 -0.2784 -0.2387
   6223SM  H11F 7998   2.956   3.222   7.572  1.1697  0.4795 -1.0319
   6223SM  H11G 7999   2.964   3.041   7.554 -2.0413  0.3809  0.5220
   6223SM  C12F 8000   3.132   3.150   7.498 -0.6049  0.3098 -1.1939
   6223SM  H12F 8001   3.198   3.061   7.490 -0.8421 -0.0336  0.4346
   6223SM  H12G 8002   3.203   3.221   7.544 -1.5617  0.0661  0.7542
   6223SM  C13F 8003   3.091   3.201   7.360  0.1909  0.0684  0.5240
   6223SM  H13F 8004   3.165   3.170   7.283 -0.6232 -1.6502  0.3796
   6223SM  H13G 8005   3.079   3.311   7.352 -1.8060 -0.1543 -0.1959
   6223SM  C14F 8006   2.962   3.155   7.309  0.7722  0.4749  0.4738
   6223SM  H14F 8007   2.878   3.182   7.377 -2.3312 -2.9953 -1.5756
   6223SM  H14G 8008   2.966   3.044   7.309  1.3601  0.4575 -1.3006
   6223SM  C15F 8009   2.920   3.208   7.172  0.0922 -0.1811  0.3554
   6223SM  H15F 8010   2.944   3.316   7.163 -1.5970  0.1332 -0.9240
   6223SM  H15G 8011   2.809   3.199   7.171  0.0878 -0.2596 -1.4295
   6223SM  C16F 8012   2.974   3.128   7.048  0.0664 -0.1716 -0.1556
   6223SM  H16F 8013   2.934   3.024   7.049 -1.5769  0.4272 -0.1090
   6223SM  H16G 8014   3.084   3.128   7.064 -0.0300 -0.3583  0.5390
   6223SM  C17F 8015   2.931   3.190   6.914 -0.0533  0.0448 -0.2894
   6223SM  H17F 8016   2.950   3.297   6.938 -1.7250  0.2225  0.3689
   6223SM  H17G 8017   2.827   3.171   6.880 -0.2486  0.9353 -0.2019
   6223SM  C18F 8018   3.033   3.147   6.799  0.2360 -0.6983 -0.4631
   6223SM  H18F 8019   3.026   3.037   6.798 -2.4193 -0.5796 -1.2709
   6223SM  H18G 8020   3.139   3.175   6.819 -0.3201  1.8974 -0.6953
   6223SM  C19F 8021   2.997   3.213   6.664  0.1654 -0.2048 -0.3181
   6223SM  H19F 8022   3.003   3.322   6.687 -1.5398 -0.5162  2.0507
   6223SM  H19G 8023   2.893   3.183   6.637 -0.7838  0.5674  2.1202
   6223SM  C20F 8024   3.100   3.189   6.552 -0.5902  0.2184  0.7347
   6223SM  H20F 8025   3.133   3.083   6.550  0.5965  0.5800 -0.1744
   6223SM  H20G 8026   3.186   3.250   6.587 -0.7275  0.4615  0.6569
   6223SM  C21F 8027   3.062   3.251   6.419  0.3200 -0.1174 -0.1367
   6223SM  H21F 8028   3.144   3.252   6.343  0.8719  2.5144  0.3637
   6223SM  H21G 8029   3.037   3.360   6.423 -1.2749 -0.4299 -1.0044
   6223SM  C22F 8030   2.943   3.169   6.350 -0.2132 -0.3461  0.3350
   6223SM  H22F 8031   2.865   3.147   6.427 -3.4136 -1.0134 -2.8408
   6223SM  H22G 8032   2.991   3.074   6.319  0.9102  0.1195  0.6111
   6223SM  C23F 8033   2.876   3.234   6.232 -0.7128  0.5648  0.1970
   6223SM  H23F 8034   2.948   3.278   6.160 -0.8091 -0.7167 -0.7157
   6223SM  H23G 8035   2.836   3.334   6.259  0.9600  1.7264 -1.4094
   6223SM  H23H 8036   2.788   3.180   6.190 -0.7132 -0.2003  1.1378
   6323SM     N 8037   4.513   4.534   8.498 -1.0152  0.2495 -0.3149
   6323SM   C15 8038   4.377   4.570   8.452 -1.2887 -0.2476 -0.8380
   6323SM  H15A 8039   4.345   4.502   8.375 -1.9775 -0.0973 -0.6855
   6323SM  H15B 8040   4.377   4.672   8.415  2.0394  0.5256  0.8786
   6323SM  H15C 8041   4.299   4.560   8.525 -0.2098 -1.5873  0.1864
   6323SM   C14 8042   4.536   4.614   8.628  0.2786 -0.4539 -0.4338
   6323SM  H14A 8043   4.627   4.595   8.681 -0.8497 -1.9507  1.0955
   6323SM  H14B 8044   4.463   4.585   8.702  0.5421 -1.0968 -0.4204
   6323SM  H14C 8045   4.518   4.720   8.619  1.1751 -0.0273  2.0360
   6323SM   C13 8046   4.518   4.391   8.538 -0.7914 -0.3954  0.0916
   6323SM  H13A 8047   4.438   4.367   8.606 -1.2713  0.3953 -0.1827
   6323SM  H13B 8048   4.603   4.359   8.597 -0.5551 -0.2515 -0.1722
   6323SM  H13C 8049   4.506   4.334   8.447  1.2961 -1.4390  0.3807
   6323SM   C12 8050   4.616   4.584   8.400 -0.5496  0.6401  0.4892
   6323SM  H12A 8051   4.710   4.582   8.454 -0.9731 -1.9934  1.2870
   6323SM  H12B 8052   4.596   4.687   8.377  0.3359  0.5115 -0.9391
   6323SM   C11 8053   4.617   4.503   8.265 -0.6718  0.3202  0.6256
   6323SM  H11A 8054   4.645   4.398   8.285 -1.8844 -0.1438  0.0099
   6323SM  H11B 8055   4.693   4.550   8.199 -1.8147  0.4036 -0.6802
   6323SM     P 8056   4.413   4.366   8.162  0.0616  0.0522  0.3093
   6323SM   O13 8057   4.446   4.266   8.262 -0.2209  0.0546 -0.7154
   6323SM   O14 8058   4.268   4.399   8.161 -0.1427 -0.2762 -0.0568
   6323SM   O11 8059   4.456   4.324   8.014  0.1106  0.4006  0.3700
   6323SM   O12 8060   4.489   4.504   8.188 -0.5770  0.0092  0.0674
   6323SM   C1S 8061   4.458   4.421   7.914 -0.3699 -0.2808 -0.1730
   6323SM   H1S 8062   4.563   4.458   7.913 -0.2930 -0.4760  0.5508
   6323SM   H1T 8063   4.397   4.512   7.932  0.4236 -0.0459  1.5114
   6323SM    NF 8064   4.428   4.489   7.687  0.2597  0.1035  0.0731
   6323SM   HNF 8065   4.344   4.539   7.666  0.1361  0.3136  1.0028
   6323SM   C2S 8066   4.424   4.375   7.770  0.1617 -0.3338 -0.3996
   6323SM   H2S 8067   4.504   4.311   7.728  2.0348  1.7673 -0.2691
   6323SM   C3S 8068   4.300   4.287   7.762 -0.1134 -0.0464 -0.1383
   6323SM   H3S 8069   4.224   4.359   7.798  1.4652  1.3178  0.6464
   6323SM    O3 8070   4.300   4.172   7.845 -0.1565 -0.0769  0.1417
   6323SM   HO3 8071   4.380   4.191   7.896 -0.6560  0.6121  0.6922
   6323SM   C4S 8072   4.267   4.253   7.618  0.9023  0.3865 -0.9042
   6323SM   H4S 8073   4.264   4.339   7.550 -2.6289  0.4025 -0.9082
   6323SM   C5S 8074   4.270   4.127   7.565  0.0436 -0.0746 -0.4115
   6323SM   H5S 8075   4.317   4.047   7.624  4.0097  2.0219 -0.3652
   6323SM   C6S 8076   4.254   4.094   7.419 -0.3937  0.2298 -0.5061
   6323SM   H6S 8077   4.168   4.026   7.404 -0.5083  0.3580 -0.4256
   6323SM   H6T 8078   4.346   4.048   7.375  0.0204 -0.8898  1.4358
   6323SM   C7S 8079   4.219   4.215   7.328  0.5690  1.0203  0.8756
   6323SM   H7S 8080   4.286   4.304   7.331  0.9165  0.7766  0.3470
   6323SM   H7T 8081   4.116   4.252   7.347  0.5828  2.2880 -1.2635
   6323SM   C8S 8082   4.216   4.175   7.177  0.2968 -0.8510  0.5793
   6323SM   H8S 8083   4.124   4.113   7.170  0.5921 -1.2826  0.4875
   6323SM   H8T 8084   4.303   4.106   7.167  1.7140  0.9717 -0.4156
   6323SM   C9S 8085   4.216   4.292   7.087 -0.4941  0.5059  0.1969
   6323SM   H9S 8086   4.309   4.351   7.098  1.5670 -2.1740 -1.6255
   6323SM   H9T 8087   4.133   4.357   7.122 -2.6739 -1.9170 -0.2050
   6323SM  C10S 8088   4.206   4.274   6.939  0.6551  0.0301 -0.0313
   6323SM  H10S 8089   4.291   4.216   6.897 -0.6502 -1.6456 -0.4832
   6323SM  H10T 8090   4.202   4.374   6.890 -3.7155  0.4224  0.7266
   6323SM  C11S 8091   4.080   4.196   6.895 -0.6781 -0.2188  0.3600
   6323SM  H11S 8092   3.989   4.253   6.923  0.0556  1.4268 -0.4973
   6323SM  H11T 8093   4.079   4.103   6.956 -0.1628 -1.8552 -1.9912
   6323SM  C12S 8094   4.077   4.169   6.746 -1.1212 -0.2428 -0.0108
   6323SM  H12S 8095   3.985   4.118   6.709 -3.5987  2.1865  2.2524
   6323SM  H12T 8096   4.159   4.097   6.730 -1.4214 -0.8303  1.0192
   6323SM  C13S 8097   4.082   4.296   6.664  0.3998  0.1372  0.4992
   6323SM  H13S 8098   4.178   4.349   6.675  0.3860  0.0103  1.3091
   6323SM  H13T 8099   4.000   4.367   6.687  0.7072  0.3911  0.8173
   6323SM  C14S 8100   4.068   4.271   6.514  0.8407 -0.2770  0.1453
   6323SM  H14S 8101   3.960   4.254   6.492  0.6256 -0.9520  1.5919
   6323SM  H14T 8102   4.125   4.182   6.480  0.1079 -0.1670 -1.4410
   6323SM  C15S 8103   4.108   4.395   6.439 -0.4157 -0.1335 -0.3690
   6323SM  H15S 8104   4.214   4.423   6.451 -0.9062  0.7570  2.7532
   6323SM  H15T 8105   4.048   4.484   6.465  0.0212  0.0640 -0.0335
   6323SM  C16S 8106   4.069   4.376   6.286  0.4146 -0.3723 -0.1096
   6323SM  H16S 8107   3.982   4.309   6.273  1.9599 -2.0949 -2.6865
   6323SM  H16T 8108   4.153   4.342   6.221  0.6053  0.1452 -0.1443
   6323SM  C17S 8109   4.035   4.514   6.223 -0.2036 -0.0695 -1.2881
   6323SM  H17S 8110   4.105   4.591   6.263  0.2052 -1.8501  1.7115
   6323SM  H17T 8111   3.931   4.536   6.256  0.0455 -0.9186  0.1332
   6323SM  C18S 8112   4.061   4.499   6.077  0.2095  0.3813  1.4188
   6323SM  H18S 8113   3.999   4.420   6.029  0.5282  1.4291 -0.8809
   6323SM  H18T 8114   4.166   4.477   6.047  0.5437  3.8262 -0.4211
   6323SM  H18U 8115   4.040   4.596   6.027 -0.7441 -1.1949 -1.4621
   6323SM   C1F 8116   4.544   4.550   7.658  0.5131 -0.0539 -0.0677
   6323SM    OF 8117   4.650   4.496   7.676  0.2925 -1.0146 -0.4709
   6323SM   C2F 8118   4.538   4.692   7.605  0.2905  0.2099  0.3023
   6323SM   H2F 8119   4.641   4.735   7.603  1.0608 -1.5314  1.1360
   6323SM   H2G 8120   4.471   4.750   7.672 -0.1016  0.2744 -0.1372
   6323SM   C3F 8121   4.480   4.706   7.457  0.1216  0.1170 -0.2407
   6323SM   H3F 8122   4.499   4.804   7.408  0.7897 -0.7674 -1.8647
   6323SM   H3G 8123   4.369   4.702   7.457  0.0131  0.5923 -3.2550
   6323SM   C4F 8124   4.545   4.619   7.351  0.0418  0.2869 -0.1654
   6323SM   H4F 8125   4.536   4.509   7.368 -0.9986  0.4002  0.0359
   6323SM   H4G 8126   4.654   4.636   7.337  0.2403 -0.8968 -0.1675
   6323SM   C5F 8127   4.485   4.640   7.207  0.4494  0.3520 -0.5849
   6323SM   H5F 8128   4.476   4.749   7.187 -0.4707  0.6250  1.1280
   6323SM   H5G 8129   4.382   4.599   7.202  0.8711 -1.8388  3.7987
   6323SM   C6F 8130   4.561   4.571   7.094 -0.8289 -1.0099 -0.1757
   6323SM   H6F 8131   4.558   4.463   7.121  2.4656 -0.8318  1.3384
   6323SM   H6G 8132   4.670   4.590   7.088 -0.9982  0.4910  0.8870
   6323SM   C7F 8133   4.501   4.598   6.958  0.3668 -0.2198  0.4772
   6323SM   H7F 8134   4.522   4.699   6.918  0.9931  0.3578  2.1563
   6323SM   H7G 8135   4.392   4.599   6.979  0.8298 -1.3485  3.4583
   6323SM   C8F 8136   4.543   4.486   6.859 -0.1513 -0.5027 -0.7639
   6323SM   H8F 8137   4.523   4.387   6.906 -2.5771  0.2777 -0.0150
   6323SM   H8G 8138   4.654   4.477   6.856 -0.2366 -1.7760 -0.8798
   6323SM   C9F 8139   4.468   4.504   6.727 -0.0379 -0.7250 -0.7684
   6323SM   H9F 8140   4.362   4.477   6.742  0.1524 -0.9711  0.2044
   6323SM   H9G 8141   4.510   4.427   6.658  1.6881 -2.1724  1.7283
   6323SM  C10F 8142   4.492   4.641   6.659  0.2342 -0.0604 -0.2781
   6323SM  H10F 8143   4.600   4.657   6.683  0.2973  0.5148 -0.9425
   6323SM  H10G 8144   4.432   4.726   6.696 -1.2592 -0.8133 -0.9226
   6323SM  C11F 8145   4.466   4.640   6.509  0.0549 -0.4564  0.5276
   6323SM  H11F 8146   4.440   4.742   6.476  1.2965 -0.3799 -0.3046
   6323SM  H11G 8147   4.385   4.570   6.479 -0.3251 -0.3478  1.2892
   6323SM  C12F 8148   4.590   4.609   6.414 -0.1323 -0.0668  0.3742
   6323SM  H12F 8149   4.617   4.507   6.449  0.3343 -0.9177 -2.1867
   6323SM  H12G 8150   4.669   4.678   6.451 -0.7505 -0.1073  1.8204
   6323SM  C13F 8151   4.568   4.608   6.258  0.1910  0.9808 -0.3104
   6323SM  H13F 8152   4.549   4.709   6.216  1.3297  0.5923 -1.8310
   6323SM  H13G 8153   4.479   4.545   6.235  0.4058  0.2753  0.7161
   6323SM  C14F 8154   4.699   4.557   6.189  0.0459  0.1458 -0.1399
   6323SM  H14F 8155   4.713   4.456   6.233 -0.2433  0.1925  0.0642
   6323SM  H14G 8156   4.781   4.628   6.212 -0.7335  0.8607  0.4980
   6323SM  C15F 8157   4.682   4.536   6.043 -0.0565  0.3974  0.3731
   6323SM  H15F 8158   4.782   4.540   5.995 -0.1327 -1.4144  0.0100
   6323SM  H15G 8159   4.612   4.611   6.001 -1.0262 -1.3712 -1.3114
   6323SM  C16F 8160   4.628   4.397   6.000 -0.1741  0.2529 -0.1021
   6323SM  H16F 8161   4.603   4.402   5.892  0.3224  1.4380 -0.1726
   6323SM  H16G 8162   4.528   4.376   6.044 -0.8550  1.6465 -0.9197
   6323SM  C17F 8163   4.716   4.276   6.016 -0.3643  0.2056 -0.7106
   6323SM  H17F 8164   4.671   4.199   6.082 -1.1234  0.7066 -0.6407
   6323SM  H17G 8165   4.810   4.311   6.065  0.2990  0.4361 -2.1023
   6323SM  C18F 8166   4.765   4.215   5.885  0.5314 -0.4489  0.6989
   6323SM  H18F 8167   4.823   4.297   5.838  1.2165 -0.3080  1.7445
   6323SM  H18G 8168   4.685   4.182   5.816 -1.1017  0.4245  2.1100
   6323SM  C19F 8169   4.867   4.100   5.915 -0.1918  0.0547 -0.5141
   6323SM  H19F 8170   4.831   4.013   5.974  1.2115 -0.4770 -0.3945
   6323SM  H19G 8171   4.956   4.145   5.964  0.7867  0.2107 -2.3641
   6323SM  C20F 8172   4.929   4.030   5.795  0.4688  0.8681 -0.0111
   6323SM  H20F 8173   4.975   4.109   5.731  0.8720  1.2418  0.7240
   6323SM  H20G 8174   4.850   3.978   5.737 -0.0361  1.6573 -0.0393
   6323SM  C21F 8175   5.036   3.918   5.813  0.6369 -0.2856  0.6995
   6323SM  H21F 8176   4.996   3.844   5.885 -1.3471 -1.1097 -1.1352
   6323SM  H21G 8177   5.140   3.947   5.838  0.7439 -0.2306  0.2040
   6323SM  C22F 8178   5.051   3.846   5.677 -0.3891 -0.6504  0.6559
   6323SM  H22F 8179   4.949   3.830   5.637 -0.4515 -2.0948  1.3462
   6323SM  H22G 8180   5.091   3.743   5.679  2.9771  0.5164 -0.0718
   6323SM  C23F 8181   5.136   3.928   5.580  0.2609 -0.1455  0.1410
   6323SM  H23F 8182   5.110   4.036   5.580 -0.2579 -0.2612 -0.5950
   6323SM  H23G 8183   5.132   3.874   5.482  0.8953  1.4062 -0.7746
   6323SM  H23H 8184   5.241   3.924   5.614  0.5212  2.8547 -0.0672
   6423SM     N 8185   5.176   2.846   8.507  0.4343 -0.2066 -0.5355
   6423SM   C15 8186   5.124   2.907   8.635  0.0322 -0.1419 -0.4417
   6423SM  H15A 8187   5.207   2.928   8.700  0.6347 -1.5240 -0.7291
   6423SM  H15B 8188   5.063   2.830   8.680  2.8364 -0.6422  2.9159
   6423SM  H15C 8189   5.068   2.996   8.609 -1.6269 -1.4457 -1.5267
   6423SM   C14 8190   5.233   2.709   8.537 -0.9164 -0.2013 -0.4808
   6423SM  H14A 8191   5.270   2.674   8.442  0.1567  1.2743 -0.6418
   6423SM  H14B 8192   5.151   2.645   8.565 -0.9929 -0.5603 -1.5040
   6423SM  H14C 8193   5.312   2.720   8.610 -0.6098  0.1974 -0.8740
   6423SM   C13 8194   5.051   2.823   8.422 -0.0033  0.2102  0.4634
   6423SM  H13A 8195   5.003   2.919   8.409 -0.8503 -0.2390  0.2422
   6423SM  H13B 8196   4.983   2.748   8.459 -0.0266 -0.4630 -0.8936
   6423SM  H13C 8197   5.088   2.791   8.326 -1.1636 -2.4524  0.8256
   6423SM   C12 8198   5.280   2.934   8.448 -0.0772  0.0817  0.7566
   6423SM  H12A 8199   5.327   2.884   8.364  2.1892 -0.2329  2.1418
   6423SM  H12B 8200   5.355   2.966   8.518  2.9377  0.2787 -2.3340
   6423SM   C11 8201   5.228   3.066   8.392 -0.1817  0.4301 -0.4564
   6423SM  H11A 8202   5.146   3.044   8.319 -0.7864 -2.6868  0.9813
   6423SM  H11B 8203   5.305   3.100   8.320  0.4537 -1.1703 -0.5707
   6423SM     P 8204   5.202   3.307   8.508  0.1165 -0.0937  0.1276
   6423SM   O13 8205   5.092   3.360   8.590 -0.0817  0.5794  0.0964
   6423SM   O14 8206   5.343   3.341   8.550 -0.6225  0.6263  0.1733
   6423SM   O11 8207   5.182   3.362   8.365 -0.4317  0.6444 -0.3038
   6423SM   O12 8208   5.182   3.159   8.493 -0.6676  0.4973 -0.1775
   6423SM   C1S 8209   5.265   3.389   8.256 -0.4624 -0.3248  0.2492
   6423SM   H1S 8210   5.338   3.306   8.249 -1.3880 -1.0953 -0.6714
   6423SM   H1T 8211   5.321   3.485   8.264 -0.6625 -0.1955  0.1234
   6423SM    NF 8212   5.278   3.435   8.013  0.5308 -0.3795 -0.1886
   6423SM   HNF 8213   5.242   3.517   7.970 -2.6818 -0.5184  1.8772
   6423SM   C2S 8214   5.184   3.400   8.121 -0.1867 -0.1643 -0.2126
   6423SM   H2S 8215   5.136   3.304   8.095 -0.1268 -0.3867  0.4755
   6423SM   C3S 8216   5.064   3.505   8.125  0.5248  0.1491  0.3950
   6423SM   H3S 8217   5.111   3.602   8.148 -0.0295  0.6702 -0.5935
   6423SM    O3 8218   4.982   3.484   8.246 -0.6194  0.1838  0.4330
   6423SM   HO3 8219   5.030   3.421   8.301 -1.1880 -0.1563  0.5434
   6423SM   C4S 8220   4.976   3.501   8.003 -0.0244  0.6675  0.6611
   6423SM   H4S 8221   4.983   3.586   7.933  1.1657 -2.6002 -3.6511
   6423SM   C5S 8222   4.885   3.407   7.977  0.3164 -0.8375 -0.2787
   6423SM   H5S 8223   4.872   3.323   8.047  0.4247 -1.9390 -1.5180
   6423SM   C6S 8224   4.789   3.410   7.859  0.4051 -0.0389  0.0540
   6423SM   H6S 8225   4.684   3.425   7.890  0.5689  1.1431  0.0704
   6423SM   H6T 8226   4.781   3.308   7.816 -1.5575  0.2924 -0.4292
   6423SM   C7S 8227   4.825   3.513   7.750  1.0500  0.4632  0.0012
   6423SM   H7S 8228   4.932   3.515   7.722  0.8717 -0.5322 -0.8133
   6423SM   H7T 8229   4.805   3.618   7.779  0.8269  0.6890 -0.9327
   6423SM   C8S 8230   4.746   3.508   7.628  0.7803  0.7930  0.2085
   6423SM   H8S 8231   4.638   3.504   7.653  0.0975  1.4596 -2.3540
   6423SM   H8T 8232   4.769   3.416   7.570 -1.2033 -0.3541  1.1410
   6423SM   C9S 8233   4.764   3.628   7.539 -0.2588 -0.4533 -0.0823
   6423SM   H9S 8234   4.870   3.658   7.554 -0.9492  1.9652  0.4611
   6423SM   H9T 8235   4.705   3.715   7.577 -0.9965 -0.6751 -0.7022
   6423SM  C10S 8236   4.719   3.606   7.388  0.3585  0.5065  0.3491
   6423SM  H10S 8237   4.699   3.705   7.342  1.4371  0.3492 -0.5032
   6423SM  H10T 8238   4.617   3.564   7.404  1.2856 -1.2264  2.1446
   6423SM  C11S 8239   4.813   3.521   7.311 -0.2274  1.3526  0.0757
   6423SM  H11S 8240   4.789   3.413   7.319 -0.6934  1.5239  1.1373
   6423SM  H11T 8241   4.916   3.529   7.354 -0.5600  1.8561  0.8072
   6423SM  C12S 8242   4.815   3.555   7.160  0.3711  0.2067 -1.0005
   6423SM  H12S 8243   4.805   3.665   7.153 -2.6318  0.0352 -0.7006
   6423SM  H12T 8244   4.718   3.521   7.119 -0.8682  0.9313  1.1597
   6423SM  C13S 8245   4.924   3.494   7.083  0.7066  0.0440  1.0231
   6423SM  H13S 8246   4.947   3.388   7.107  0.2756 -1.0688 -2.8230
   6423SM  H13T 8247   5.016   3.558   7.086  0.1724  1.0806 -1.7218
   6423SM  C14S 8248   4.891   3.493   6.931  0.3548  0.6411  0.3094
   6423SM  H14S 8249   4.989   3.493   6.880  0.3642 -3.8662 -0.0564
   6423SM  H14T 8250   4.826   3.579   6.903  0.8054  0.4533 -1.4561
   6423SM  C15S 8251   4.827   3.371   6.871  0.1210 -0.0259  0.0463
   6423SM  H15S 8252   4.740   3.324   6.923  0.0771  0.5711  0.5239
   6423SM  H15T 8253   4.907   3.295   6.882  1.5540  1.3904 -0.2010
   6423SM  C16S 8254   4.801   3.390   6.719  0.1188 -0.9369 -0.4232
   6423SM  H16S 8255   4.893   3.418   6.662 -2.2279  0.3652 -3.9438
   6423SM  H16T 8256   4.736   3.479   6.708 -0.6398 -1.1193  2.0908
   6423SM  C17S 8257   4.730   3.277   6.643  0.1700  0.4828  0.1591
   6423SM  H17S 8258   4.628   3.259   6.682  0.2867 -0.3255  0.1035
   6423SM  H17T 8259   4.782   3.181   6.665 -1.5738 -0.9179 -1.4331
   6423SM  C18S 8260   4.712   3.307   6.496  0.0791  0.4511 -0.1538
   6423SM  H18S 8261   4.632   3.383   6.483 -0.6087  0.0383  1.4151
   6423SM  H18T 8262   4.674   3.217   6.443  2.7035 -1.7233  1.4068
   6423SM  H18U 8263   4.806   3.341   6.448 -0.2989  0.8488 -0.6219
   6423SM   C1F 8264   5.367   3.349   7.969 -0.1775  0.2846  0.4260
   6423SM    OF 8265   5.355   3.229   7.999  0.7058  0.3947  0.4623
   6423SM   C2F 8266   5.483   3.398   7.882  0.7795 -0.5443 -0.1189
   6423SM   H2F 8267   5.577   3.356   7.923 -0.3638 -3.7048 -0.4460
   6423SM   H2G 8268   5.480   3.509   7.876 -0.7849 -0.6281 -4.3415
   6423SM   C3F 8269   5.460   3.360   7.733 -0.5485  0.3267 -0.2918
   6423SM   H3F 8270   5.434   3.252   7.729 -0.9679  0.4443 -3.8002
   6423SM   H3G 8271   5.557   3.381   7.685 -1.0095  0.8409 -1.0101
   6423SM   C4F 8272   5.337   3.433   7.671  0.1020  0.3954  0.5143
   6423SM   H4F 8273   5.349   3.543   7.671  1.1490  0.3043  1.9181
   6423SM   H4G 8274   5.258   3.418   7.748  0.0444 -0.8263  0.2304
   6423SM   C5F 8275   5.278   3.371   7.538  0.9400 -0.2422 -0.0991
   6423SM   H5F 8276   5.188   3.425   7.503  0.7283  1.0943  2.3002
   6423SM   H5G 8277   5.241   3.269   7.563 -1.2532 -0.1112 -2.3869
   6423SM   C6F 8278   5.372   3.378   7.409  0.4845  0.0665 -0.0201
   6423SM   H6F 8279   5.437   3.292   7.434 -1.2468 -0.6276  2.5131
   6423SM   H6G 8280   5.429   3.473   7.420  2.8441 -1.3697  0.6682
   6423SM   C7F 8281   5.301   3.348   7.282 -0.3083  0.1300 -0.4176
   6423SM   H7F 8282   5.226   3.425   7.255 -1.2201 -0.4828  0.3123
   6423SM   H7G 8283   5.241   3.255   7.291  1.1590 -0.7412  0.8098
   6423SM   C8F 8284   5.390   3.335   7.155 -0.1987 -0.0266 -0.0421
   6423SM   H8F 8285   5.476   3.267   7.173  0.4205  1.0782  1.3147
   6423SM   H8G 8286   5.430   3.432   7.121  1.5058 -0.5529  0.3481
   6423SM   C9F 8287   5.313   3.290   7.027  0.8357  0.2023 -0.2813
   6423SM   H9F 8288   5.241   3.373   7.010 -1.1785 -0.8259  2.4450
   6423SM   H9G 8289   5.255   3.200   7.058  2.4215  0.2084  3.0873
   6423SM  C10F 8290   5.414   3.279   6.903  0.6539  0.2474 -0.8311
   6423SM  H10F 8291   5.496   3.208   6.925 -0.1861  0.3523  3.6727
   6423SM  H10G 8292   5.461   3.376   6.875  1.4418 -0.9985 -4.2164
   6423SM  C11F 8293   5.334   3.219   6.777  0.3429  0.2704 -0.1437
   6423SM  H11F 8294   5.294   3.119   6.803 -0.9849  0.0115 -2.8391
   6423SM  H11G 8295   5.405   3.194   6.695 -0.8316 -2.1879 -0.4968
   6423SM  C12F 8296   5.213   3.299   6.728 -0.4220 -0.2777  0.1167
   6423SM  H12F 8297   5.256   3.400   6.714 -1.1413  0.4275  2.4809
   6423SM  H12G 8298   5.147   3.313   6.816 -1.4926  2.8582 -1.0567
   6423SM  C13F 8299   5.139   3.242   6.609 -0.3313 -0.2439  0.6905
   6423SM  H13F 8300   5.053   3.311   6.598  0.9810  1.6251  1.5733
   6423SM  H13G 8301   5.101   3.140   6.632  0.0395 -0.3887  0.6580
   6423SM  C14F 8302   5.209   3.235   6.472 -0.0177 -0.9909 -0.1279
   6423SM  H14F 8303   5.261   3.138   6.464 -1.6678 -2.3928  3.6679
   6423SM  H14G 8304   5.289   3.313   6.477  0.5751 -1.6248  0.5125
   6423SM  C15F 8305   5.119   3.257   6.355  0.3446  0.7318 -0.7687
   6423SM  H15F 8306   5.043   3.338   6.367  2.2914  2.6545 -0.8004
   6423SM  H15G 8307   5.062   3.163   6.339 -0.2664  0.9880 -0.1797
   6423SM  C16F 8308   5.198   3.303   6.232  0.7992  0.2714  0.5340
   6423SM  H16F 8309   5.280   3.228   6.218 -1.5825 -2.2817 -0.6979
   6423SM  H16G 8310   5.238   3.406   6.242  0.1405  0.8775 -2.1863
   6423SM  C17F 8311   5.114   3.303   6.101 -0.8201 -0.1099 -0.4123
   6423SM  H17F 8312   5.011   3.342   6.118 -1.0923 -0.5028 -1.0953
   6423SM  H17G 8313   5.114   3.199   6.062  1.3657 -0.3054 -0.0312
   6423SM  C18F 8314   5.159   3.404   5.995  0.2260 -0.0446 -0.0578
   6423SM  H18F 8315   5.264   3.386   5.962  0.0927 -0.1619 -0.4134
   6423SM  H18G 8316   5.160   3.506   6.040 -0.6202  0.0656 -0.2778
   6423SM  C19F 8317   5.067   3.417   5.868  0.0548 -0.4628  0.6531
   6423SM  H19F 8318   5.094   3.522   5.843 -2.0342  0.2277  1.0976
   6423SM  H19G 8319   4.962   3.430   5.900 -0.2186  1.9298 -0.9937
   6423SM  C20F 8320   5.096   3.328   5.757  0.1907 -0.5078 -0.0550
   6423SM  H20F 8321   5.084   3.221   5.784 -0.8522 -0.3691  0.0794
   6423SM  H20G 8322   5.199   3.350   5.724 -0.5702  0.7805 -1.7221
   6423SM  C21F 8323   4.999   3.333   5.639  0.7192 -0.2462  0.2224
   6423SM  H21F 8324   4.974   3.439   5.619  0.2482  1.1568  6.3734
   6423SM  H21G 8325   4.905   3.277   5.658  1.4506 -1.3271  0.7655
   6423SM  C22F 8326   5.056   3.265   5.511  0.1854 -0.0770 -0.3065
   6423SM  H22F 8327   5.083   3.160   5.531  0.3247 -0.3434 -1.7718
   6423SM  H22G 8328   5.151   3.313   5.479  0.0274  0.4205 -0.0453
   6423SM  C23F 8329   4.951   3.268   5.399  0.2465  0.2854 -0.3959
   6423SM  H23F 8330   4.897   3.365   5.391  0.1396  0.5178  2.1604
   6423SM  H23G 8331   4.873   3.194   5.426  2.0749 -1.9653 -0.9429
   6423SM  H23H 8332   4.999   3.238   5.304 -0.4607  1.7566 -1.2516
   6523SM     N 8333   5.188   3.826   8.303 -0.0098  0.1751 -0.6270
   6523SM   C15 8334   5.287   3.776   8.205 -0.1826 -0.5443 -0.2794
   6523SM  H15A 8335   5.314   3.850   8.130 -0.8866 -0.9787 -0.9786
   6523SM  H15B 8336   5.250   3.702   8.134  2.1607 -0.4882 -1.6761
   6523SM  H15C 8337   5.373   3.734   8.256 -1.2318  0.9262  2.9616
   6523SM   C14 8338   5.158   3.722   8.409  0.2776 -1.0172  0.5879
   6523SM  H14A 8339   5.112   3.641   8.355  0.2821  0.1947 -1.3133
   6523SM  H14B 8340   5.087   3.753   8.485  2.1955  2.0806  1.3336
   6523SM  H14C 8341   5.249   3.699   8.464  0.3839  0.9980  1.3465
   6523SM   C13 8342   5.256   3.947   8.361  0.3084  0.9701  0.1443
   6523SM  H13A 8343   5.221   4.032   8.304 -1.0714  0.0349 -0.4521
   6523SM  H13B 8344   5.362   3.944   8.384 -0.1537 -0.1588  2.3238
   6523SM  H13C 8345   5.217   3.965   8.460  0.4008 -1.1982  0.6220
   6523SM   C12 8346   5.054   3.865   8.241  0.4472  0.3885  0.0604
   6523SM  H12A 8347   5.004   3.930   8.311 -1.6378  0.5805 -1.5418
   6523SM  H12B 8348   4.991   3.781   8.220 -0.9732  1.0103  1.5909
   6523SM   C11 8349   5.051   3.951   8.109 -0.0085 -0.0119 -0.4609
   6523SM  H11A 8350   4.951   3.949   8.060  1.1199 -0.7322 -2.8409
   6523SM  H11B 8351   5.116   3.900   8.035 -0.6953 -1.3522 -0.1820
   6523SM     P 8352   5.005   4.183   8.204  0.0839 -0.6444  0.4494
   6523SM   O13 8353   4.941   4.114   8.319 -0.0892 -0.0412  0.9170
   6523SM   O14 8354   5.080   4.311   8.223 -0.3344  0.3672 -0.0867
   6523SM   O11 8355   4.885   4.203   8.098  0.5528  0.1259  0.2722
   6523SM   O12 8356   5.101   4.083   8.134 -0.0851 -0.5828 -0.2873
   6523SM   C1S 8357   4.846   4.339   8.062  0.2548  0.3944  0.6456
   6523SM   H1S 8358   4.872   4.413   8.141 -0.6749 -0.0097  1.3510
   6523SM   H1T 8359   4.737   4.343   8.042  0.6851  0.0827 -2.0287
   6523SM    NF 8360   4.819   4.505   7.888  0.0339 -0.5270 -0.1191
   6523SM   HNF 8361   4.757   4.485   7.813 -1.3144 -0.5246  0.9590
   6523SM   C2S 8362   4.901   4.391   7.926 -0.3131 -0.9174 -0.7857
   6523SM   H2S 8363   5.002   4.429   7.951  0.0985 -1.8737 -0.9658
   6523SM   C3S 8364   4.910   4.280   7.813 -0.4156 -0.5010 -0.2627
   6523SM   H3S 8365   4.809   4.238   7.797 -0.5870 -0.1999  0.0158
   6523SM    O3 8366   4.981   4.158   7.833 -0.1131  0.0026  0.7171
   6523SM   HO3 8367   4.996   4.160   7.928  0.4648 -0.6463  0.6466
   6523SM   C4S 8368   4.949   4.359   7.683 -0.0424  0.0385 -0.9566
   6523SM   H4S 8369   4.862   4.398   7.628  0.5629  2.0482 -0.5757
   6523SM   C5S 8370   5.081   4.381   7.650  0.1253 -0.2337 -0.0972
   6523SM   H5S 8371   5.165   4.340   7.707  0.0986  0.4338  0.4329
   6523SM   C6S 8372   5.114   4.449   7.524 -0.3752  0.3140  0.6279
   6523SM   H6S 8373   5.216   4.418   7.493 -0.7236 -1.0269  0.7401
   6523SM   H6T 8374   5.100   4.558   7.542  0.7960  0.5388  0.2202
   6523SM   C7S 8375   5.029   4.413   7.400 -0.3374  0.0838  0.4479
   6523SM   H7S 8376   4.927   4.457   7.409  1.1157  3.6188  1.2299
   6523SM   H7T 8377   5.022   4.303   7.386  1.8187  0.0815 -0.9877
   6523SM   C8S 8378   5.088   4.474   7.272 -0.0273  0.3354 -0.1489
   6523SM   H8S 8379   5.187   4.435   7.240 -0.2925 -0.9251  0.5283
   6523SM   H8T 8380   5.099   4.584   7.287  1.3679  0.3858 -1.3313
   6523SM   C9S 8381   4.996   4.440   7.148 -0.0652 -0.2978  0.1491
   6523SM   H9S 8382   4.891   4.465   7.172  0.5943  1.8348  1.1297
   6523SM   H9T 8383   5.011   4.331   7.134  0.1499 -0.3079  0.4373
   6523SM  C10S 8384   5.044   4.520   7.026  0.2076  0.1244 -0.2543
   6523SM  H10S 8385   5.141   4.476   6.995  0.7945  0.9696  0.3292
   6523SM  H10T 8386   5.038   4.629   7.045 -1.4362 -0.4073  2.9992
   6523SM  C11S 8387   4.953   4.508   6.900 -0.2552  0.2533 -0.0896
   6523SM  H11S 8388   4.861   4.562   6.930 -1.7701 -1.5168 -1.3101
   6523SM  H11T 8389   4.929   4.401   6.882  0.7777  0.1942 -1.2387
   6523SM  C12S 8390   5.029   4.569   6.785 -0.0972 -0.7901 -0.1059
   6523SM  H12S 8391   5.125   4.512   6.775 -0.5554 -1.4397 -0.9415
   6523SM  H12T 8392   5.051   4.677   6.800 -1.5346 -0.4120 -0.5834
   6523SM  C13S 8393   4.955   4.550   6.648 -0.3654  0.0927  0.3086
   6523SM  H13S 8394   5.035   4.569   6.573 -0.1106  0.8808  0.7620
   6523SM  H13T 8395   4.876   4.627   6.636  1.7587  2.5007  0.9618
   6523SM  C14S 8396   4.905   4.411   6.609  0.1465 -0.2614  0.2167
   6523SM  H14S 8397   4.858   4.413   6.508 -0.5586 -2.5228  0.4338
   6523SM  H14T 8398   4.824   4.371   6.674  0.3751 -0.7672  0.1986
   6523SM  C15S 8399   5.019   4.307   6.596  0.0072 -0.2730  0.1127
   6523SM  H15S 8400   5.087   4.310   6.684  2.1881  0.1642 -1.4849
   6523SM  H15T 8401   5.082   4.334   6.508 -1.6038  2.1681 -0.3797
   6523SM  C16S 8402   4.988   4.158   6.561  0.2957  0.4152  0.5127
   6523SM  H16S 8403   4.936   4.120   6.652  4.0596 -1.8860  1.9398
   6523SM  H16T 8404   5.086   4.106   6.569 -0.3599 -0.9526 -0.1045
   6523SM  C17S 8405   4.902   4.130   6.434  0.4115  0.3371  0.2211
   6523SM  H17S 8406   4.812   4.190   6.459  0.6949  0.3299  1.3379
   6523SM  H17T 8407   4.869   4.024   6.431 -1.5823  0.9205  0.1000
   6523SM  C18S 8408   4.966   4.165   6.295 -0.4033  0.1411  0.0950
   6523SM  H18S 8409   5.077   4.154   6.296 -0.5458 -1.7539  0.2109
   6523SM  H18T 8410   4.933   4.267   6.267 -1.1026  0.8080  3.0275
   6523SM  H18U 8411   4.928   4.089   6.222  2.2977 -0.1523 -1.1399
   6523SM   C1F 8412   4.829   4.622   7.953  0.1843 -0.0533  0.9408
   6523SM    OF 8413   4.914   4.640   8.039 -0.0207  1.1380 -0.3522
   6523SM   C2F 8414   4.743   4.735   7.906 -0.5325 -0.3933 -0.1547
   6523SM   H2F 8415   4.688   4.780   7.991  0.4965  0.3064  0.1548
   6523SM   H2G 8416   4.657   4.697   7.847 -1.7076  3.0239 -0.8902
   6523SM   C3F 8417   4.834   4.848   7.843  0.3826 -0.0010  0.7193
   6523SM   H3F 8418   4.907   4.873   7.922  1.1365  0.3427 -0.0727
   6523SM   H3G 8419   4.765   4.935   7.835 -0.5659 -0.7881 -0.0285
   6523SM   C4F 8420   4.907   4.812   7.716  0.1207  0.2328 -0.2614
   6523SM   H4F 8421   4.842   4.747   7.654 -2.0325  3.7075 -1.9776
   6523SM   H4G 8422   5.004   4.763   7.738  0.2174  1.3132  2.0000
   6523SM   C5F 8423   4.938   4.947   7.648 -0.4327  0.3284  0.2881
   6523SM   H5F 8424   5.003   5.012   7.711  1.3760 -0.6877 -0.4536
   6523SM   H5G 8425   4.852   5.012   7.623  1.9017  2.7643 -2.1405
   6523SM   C6F 8426   5.003   4.924   7.506 -0.5013 -0.2360  0.5328
   6523SM   H6F 8427   5.104   4.879   7.513 -1.0948 -1.7872 -0.2816
   6523SM   H6G 8428   5.021   5.017   7.448 -0.4841  0.2114  1.2363
   6523SM   C7F 8429   4.906   4.854   7.404 -0.1972 -0.2713  0.4043
   6523SM   H7F 8430   4.808   4.906   7.410  0.8503  2.2205 -1.8489
   6523SM   H7G 8431   4.881   4.748   7.422 -1.7682  0.0266  0.1220
   6523SM   C8F 8432   4.952   4.871   7.260  0.5089 -0.2857 -0.0463
   6523SM   H8F 8433   5.044   4.809   7.260  1.6548  1.3304 -0.0302
   6523SM   H8G 8434   4.971   4.981   7.252 -0.4082 -0.1935 -1.2702
   6523SM   C9F 8435   4.851   4.818   7.152  0.4309 -0.3869  0.6497
   6523SM   H9F 8436   4.751   4.839   7.196 -0.8492 -2.6742 -0.9251
   6523SM   H9G 8437   4.866   4.709   7.138  1.6179 -0.0872 -0.6377
   6523SM  C10F 8438   4.865   4.898   7.019 -0.2403 -0.2271  0.2015
   6523SM  H10F 8439   4.959   4.884   6.960  1.1910 -1.8609  2.6764
   6523SM  H10G 8440   4.877   5.001   7.058  1.0152 -0.4544  0.4793
   6523SM  C11F 8441   4.741   4.898   6.924  0.1764 -0.4593  0.4619
   6523SM  H11F 8442   4.657   4.929   6.989  0.3169 -0.0967  0.4770
   6523SM  H11G 8443   4.727   4.796   6.883 -0.9559  0.4417 -1.5525
   6523SM  C12F 8444   4.773   5.000   6.807 -0.7277  0.3558 -0.1923
   6523SM  H12F 8445   4.854   4.957   6.745 -3.3237 -3.7654 -1.1476
   6523SM  H12G 8446   4.810   5.102   6.833  1.7550 -0.1323 -1.5743
   6523SM  C13F 8447   4.655   5.023   6.713  0.0352 -0.4334  0.0866
   6523SM  H13F 8448   4.595   5.106   6.758 -2.1495 -1.0600 -1.5147
   6523SM  H13G 8449   4.599   4.928   6.701 -1.0299  0.1286  0.4772
   6523SM  C14F 8450   4.701   5.071   6.576 -0.0759  0.5804  0.3588
   6523SM  H14F 8451   4.791   5.136   6.575 -0.9274  1.8250 -1.7854
   6523SM  H14G 8452   4.617   5.135   6.542  1.2353  2.1611  0.0025
   6523SM  C15F 8453   4.731   4.955   6.477  0.4856 -0.6169 -0.5517
   6523SM  H15F 8454   4.628   4.929   6.443  0.1801  0.2983 -0.3666
   6523SM  H15G 8455   4.774   4.866   6.527 -0.0291 -0.7115 -0.2726
   6523SM  C16F 8456   4.821   4.991   6.359 -0.3364 -0.1163 -0.1537
   6523SM  H16F 8457   4.919   5.016   6.405 -0.8614  0.8717  0.4705
   6523SM  H16G 8458   4.791   5.077   6.296  1.9300 -0.1589 -1.4055
   6523SM  C17F 8459   4.823   4.874   6.268 -0.6537  0.2445 -0.1148
   6523SM  H17F 8460   4.728   4.858   6.212  0.4597  1.0497 -2.3880
   6523SM  H17G 8461   4.860   4.787   6.326 -1.6120  0.1903  0.4209
   6523SM  C18F 8462   4.923   4.908   6.153  0.2399  0.0806 -1.0500
   6523SM  H18F 8463   4.901   5.007   6.109  0.0537  0.7612  0.5275
   6523SM  H18G 8464   4.913   4.829   6.075 -0.4557 -0.3212 -0.5630
   6523SM  C19F 8465   5.071   4.908   6.184  0.4631 -0.2060 -0.0861
   6523SM  H19F 8466   5.104   4.812   6.231 -0.7643 -0.2043  0.8382
   6523SM  H19G 8467   5.090   4.987   6.259  3.0298 -0.5647 -0.2844
   6523SM  C20F 8468   5.159   4.954   6.069 -0.1868 -0.1246 -0.0246
   6523SM  H20F 8469   5.117   5.044   6.020  1.1157  0.1155 -0.7481
   6523SM  H20G 8470   5.151   4.874   5.992 -2.1294  0.7153 -0.7452
   6523SM  C21F 8471   5.301   4.995   6.108  0.5421  0.3640  0.5725
   6523SM  H21F 8472   5.362   4.915   6.155 -0.8099 -1.8088 -1.1324
   6523SM  H21G 8473   5.302   5.089   6.166 -0.6993  0.2533  0.8012
   6523SM  C22F 8474   5.382   5.026   5.976  0.0713 -0.5176  0.2003
   6523SM  H22F 8475   5.347   5.122   5.932  1.6823 -1.1075 -2.6279
   6523SM  H22G 8476   5.364   4.944   5.903 -0.6633 -1.7553  1.7085
   6523SM  C23F 8477   5.532   5.039   6.000  0.6259 -0.7989 -0.1120
   6523SM  H23F 8478   5.588   5.070   5.908  1.1872  0.8315  0.7396
   6523SM  H23G 8479   5.572   4.941   6.033  1.3501 -0.4021  0.2059
   6523SM  H23H 8480   5.571   5.110   6.076  0.9161  0.7412 -1.6156
   6623SM     N 8481   3.863   2.856   9.043 -0.6592 -0.1309 -0.2804
   6623SM   C15 8482   3.766   2.799   9.149  0.5937  0.6366  0.7019
   6623SM  H15A 8483   3.762   2.691   9.153 -0.5528  0.6379 -0.0012
   6623SM  H15B 8484   3.666   2.828   9.121 -0.1106 -1.1582  1.1781
   6623SM  H15C 8485   3.791   2.831   9.249  0.3834 -0.5808  1.1695
   6623SM   C14 8486   3.857   3.005   9.066  0.1641  0.1728 -0.2838
   6623SM  H14A 8487   3.877   3.022   9.170 -0.7713 -1.0018  0.1053
   6623SM  H14B 8488   3.753   3.034   9.058 -0.0745 -0.6383 -0.1435
   6623SM  H14C 8489   3.925   3.064   9.006 -0.0966  1.7145  0.8840
   6623SM   C13 8490   4.004   2.815   9.088  0.1735  0.4581 -1.0334
   6623SM  H13A 8491   4.005   2.709   9.109 -1.1511  1.0240  2.5059
   6623SM  H13B 8492   4.034   2.866   9.178  1.3320 -1.7821 -0.0496
   6623SM  H13C 8493   4.081   2.841   9.016  0.7495  1.8317  0.0432
   6623SM   C12 8494   3.833   2.815   8.903  0.1925 -1.5047  0.2675
   6623SM  H12A 8495   3.904   2.866   8.840 -1.1624 -0.7993 -0.7584
   6623SM  H12B 8496   3.741   2.862   8.871  0.5259 -1.5106 -0.7489
   6623SM   C11 8497   3.827   2.671   8.860  0.0041 -0.5000  0.3511
   6623SM  H11A 8498   3.929   2.639   8.891  2.2681  2.7738 -2.8602
   6623SM  H11B 8499   3.828   2.664   8.749 -0.8312  1.2373  0.2000
   6623SM     P 8500   3.580   2.608   8.871  0.3405 -0.4192  0.4545
   6623SM   O13 8501   3.503   2.506   8.943 -0.2331  0.6011 -0.5244
   6623SM   O14 8502   3.524   2.746   8.877  0.1597 -0.3335  0.2320
   6623SM   O11 8503   3.586   2.574   8.718 -0.2794  0.2744 -0.4469
   6623SM   O12 8504   3.729   2.598   8.921  0.3914  0.2912 -0.6696
   6623SM   C1S 8505   3.615   2.442   8.662 -0.1089  0.9474  0.2696
   6623SM   H1S 8506   3.521   2.384   8.676 -0.7345  2.0780  0.8574
   6623SM   H1T 8507   3.712   2.396   8.693  0.4725  0.9168 -1.4939
   6623SM    NF 8508   3.631   2.308   8.456  0.2468 -0.1353  0.1243
   6623SM   HNF 8509   3.722   2.271   8.442  0.8458  1.1741  0.4530
   6623SM   C2S 8510   3.633   2.442   8.506  0.7036 -0.2706  0.7171
   6623SM   H2S 8511   3.549   2.507   8.471  1.2899  2.2101  3.4765
   6623SM   C3S 8512   3.766   2.525   8.481 -0.2964 -0.0500 -0.1123
   6623SM   H3S 8513   3.857   2.482   8.529  0.9073  0.7860 -1.5495
   6623SM    O3 8514   3.747   2.666   8.519 -0.0047 -0.0001  0.1263
   6623SM   HO3 8515   3.675   2.651   8.581 -1.5165 -1.3720 -1.8029
   6623SM   C4S 8516   3.798   2.529   8.326  0.9568 -0.0099  0.4886
   6623SM   H4S 8517   3.903   2.507   8.306  0.9376  0.3892 -0.0801
   6623SM   C5S 8518   3.732   2.591   8.226  0.1978 -0.4406  1.3701
   6623SM   H5S 8519   3.639   2.645   8.251 -1.7412 -1.8575 -2.0211
   6623SM   C6S 8520   3.775   2.599   8.083  0.1492 -0.0218  0.4341
   6623SM   H6S 8521   3.865   2.534   8.073  0.5603  0.4834  0.7934
   6623SM   H6T 8522   3.818   2.701   8.069 -0.1473  0.0687  0.1904
   6623SM   C7S 8523   3.675   2.570   7.974  0.9067 -0.0061 -0.0397
   6623SM   H7S 8524   3.579   2.624   7.990  0.1897 -1.5953  1.2478
   6623SM   H7T 8525   3.654   2.461   7.980  0.6984 -0.2611 -3.4186
   6623SM   C8S 8526   3.734   2.588   7.834  0.1921 -0.8871 -0.0799
   6623SM   H8S 8527   3.816   2.513   7.819 -0.1941 -1.6256  1.3366
   6623SM   H8T 8528   3.769   2.692   7.818  0.0226 -0.8231 -0.0322
   6623SM   C9S 8529   3.624   2.565   7.725 -0.1059  0.0387  0.0889
   6623SM   H9S 8530   3.543   2.636   7.752 -0.1210 -0.4865  1.5501
   6623SM   H9T 8531   3.595   2.458   7.735 -1.3483  0.2882 -0.7167
   6623SM  C10S 8532   3.679   2.592   7.586  0.0552 -0.0701 -0.5458
   6623SM  H10S 8533   3.768   2.527   7.569 -0.4911 -0.5118 -1.8361
   6623SM  H10T 8534   3.706   2.699   7.569  2.7415 -0.6902 -0.7107
   6623SM  C11S 8535   3.579   2.555   7.479 -0.5450  0.2160 -0.0172
   6623SM  H11S 8536   3.485   2.611   7.498 -2.6045 -2.5753 -1.3128
   6623SM  H11T 8537   3.557   2.447   7.483  1.5862 -0.3020 -0.8318
   6623SM  C12S 8538   3.642   2.581   7.342 -0.5261 -0.4063  0.2442
   6623SM  H12S 8539   3.733   2.520   7.331  1.3208  2.2250  0.0021
   6623SM  H12T 8540   3.662   2.689   7.326  0.9777 -0.4549  1.6585
   6623SM  C13S 8541   3.533   2.548   7.242 -1.1882 -0.1026 -0.0129
   6623SM  H13S 8542   3.447   2.618   7.245 -0.4182  0.8754 -0.1203
   6623SM  H13T 8543   3.498   2.445   7.262  0.2034 -0.5747  0.1433
   6623SM  C14S 8544   3.592   2.540   7.100  0.5235 -0.6397  0.7123
   6623SM  H14S 8545   3.694   2.496   7.101  1.5071  1.5579  1.8315
   6623SM  H14T 8546   3.602   2.645   7.064 -1.1464 -0.7272 -0.1359
   6623SM  C15S 8547   3.506   2.468   7.000 -0.1038  0.4545  0.8291
   6623SM  H15S 8548   3.422   2.540   6.984 -1.2580 -1.5561 -3.6559
   6623SM  H15T 8549   3.454   2.382   7.047 -0.7390  0.3428 -0.0498
   6623SM  C16S 8550   3.569   2.428   6.873 -1.1342  0.6852  0.2145
   6623SM  H16S 8551   3.608   2.324   6.874 -0.6776  0.8300 -0.7699
   6623SM  H16T 8552   3.666   2.481   6.864 -2.1593  2.5888 -0.2467
   6623SM  C17S 8553   3.481   2.456   6.744  0.4056  0.4409  0.4370
   6623SM  H17S 8554   3.480   2.567   6.739 -1.0040  0.3879 -2.3418
   6623SM  H17T 8555   3.380   2.412   6.758 -1.6054  3.2244 -3.4847
   6623SM  C18S 8556   3.540   2.418   6.608 -0.5536 -0.5031 -0.2580
   6623SM  H18S 8557   3.567   2.310   6.604  0.8606 -0.1805 -0.0295
   6623SM  H18T 8558   3.638   2.466   6.585 -0.0426 -0.4016  1.8473
   6623SM  H18U 8559   3.478   2.445   6.520 -0.9342 -1.0261 -0.1528
   6623SM   C1F 8560   3.518   2.239   8.441  0.3185  0.1028 -0.1434
   6623SM    OF 8561   3.420   2.280   8.493  0.6031  0.3045 -0.2035
   6623SM   C2F 8562   3.515   2.124   8.352  0.3103  0.9101  0.0962
   6623SM   H2F 8563   3.425   2.150   8.291  0.3921  2.4199  0.5584
   6623SM   H2G 8564   3.496   2.034   8.414 -3.1728  1.6579  0.3385
   6623SM   C3F 8565   3.629   2.100   8.258  0.3382 -0.0329 -0.2822
   6623SM   H3F 8566   3.617   1.997   8.217 -0.1314 -0.2536  0.3969
   6623SM   H3G 8567   3.730   2.108   8.304  0.8759  0.9775 -1.5636
   6623SM   C4F 8568   3.626   2.191   8.132  0.3721  0.3704 -0.5170
   6623SM   H4F 8569   3.710   2.259   8.156 -0.6628  0.7956  2.2381
   6623SM   H4G 8570   3.532   2.250   8.124  0.3353  0.2142 -1.3316
   6623SM   C5F 8571   3.655   2.110   8.008  0.1535  0.3742 -0.5304
   6623SM   H5F 8572   3.589   2.021   8.017 -0.6599  1.1066  1.3034
   6623SM   H5G 8573   3.761   2.075   8.016 -0.2109 -0.8066 -0.6324
   6623SM   C6F 8574   3.622   2.178   7.873  0.4569 -0.1645  0.5392
   6623SM   H6F 8575   3.660   2.280   7.850 -0.5000 -0.0066 -0.4333
   6623SM   H6G 8576   3.514   2.206   7.878  0.8160  3.4319 -4.2039
   6623SM   C7F 8577   3.635   2.081   7.748 -0.0134  0.2477  0.3285
   6623SM   H7F 8578   3.577   1.987   7.765  2.2011 -1.1636  0.5402
   6623SM   H7G 8579   3.741   2.049   7.748  1.3062  4.0665  1.7816
   6623SM   C8F 8580   3.599   2.148   7.612 -0.7120 -0.0123 -0.8092
   6623SM   H8F 8581   3.681   2.214   7.579  0.5553 -3.0820 -4.5426
   6623SM   H8G 8582   3.511   2.215   7.612 -0.5558  0.2848 -3.3455
   6623SM   C9F 8583   3.565   2.041   7.499 -0.4228  0.4236 -0.9418
   6623SM   H9F 8584   3.473   1.996   7.540  1.1423 -1.1449  1.0657
   6623SM   H9G 8585   3.653   1.973   7.488 -0.7045 -0.1112  0.0148
   6623SM  C10F 8586   3.541   2.106   7.366 -0.8657 -0.1393 -0.2849
   6623SM  H10F 8587   3.629   2.172   7.352 -0.5287  0.3813  3.2546
   6623SM  H10G 8588   3.445   2.161   7.369 -0.9382 -0.2940  0.7038
   6623SM  C11F 8589   3.529   2.014   7.251 -0.1974  0.5712  0.2686
   6623SM  H11F 8590   3.447   1.942   7.276  1.5218 -1.5887 -0.0140
   6623SM  H11G 8591   3.615   1.951   7.221 -0.3301  0.0334  0.9794
   6623SM  C12F 8592   3.490   2.109   7.130 -0.0033  0.1244 -0.4290
   6623SM  H12F 8593   3.578   2.170   7.102  0.6727 -1.6416 -2.3986
   6623SM  H12G 8594   3.415   2.186   7.160 -0.1145 -0.0744 -0.1892
   6623SM  C13F 8595   3.430   2.029   7.014 -0.8535  0.1376  0.1893
   6623SM  H13F 8596   3.390   2.096   6.935 -0.1419 -0.3050 -0.5560
   6623SM  H13G 8597   3.347   1.963   7.049 -0.3945 -0.2414  0.5937
   6623SM  C14F 8598   3.524   1.931   6.943 -0.2900  0.5927  0.2335
   6623SM  H14F 8599   3.572   1.878   7.028 -1.5314  0.3508  0.8102
   6623SM  H14G 8600   3.594   1.998   6.889 -0.3576 -0.0808 -0.7120
   6623SM  C15F 8601   3.444   1.834   6.850 -0.4511 -0.1927  0.1637
   6623SM  H15F 8602   3.355   1.802   6.908  0.0843  0.4397  1.3609
   6623SM  H15G 8603   3.500   1.744   6.817 -0.3001 -0.6535  1.6042
   6623SM  C16F 8604   3.407   1.892   6.713  0.3417 -0.5174 -0.1489
   6623SM  H16F 8605   3.499   1.895   6.651  0.8509 -1.0951  0.5589
   6623SM  H16G 8606   3.371   1.997   6.702 -0.7740 -0.8581  0.1249
   6623SM  C17F 8607   3.306   1.803   6.643 -0.7994 -0.0247  0.7819
   6623SM  H17F 8608   3.203   1.805   6.683  0.0605  0.3719  3.1080
   6623SM  H17G 8609   3.345   1.701   6.661  1.9663  0.6914 -0.6078
   6623SM  C18F 8610   3.304   1.829   6.495 -0.0908  0.4571  0.7990
   6623SM  H18F 8611   3.394   1.875   6.450 -0.4521  1.0056  0.6195
   6623SM  H18G 8612   3.213   1.888   6.470 -0.0988  0.2702  0.3743
   6623SM  C19F 8613   3.288   1.697   6.410  0.0413 -0.3884  0.2702
   6623SM  H19F 8614   3.239   1.625   6.479 -1.2427 -0.3101 -0.5292
   6623SM  H19G 8615   3.384   1.660   6.367  1.2222 -1.1069  3.2592
   6623SM  C20F 8616   3.187   1.715   6.301  0.5772  0.9010  0.2307
   6623SM  H20F 8617   3.225   1.792   6.230  1.3773  1.5862  1.3698
   6623SM  H20G 8618   3.089   1.744   6.345 -0.4702 -0.8857 -0.7972
   6623SM  C21F 8619   3.166   1.575   6.219 -0.2369 -0.6298 -0.2695
   6623SM  H21F 8620   3.099   1.504   6.273 -1.9854  1.0286 -0.1416
   6623SM  H21G 8621   3.266   1.530   6.202 -0.3459 -0.2202 -2.1565
   6623SM  C22F 8622   3.104   1.604   6.084  0.7130  0.6639  0.1336
   6623SM  H22F 8623   3.153   1.689   6.034  2.2181 -0.3006 -0.1127
   6623SM  H22G 8624   2.998   1.627   6.109  0.6289 -0.6648  1.1713
   6623SM  C23F 8625   3.106   1.472   5.998  0.3153 -0.2210 -0.1590
   6623SM  H23F 8626   3.044   1.475   5.906  1.7580 -2.0506 -1.2639
   6623SM  H23G 8627   3.066   1.386   6.056  2.3282 -1.2182 -0.1408
   6623SM  H23H 8628   3.208   1.437   5.969  0.8965  1.9513 -0.9339
   6723SM     N 8629   3.272   5.505   8.751 -0.1499  0.1743 -0.4304
   6723SM   C15 8630   3.283   5.543   8.893 -0.0798  0.3253  1.1230
   6723SM  H15A 8631   3.379   5.512   8.930 -0.1981 -1.7598 -0.1322
   6723SM  H15B 8632   3.213   5.499   8.962  0.2797 -2.0085  0.0991
   6723SM  H15C 8633   3.290   5.651   8.889 -0.4730  0.3326 -1.6215
   6723SM   C14 8634   3.353   5.599   8.672 -0.1689 -0.9185  0.2480
   6723SM  H14A 8635   3.329   5.700   8.702  1.5164 -0.4491  0.0796
   6723SM  H14B 8636   3.353   5.597   8.564  1.7108  1.7246  0.1119
   6723SM  H14C 8637   3.454   5.581   8.705 -1.5706 -0.5785  5.5924
   6723SM   C13 8638   3.323   5.361   8.737 -0.6165 -0.0684 -0.4423
   6723SM  H13A 8639   3.319   5.337   8.632  4.6476  0.8808 -1.1290
   6723SM  H13B 8640   3.260   5.290   8.788  0.6798 -1.7957 -1.1172
   6723SM  H13C 8641   3.427   5.349   8.766 -0.8321 -1.4614 -0.1854
   6723SM   C12 8642   3.126   5.503   8.717  0.0130  0.0774 -0.2594
   6723SM  H12A 8643   3.081   5.602   8.714 -1.2110 -0.4543 -0.0773
   6723SM  H12B 8644   3.069   5.454   8.795  1.6354 -2.0811 -0.3488
   6723SM   C11 8645   3.064   5.437   8.600 -0.6499 -0.0521  0.4809
   6723SM  H11A 8646   2.966   5.483   8.579 -0.4245 -0.4460 -1.6441
   6723SM  H11B 8647   3.047   5.329   8.618  0.6231 -0.7476 -1.9831
   6723SM     P 8648   3.147   5.344   8.378 -0.2714  0.0550  0.2051
   6723SM   O13 8649   3.218   5.228   8.438 -0.5218 -0.6709  0.2627
   6723SM   O14 8650   3.008   5.320   8.333  0.0787 -0.0944  0.1725
   6723SM   O11 8651   3.230   5.418   8.267 -0.5517  0.1014 -0.2930
   6723SM   O12 8652   3.143   5.459   8.486  0.7526 -0.4494 -0.2255
   6723SM   C1S 8653   3.185   5.535   8.201  0.0303  0.4543  0.1226
   6723SM   H1S 8654   3.218   5.619   8.266  0.4982 -0.1563  0.6846
   6723SM   H1T 8655   3.075   5.540   8.186 -0.4402 -1.5765  2.3317
   6723SM    NF 8656   3.207   5.690   8.011  0.1396  0.7958 -0.1746
   6723SM   HNF 8657   3.152   5.693   7.928  1.4969 -0.4913 -1.1878
   6723SM   C2S 8658   3.241   5.554   8.059  0.3962  0.1714  0.0798
   6723SM   H2S 8659   3.351   5.543   8.069  0.2060 -0.4612  1.8778
   6723SM   C3S 8660   3.188   5.445   7.966  0.3499  0.4747 -0.4100
   6723SM   H3S 8661   3.077   5.451   7.962  0.1299 -1.9661 -0.0201
   6723SM    O3 8662   3.214   5.308   8.007 -0.0945 -0.5221 -0.1110
   6723SM   HO3 8663   3.252   5.320   8.094  0.8854  1.5048 -0.7433
   6723SM   C4S 8664   3.236   5.459   7.829  0.2376 -0.1893  1.1005
   6723SM   H4S 8665   3.346   5.464   7.829  0.2635 -0.2205 -0.7289
   6723SM   C5S 8666   3.171   5.445   7.716 -0.1514  0.2514  0.2449
   6723SM   H5S 8667   3.067   5.409   7.718  1.1410 -4.1878 -1.1447
   6723SM   C6S 8668   3.231   5.467   7.579 -0.0999  0.1600  0.1276
   6723SM   H6S 8669   3.337   5.500   7.583 -0.2683  0.8576 -0.7297
   6723SM   H6T 8670   3.171   5.546   7.529  0.5974  0.5891 -0.0462
   6723SM   C7S 8671   3.222   5.348   7.476  0.1736 -0.3960  0.0534
   6723SM   H7S 8672   3.114   5.327   7.458 -0.4318  1.7716  0.8800
   6723SM   H7T 8673   3.259   5.256   7.526 -0.9419 -1.2747 -0.6650
   6723SM   C8S 8674   3.296   5.355   7.349 -0.1445  0.0400 -0.1910
   6723SM   H8S 8675   3.407   5.347   7.356 -0.2475 -3.0523 -0.9255
   6723SM   H8T 8676   3.267   5.454   7.307 -2.5796 -0.5097  0.0370
   6723SM   C9S 8677   3.253   5.244   7.248 -0.0457  0.0018 -0.7884
   6723SM   H9S 8678   3.150   5.272   7.217  0.0117 -1.5110 -2.5572
   6723SM   H9T 8679   3.252   5.143   7.294 -0.8262  0.7080  0.8109
   6723SM  C10S 8680   3.342   5.234   7.124 -0.5935 -0.3739 -0.8361
   6723SM  H10S 8681   3.355   5.127   7.095 -0.2006 -0.5188 -0.1394
   6723SM  H10T 8682   3.443   5.275   7.146 -0.2668 -1.7688  0.4094
   6723SM  C11S 8683   3.278   5.319   7.017  0.4884 -0.2536  0.7296
   6723SM  H11S 8684   3.270   5.428   7.032 -3.6797  0.2590 -3.0276
   6723SM  H11T 8685   3.175   5.281   7.002  0.4791  0.2041 -0.3898
   6723SM  C12S 8686   3.355   5.319   6.884 -0.5034 -0.2200  0.1098
   6723SM  H12S 8687   3.451   5.373   6.894 -0.9689  1.0100 -1.5376
   6723SM  H12T 8688   3.296   5.377   6.810 -1.1825 -0.3429  0.5494
   6723SM  C13S 8689   3.378   5.177   6.829  0.5737 -0.0361  0.1792
   6723SM  H13S 8690   3.275   5.137   6.827  0.4068  0.3141  1.2187
   6723SM  H13T 8691   3.429   5.104   6.894 -0.6126 -1.1929 -0.1547
   6723SM  C14S 8692   3.455   5.183   6.698 -0.4657  0.2363  0.0913
   6723SM  H14S 8693   3.463   5.079   6.661 -0.8467  0.7724 -1.5962
   6723SM  H14T 8694   3.560   5.214   6.713 -0.0113 -0.8363 -0.7575
   6723SM  C15S 8695   3.399   5.273   6.583 -0.0966  0.4164 -0.4501
   6723SM  H15S 8696   3.409   5.379   6.616  1.6872  1.0315 -2.6560
   6723SM  H15T 8697   3.291   5.249   6.575  0.0907 -0.5124 -0.3260
   6723SM  C16S 8698   3.476   5.263   6.447 -0.7340  0.8651  0.1594
   6723SM  H16S 8699   3.508   5.159   6.425  2.7715  1.4434  1.6861
   6723SM  H16T 8700   3.572   5.319   6.447  1.7796 -3.0441 -1.5114
   6723SM  C17S 8701   3.397   5.318   6.334 -0.8713 -0.1898  0.1657
   6723SM  H17S 8702   3.355   5.418   6.358  1.2315  0.6053  0.7273
   6723SM  H17T 8703   3.312   5.249   6.313 -1.5328  0.0969  1.7114
   6723SM  C18S 8704   3.471   5.345   6.200 -0.7389  0.4990  0.0294
   6723SM  H18S 8705   3.390   5.341   6.124 -1.1022 -4.0369  0.3746
   6723SM  H18T 8706   3.529   5.251   6.191 -2.0148 -0.4577  1.2559
   6723SM  H18U 8707   3.532   5.437   6.207  1.2117 -0.7941  0.8409
   6723SM   C1F 8708   3.235   5.815   8.065 -0.1061  0.6435  0.3461
   6723SM    OF 8709   3.293   5.818   8.176  0.5094  0.5080  0.1341
   6723SM   C2F 8710   3.184   5.934   7.983  0.1217 -0.8814  0.1258
   6723SM   H2F 8711   3.169   6.012   8.062 -1.6273 -2.5759  1.5597
   6723SM   H2G 8712   3.091   5.902   7.932 -1.1471 -1.3385  2.5572
   6723SM   C3F 8713   3.290   5.980   7.879  0.4295  0.2476 -0.4787
   6723SM   H3F 8714   3.390   5.955   7.921 -0.3720 -2.0985  0.2166
   6723SM   H3G 8715   3.279   6.090   7.881  0.6702  0.3154 -1.9820
   6723SM   C4F 8716   3.283   5.919   7.739  0.2314  0.2532  0.1070
   6723SM   H4F 8717   3.330   5.992   7.669  0.8955 -1.4311 -1.2801
   6723SM   H4G 8718   3.178   5.910   7.704  0.5151  0.8465 -0.9699
   6723SM   C5F 8719   3.360   5.785   7.734  0.7179 -0.8656 -0.2398
   6723SM   H5F 8720   3.290   5.701   7.713 -0.1391  0.4506 -3.2592
   6723SM   H5G 8721   3.405   5.768   7.834  0.4805  0.3915  0.1052
   6723SM   C6F 8722   3.466   5.782   7.622 -0.4550  0.5441  0.7789
   6723SM   H6F 8723   3.515   5.682   7.630  0.7338  1.2352  2.8349
   6723SM   H6G 8724   3.551   5.851   7.642 -0.2692  0.2786  0.9213
   6723SM   C7F 8725   3.404   5.800   7.482 -0.7136  0.0853 -0.1947
   6723SM   H7F 8726   3.386   5.908   7.463  1.7813  0.7898  0.9687
   6723SM   H7G 8727   3.309   5.743   7.478  0.6003 -2.4226  1.3914
   6723SM   C8F 8728   3.487   5.754   7.354  0.0840  0.2010 -0.1169
   6723SM   H8F 8729   3.516   5.648   7.372  1.9299  0.5428 -0.8982
   6723SM   H8G 8730   3.578   5.817   7.343 -0.3636  1.1026  1.0854
   6723SM   C9F 8731   3.396   5.759   7.227 -0.3291  0.2993 -0.3485
   6723SM   H9F 8732   3.374   5.867   7.212 -0.2152  0.9115  3.0678
   6723SM   H9G 8733   3.301   5.702   7.233 -0.0794 -0.2762 -1.6981
   6723SM  C10F 8734   3.467   5.705   7.103 -0.3192  0.0128  0.7052
   6723SM  H10F 8735   3.482   5.597   7.126 -1.5475 -0.1971  0.5796
   6723SM  H10G 8736   3.564   5.752   7.076  1.0899 -4.0904 -2.4943
   6723SM  C11F 8737   3.388   5.726   6.975 -0.3899  0.5292 -0.5930
   6723SM  H11F 8738   3.345   5.828   6.980 -0.8571  0.3013  0.0872
   6723SM  H11G 8739   3.294   5.667   6.969 -0.9609  1.4229 -0.6217
   6723SM  C12F 8740   3.477   5.702   6.850 -0.2753 -0.5882 -0.2621
   6723SM  H12F 8741   3.505   5.595   6.840 -0.9489 -0.7780 -0.2068
   6723SM  H12G 8742   3.571   5.758   6.866  0.8458 -2.0659 -1.3212
   6723SM  C13F 8743   3.413   5.749   6.717  0.1510 -0.1106  0.8548
   6723SM  H13F 8744   3.411   5.859   6.728  2.1020 -0.0204  0.7194
   6723SM  H13G 8745   3.310   5.711   6.704 -0.2463  0.4498  2.2359
   6723SM  C14F 8746   3.497   5.722   6.594  0.2861 -0.5420 -0.5984
   6723SM  H14F 8747   3.520   5.614   6.597  1.8761 -0.1969  0.6574
   6723SM  H14G 8748   3.595   5.773   6.594  0.2883 -0.5232  0.7487
   6723SM  C15F 8749   3.413   5.740   6.462  0.4314  0.4848 -0.1683
   6723SM  H15F 8750   3.382   5.846   6.448 -0.3238  0.2655 -0.2387
   6723SM  H15G 8751   3.323   5.676   6.473  0.4523  0.7536  1.8140
   6723SM  C16F 8752   3.485   5.703   6.335 -0.2946  0.3369 -0.2260
   6723SM  H16F 8753   3.526   5.600   6.335 -0.1011  0.4071 -1.0359
   6723SM  H16G 8754   3.574   5.769   6.345 -0.2289  0.4089 -1.1724
   6723SM  C17F 8755   3.403   5.739   6.213 -0.3011  0.5711 -0.3842
   6723SM  H17F 8756   3.374   5.845   6.230  1.2452  0.8277  0.8287
   6723SM  H17G 8757   3.305   5.686   6.208  0.5828 -1.1607 -0.0411
   6723SM  C18F 8758   3.472   5.711   6.080 -0.6816 -0.3717 -0.2330
   6723SM  H18F 8759   3.534   5.619   6.078  1.3443  0.8006  2.4154
   6723SM  H18G 8760   3.537   5.800   6.073 -1.4278  0.2788  0.7089
   6723SM  C19F 8761   3.385   5.725   5.957 -0.6972  0.1953  0.2815
   6723SM  H19F 8762   3.303   5.794   5.985 -0.3683  1.0163 -0.6865
   6723SM  H19G 8763   3.335   5.632   5.923 -2.3610  0.6399  1.4227
   6723SM  C20F 8764   3.466   5.770   5.832 -0.6625  0.6187 -0.4735
   6723SM  H20F 8765   3.547   5.698   5.806 -0.1426  0.7340  0.7574
   6723SM  H20G 8766   3.503   5.873   5.852 -1.1283  0.7350 -0.2063
   6723SM  C21F 8767   3.370   5.791   5.715  0.1552 -0.9434  0.1410
   6723SM  H21F 8768   3.438   5.839   5.641  1.1859  1.3258  2.3673
   6723SM  H21G 8769   3.285   5.853   5.751 -2.6969 -4.4135 -0.1338
   6723SM  C22F 8770   3.308   5.671   5.650 -0.3985 -0.3600 -1.1942
   6723SM  H22F 8771   3.222   5.641   5.713 -0.7433 -2.0427 -2.3948
   6723SM  H22G 8772   3.370   5.579   5.656 -0.6806 -0.4611  0.9733
   6723SM  C23F 8773   3.281   5.701   5.501  0.7788  0.8673 -0.8265
   6723SM  H23F 8774   3.375   5.732   5.451  1.9236 -0.3924  0.4562
   6723SM  H23G 8775   3.197   5.770   5.477 -0.8819 -1.4141 -2.0562
   6723SM  H23H 8776   3.239   5.608   5.456  0.4668 -0.8097  2.6134
   6823SM     N 8777   2.771   0.428   8.765  0.4850  0.4509  0.1902
   6823SM   C15 8778   2.648   0.364   8.821 -0.2758  0.3391  0.2267
   6823SM  H15A 8779   2.680   0.312   8.910  2.0064  0.8624 -0.2168
   6823SM  H15B 8780   2.601   0.291   8.757 -0.9707 -1.3290  2.5097
   6823SM  H15C 8781   2.574   0.438   8.847 -2.5401 -2.0935  1.1637
   6823SM   C14 8782   2.825   0.531   8.859  0.4344 -0.1590  0.1795
   6823SM  H14A 8783   2.914   0.575   8.818 -0.3882  2.2260  0.7836
   6823SM  H14B 8784   2.848   0.488   8.955  1.1383 -1.0965 -0.3979
   6823SM  H14C 8785   2.746   0.605   8.871 -3.3200 -3.2504 -2.7488
   6823SM   C13 8786   2.879   0.327   8.735  0.1711  0.0493  0.1227
   6823SM  H13A 8787   2.971   0.375   8.702 -0.1124 -0.8921 -2.2287
   6823SM  H13B 8788   2.852   0.254   8.660 -0.2881  0.0761  0.2614
   6823SM  H13C 8789   2.889   0.272   8.827 -1.5320  2.5993  1.9882
   6823SM   C12 8790   2.730   0.500   8.636 -0.5453  0.1908 -0.7503
   6823SM  H12A 8791   2.688   0.433   8.562 -1.0227  0.7364 -0.9790
   6823SM  H12B 8792   2.811   0.535   8.573 -0.6173  0.2437 -0.8155
   6823SM   C11 8793   2.617   0.601   8.651  0.5448  0.2047  0.0339
   6823SM  H11A 8794   2.523   0.576   8.705 -0.5386  0.4685 -1.6644
   6823SM  H11B 8795   2.582   0.628   8.550 -1.0579  3.3483  1.2903
   6823SM     P 8796   2.586   0.847   8.736 -0.3348  0.0046 -0.2907
   6823SM   O13 8797   2.459   0.801   8.795  0.0774  0.1557 -0.1026
   6823SM   O14 8798   2.667   0.952   8.811  0.2540  0.2662  0.3481
   6823SM   O11 8799   2.552   0.910   8.594 -0.3790 -0.0906 -0.1413
   6823SM   O12 8800   2.677   0.716   8.707  0.1338  0.0342 -0.1439
   6823SM   C1S 8801   2.652   0.927   8.493 -0.9288 -0.0726 -0.3053
   6823SM   H1S 8802   2.692   0.832   8.451  1.7306 -0.3318  2.4627
   6823SM   H1T 8803   2.739   0.981   8.537  0.7323 -0.3597 -2.9958
   6823SM    NF 8804   2.698   1.026   8.266 -0.3767  0.0435  0.3318
   6823SM   HNF 8805   2.767   1.098   8.260  1.3800 -1.7145 -2.7318
   6823SM   C2S 8806   2.595   1.016   8.374 -0.2735  0.4904 -0.2791
   6823SM   H2S 8807   2.500   0.972   8.337 -1.1432  1.9605  0.0890
   6823SM   C3S 8808   2.547   1.158   8.430  0.0085  0.6945 -0.2315
   6823SM   H3S 8809   2.647   1.192   8.462  0.4110 -0.8329  0.2264
   6823SM    O3 8810   2.464   1.166   8.548 -0.0650  0.4515 -0.0008
   6823SM   HO3 8811   2.480   1.083   8.594  0.1551  0.9501  0.8593
   6823SM   C4S 8812   2.508   1.245   8.322  0.6031 -0.6815 -0.3310
   6823SM   H4S 8813   2.590   1.298   8.272 -0.1527 -0.1033 -0.9855
   6823SM   C5S 8814   2.391   1.244   8.259 -0.1942  0.0320 -0.1277
   6823SM   H5S 8815   2.311   1.173   8.280 -0.0606  0.4076  1.8104
   6823SM   C6S 8816   2.368   1.328   8.137  0.2343  0.0096  0.2199
   6823SM   H6S 8817   2.420   1.425   8.149  0.8471 -0.4452  1.3830
   6823SM   H6T 8818   2.261   1.358   8.140 -0.2089 -1.5560  1.1252
   6823SM   C7S 8819   2.384   1.271   7.990  0.2763  0.2427 -1.0583
   6823SM   H7S 8820   2.305   1.196   7.971  0.9892 -0.8965  0.3564
   6823SM   H7T 8821   2.481   1.219   7.974  0.7737  1.1809 -1.2049
   6823SM   C8S 8822   2.369   1.375   7.879  0.2453 -0.2516 -0.3183
   6823SM   H8S 8823   2.455   1.446   7.878 -0.3260  0.4415 -0.3829
   6823SM   H8T 8824   2.280   1.434   7.906 -0.4129 -1.4793  0.2923
   6823SM   C9S 8825   2.356   1.309   7.743 -0.2205  0.3391  0.2285
   6823SM   H9S 8826   2.259   1.255   7.744 -0.0091 -0.1273 -1.5368
   6823SM   H9T 8827   2.437   1.234   7.732 -0.3262  0.2701 -0.0861
   6823SM  C10S 8828   2.369   1.417   7.632 -0.2173  0.4585 -0.3954
   6823SM  H10S 8829   2.477   1.440   7.631 -0.0335 -0.0564  1.9281
   6823SM  H10T 8830   2.300   1.500   7.658 -0.8326 -0.6861  1.8636
   6823SM  C11S 8831   2.336   1.351   7.491  0.5621  0.8243  0.5005
   6823SM  H11S 8832   2.243   1.294   7.511  0.8111 -0.5787 -1.9483
   6823SM  H11T 8833   2.425   1.292   7.461 -0.2258  0.7161 -1.8285
   6823SM  C12S 8834   2.320   1.457   7.386  0.3529 -0.0791 -0.0960
   6823SM  H12S 8835   2.426   1.489   7.371 -0.1046  0.9579 -1.2231
   6823SM  H12T 8836   2.266   1.547   7.421 -0.4102 -0.1666 -1.0049
   6823SM  C13S 8837   2.254   1.406   7.263 -0.6972  0.6155  0.3744
   6823SM  H13S 8838   2.152   1.369   7.290  0.4968 -3.1138  0.2814
   6823SM  H13T 8839   2.292   1.312   7.219  0.7202  1.6368 -0.6386
   6823SM  C14S 8840   2.226   1.513   7.161  0.3019 -0.3519  0.4081
   6823SM  H14S 8841   2.169   1.600   7.202  0.3715 -0.4474  0.7116
   6823SM  H14T 8842   2.156   1.474   7.084 -1.0376  0.4614  1.1627
   6823SM  C15S 8843   2.351   1.564   7.088  0.5517  0.2550 -0.3849
   6823SM  H15S 8844   2.417   1.476   7.076 -1.9775 -2.1569  1.8633
   6823SM  H15T 8845   2.390   1.648   7.149 -0.7292  1.5072 -1.2209
   6823SM  C16S 8846   2.307   1.636   6.959 -0.3349 -0.0282 -0.1529
   6823SM  H16S 8847   2.231   1.716   6.975 -2.9689 -2.4859  0.3059
   6823SM  H16T 8848   2.268   1.558   6.890  0.9747 -0.5569 -0.3291
   6823SM  C17S 8849   2.427   1.707   6.901 -0.9066 -0.6699  0.2829
   6823SM  H17S 8850   2.515   1.639   6.904  0.5185  1.0635 -0.3534
   6823SM  H17T 8851   2.463   1.789   6.967 -3.0820 -0.6088  1.5206
   6823SM  C18S 8852   2.417   1.749   6.755 -0.8047  0.1731  0.2547
   6823SM  H18S 8853   2.513   1.798   6.730  1.5403 -4.6045 -1.1376
   6823SM  H18T 8854   2.334   1.822   6.742 -0.0723  0.6281 -2.3017
   6823SM  H18U 8855   2.415   1.661   6.688 -0.5606  0.2745  0.1132
   6823SM   C1F 8856   2.721   0.925   8.183 -0.2925 -0.1737  0.1654
   6823SM    OF 8857   2.677   0.813   8.207  0.8984 -0.1383  0.3532
   6823SM   C2F 8858   2.798   0.953   8.056  0.1932  0.5792  0.3418
   6823SM   H2F 8859   2.860   0.865   8.026 -0.0218  0.2076  0.9604
   6823SM   H2G 8860   2.861   1.044   8.069  1.0140  0.4003 -2.0466
   6823SM   C3F 8861   2.696   0.962   7.944 -0.4391  0.3121  0.3213
   6823SM   H3F 8862   2.630   1.049   7.962  1.0516  1.0483  2.7171
   6823SM   H3G 8863   2.635   0.869   7.950  0.8409 -0.6429 -0.6190
   6823SM   C4F 8864   2.766   0.961   7.802 -0.4778 -0.2592  0.2197
   6823SM   H4F 8865   2.820   0.865   7.787 -1.1067 -0.5325 -0.3616
   6823SM   H4G 8866   2.832   1.050   7.799 -0.0398 -0.5962 -1.7377
   6823SM   C5F 8867   2.659   0.979   7.689 -0.3238  0.4842 -0.5744
   6823SM   H5F 8868   2.609   1.069   7.732  0.9047  0.2254  1.5395
   6823SM   H5G 8869   2.588   0.895   7.677  0.9810 -0.2017 -5.3720
   6823SM   C6F 8870   2.714   0.997   7.541  0.5255  0.0203 -0.5229
   6823SM   H6F 8871   2.783   0.912   7.526  1.8089  1.1332 -1.1437
   6823SM   H6G 8872   2.782   1.085   7.545 -0.4619  0.7733  1.4080
   6823SM   C7F 8873   2.608   1.015   7.440 -0.3959 -0.2278 -0.1092
   6823SM   H7F 8874   2.540   1.088   7.488 -0.2770  1.6446 -2.5639
   6823SM   H7G 8875   2.552   0.919   7.433  1.1096 -1.1456  0.0404
   6823SM   C8F 8876   2.648   1.065   7.302  0.5250 -0.1365  0.3198
   6823SM   H8F 8877   2.562   1.057   7.232  0.5363 -1.7954  0.4568
   6823SM   H8G 8878   2.731   1.003   7.262  0.7531  0.5258 -0.2514
   6823SM   C9F 8879   2.707   1.210   7.295 -0.3406  0.1650 -0.2047
   6823SM   H9F 8880   2.814   1.193   7.322 -0.2187  0.6856 -0.3270
   6823SM   H9G 8881   2.666   1.277   7.374 -1.5955 -0.0746 -0.6448
   6823SM  C10F 8882   2.702   1.271   7.154 -0.3197 -0.5964  0.1046
   6823SM  H10F 8883   2.598   1.268   7.114 -0.2149  0.2244 -0.2417
   6823SM  H10G 8884   2.753   1.197   7.088 -1.0258 -0.7454 -0.2865
   6823SM  C11F 8885   2.752   1.415   7.130 -0.2722  0.5281 -0.7639
   6823SM  H11F 8886   2.855   1.425   7.172 -0.6552 -1.0809  0.6568
   6823SM  H11G 8887   2.691   1.489   7.187  1.9509  2.8468 -1.1796
   6823SM  C12F 8888   2.749   1.442   6.978 -0.1070  0.1512  0.1789
   6823SM  H12F 8889   2.650   1.431   6.928 -0.1136 -0.1729  0.2587
   6823SM  H12G 8890   2.816   1.359   6.949 -0.1008  0.6322 -1.2583
   6823SM  C13F 8891   2.804   1.578   6.934  0.2541  0.3932 -0.0604
   6823SM  H13F 8892   2.731   1.652   6.975  0.9157  0.9345  0.1697
   6823SM  H13G 8893   2.791   1.577   6.824  1.4772  0.4295 -0.2175
   6823SM  C14F 8894   2.952   1.616   6.955 -0.0676 -0.1096  0.1097
   6823SM  H14F 8895   3.012   1.551   6.889  0.6383 -2.6146  2.9973
   6823SM  H14G 8896   2.978   1.589   7.060  1.2559 -1.4470 -0.5272
   6823SM  C15F 8897   2.982   1.758   6.925  0.0864  0.0884  0.0346
   6823SM  H15F 8898   2.971   1.781   6.817 -3.2950  1.0819  0.4698
   6823SM  H15G 8899   3.093   1.772   6.930  0.3680 -0.4625 -3.0381
   6823SM  C16F 8900   2.915   1.855   7.025  0.1314  0.3017 -0.4684
   6823SM  H16F 8901   2.946   1.830   7.128 -1.1920  2.9275  0.6306
   6823SM  H16G 8902   2.804   1.847   7.016  0.0888 -1.9438  1.1000
   6823SM  C17F 8903   2.959   2.001   6.998  0.3134 -0.0173 -0.3324
   6823SM  H17F 8904   3.059   2.001   7.047  1.0838  3.5700 -1.6550
   6823SM  H17G 8905   2.896   2.064   7.065  0.5512 -0.3297  0.1984
   6823SM  C18F 8906   2.972   2.044   6.857 -0.6277  0.0037  0.1116
   6823SM  H18F 8907   2.875   2.014   6.813 -2.3754  2.1057  2.3088
   6823SM  H18G 8908   3.067   1.996   6.822  0.1011  0.2241  1.7104
   6823SM  C19F 8909   3.003   2.189   6.834  0.5019  0.5226 -0.3750
   6823SM  H19F 8910   3.106   2.210   6.870  0.9590  1.8263 -2.3143
   6823SM  H19G 8911   2.935   2.244   6.902  1.2665 -1.3234  2.0451
   6823SM  C20F 8912   3.001   2.251   6.697  0.2083 -0.4545 -0.2238
   6823SM  H20F 8913   3.026   2.359   6.702 -1.2517 -0.0398 -1.1887
   6823SM  H20G 8914   2.899   2.242   6.653 -1.7949  0.2099  3.7594
   6823SM  C21F 8915   3.111   2.185   6.609  0.3632  0.4237  0.2153
   6823SM  H21F 8916   3.101   2.074   6.607 -1.3258  0.5614  0.1551
   6823SM  H21G 8917   3.206   2.206   6.663  0.7310  1.0066 -0.6355
   6823SM  C22F 8918   3.104   2.236   6.458 -0.5652  0.2051  0.4152
   6823SM  H22F 8919   3.005   2.235   6.409  0.2498 -1.6786 -1.3467
   6823SM  H22G 8920   3.172   2.167   6.403 -1.3848 -0.0650 -0.2793
   6823SM  C23F 8921   3.154   2.387   6.453 -0.2127 -0.4910 -0.4629
   6823SM  H23F 8922   3.176   2.413   6.347  0.3435 -0.8154 -0.4326
   6823SM  H23G 8923   3.237   2.420   6.520  1.1330 -0.2303 -2.1879
   6823SM  H23H 8924   3.073   2.458   6.478 -1.3425 -2.0276  0.4042
   6923SM     N 8925   5.162   2.137   9.168  0.4879  0.1860 -0.5254
   6923SM   C15 8926   5.198   2.236   9.271  0.2637  0.3803 -0.3227
   6923SM  H15A 8927   5.299   2.228   9.306 -0.0860 -0.7665  0.4726
   6923SM  H15B 8928   5.128   2.233   9.354 -0.5063  2.3297 -0.8511
   6923SM  H15C 8929   5.179   2.333   9.227 -1.4022  0.9013  1.3724
   6923SM   C14 8930   5.133   2.001   9.231  0.2084  0.1905 -0.3196
   6923SM  H14A 8931   5.227   1.960   9.265  0.3913  0.7579 -0.1439
   6923SM  H14B 8932   5.094   1.924   9.165  0.6632  1.5136 -2.2328
   6923SM  H14C 8933   5.072   2.001   9.319  1.4280 -1.6311  0.5907
   6923SM   C13 8934   5.028   2.175   9.122 -0.0160 -1.0805 -1.0431
   6923SM  H13A 8935   4.952   2.175   9.198  0.9307  1.5740  0.0104
   6923SM  H13B 8936   4.985   2.127   9.035 -1.6233 -0.5540 -0.5690
   6923SM  H13C 8937   5.032   2.278   9.091  0.1760 -0.6895  0.2166
   6923SM   C12 8938   5.255   2.114   9.049 -0.4979  0.3085  0.1677
   6923SM  H12A 8939   5.212   2.036   8.989  1.4466 -0.9551  0.3282
   6923SM  H12B 8940   5.346   2.064   9.079 -0.7563 -1.9270 -2.4436
   6923SM   C11 8941   5.292   2.236   8.968  0.1853  0.0584 -1.0211
   6923SM  H11A 8942   5.356   2.206   8.882 -0.0621  1.9393 -1.9254
   6923SM  H11B 8943   5.350   2.314   9.024 -0.2464 -0.1024 -0.3367
   6923SM     P 8944   5.196   2.427   8.819  0.2551  0.1690 -0.3573
   6923SM   O13 8945   5.074   2.472   8.758  0.2929 -0.1258  0.1704
   6923SM   O14 8946   5.281   2.528   8.885 -0.1079 -0.3850  0.4748
   6923SM   O11 8947   5.277   2.365   8.700  0.0637 -0.6040  0.3513
   6923SM   O12 8948   5.172   2.294   8.915  0.1039 -0.1460  0.1688
   6923SM   C1S 8949   5.237   2.238   8.648  0.6812 -0.3639 -0.6091
   6923SM   H1S 8950   5.172   2.178   8.714  0.5584  1.0477  0.6128
   6923SM   H1T 8951   5.329   2.177   8.631  1.3217  0.4531 -0.1519
   6923SM    NF 8952   5.102   2.108   8.485 -0.3933 -0.1473  0.7087
   6923SM   HNF 8953   5.167   2.052   8.435  0.2816  0.0748  1.3143
   6923SM   C2S 8954   5.151   2.238   8.517 -0.3822  0.6350 -0.2156
   6923SM   H2S 8955   5.067   2.304   8.546 -0.8311 -0.9062  2.3489
   6923SM   C3S 8956   5.236   2.300   8.400 -0.3492 -0.1753 -0.4701
   6923SM   H3S 8957   5.306   2.216   8.378 -1.0386 -0.3297 -2.2353
   6923SM    O3 8958   5.315   2.414   8.437 -0.6971 -0.6475 -0.6150
   6923SM   HO3 8959   5.310   2.406   8.532 -0.7894 -0.8598 -0.6381
   6923SM   C4S 8960   5.144   2.338   8.288  0.2639  0.0560  0.2649
   6923SM   H4S 8961   5.112   2.243   8.243 -1.3379 -0.3852  2.2273
   6923SM   C5S 8962   5.079   2.448   8.260  0.3842  0.2690  0.0307
   6923SM   H5S 8963   5.088   2.541   8.319 -1.5029  0.4783  0.0488
   6923SM   C6S 8964   4.977   2.455   8.153  0.5527  0.2913  0.4502
   6923SM   H6S 8965   4.930   2.555   8.145  2.1687  0.9901 -0.6835
   6923SM   H6T 8966   4.903   2.377   8.181  0.1636 -0.7503 -3.0391
   6923SM   C7S 8967   5.035   2.416   8.017 -0.8189  0.1434 -0.7744
   6923SM   H7S 8968   5.083   2.317   8.035 -0.8128  0.3320  0.3131
   6923SM   H7T 8969   5.107   2.500   8.004 -1.5311  1.0607  0.9462
   6923SM   C8S 8970   4.955   2.407   7.886 -0.0052  0.0641  0.6106
   6923SM   H8S 8971   4.883   2.491   7.874 -0.0189  0.2038  1.5946
   6923SM   H8T 8972   4.900   2.311   7.886 -0.0433  0.0416 -1.5630
   6923SM   C9S 8973   5.053   2.402   7.772  0.7736 -0.2699 -0.5427
   6923SM   H9S 8974   5.116   2.311   7.776  1.0412 -0.0936 -0.6868
   6923SM   H9T 8975   5.116   2.492   7.757  0.3654 -0.0989 -1.2748
   6923SM  C10S 8976   4.977   2.377   7.639  0.2552 -0.3657 -0.0930
   6923SM  H10S 8977   4.905   2.461   7.631  0.9098  0.1849 -0.3095
   6923SM  H10T 8978   4.915   2.285   7.649 -1.2461  0.6432  0.2874
   6923SM  C11S 8979   5.062   2.380   7.510 -0.5753  0.2124  0.6507
   6923SM  H11S 8980   5.128   2.291   7.524  1.2714  1.6156  1.2478
   6923SM  H11T 8981   5.129   2.468   7.497  0.1117 -0.5672 -1.4587
   6923SM  C12S 8982   4.972   2.358   7.380  0.0185 -0.1163  0.2683
   6923SM  H12S 8983   4.901   2.443   7.381  0.7030  0.4765  2.3509
   6923SM  H12T 8984   4.904   2.269   7.381  1.7563 -1.5555 -1.2531
   6923SM  C13S 8985   5.053   2.365   7.248 -0.5681  0.3671  1.0161
   6923SM  H13S 8986   5.128   2.283   7.252 -1.5955 -0.5426  2.3924
   6923SM  H13T 8987   5.103   2.463   7.240 -0.5693  0.2171 -2.2782
   6923SM  C14S 8988   4.976   2.361   7.112  0.6203  0.1831  0.1564
   6923SM  H14S 8989   4.883   2.419   7.100 -1.0249 -2.5600 -1.2253
   6923SM  H14T 8990   4.945   2.256   7.094  0.5718 -0.2566  2.4701
   6923SM  C15S 8991   5.069   2.397   6.989  0.3473 -0.5146 -0.6365
   6923SM  H15S 8992   5.148   2.322   6.964  0.2531 -0.5277 -0.9022
   6923SM  H15T 8993   5.121   2.493   7.009 -2.5657  0.8049  1.1910
   6923SM  C16S 8994   4.997   2.409   6.859 -0.6520 -0.1434  0.5608
   6923SM  H16S 8995   5.081   2.441   6.793  0.3254 -1.8444  0.9090
   6923SM  H16T 8996   4.930   2.497   6.856  2.1622  2.2533  2.5048
   6923SM  C17S 8997   4.926   2.280   6.810 -0.0939 -0.2084  0.5930
   6923SM  H17S 8998   4.845   2.247   6.879  0.0836  0.3372  1.0699
   6923SM  H17T 8999   5.010   2.208   6.816  0.3945  0.4390  2.0587
   6923SM  C18S 9000   4.888   2.281   6.659  0.2548  0.4207 -0.6566
   6923SM  H18S 9001   4.808   2.205   6.642 -1.2634  1.9181 -0.4922
   6923SM  H18T 9002   4.963   2.253   6.583 -0.2160  3.7075 -2.5316
   6923SM  H18U 9003   4.857   2.384   6.630  2.6199  1.2474 -0.4162
   6923SM   C1F 9004   5.006   2.052   8.556  0.7045  0.2854 -0.0191
   6923SM    OF 9005   4.933   2.117   8.630  0.2947 -0.2843 -0.2217
   6923SM   C2F 9006   4.985   1.905   8.559  0.2904  0.3216 -0.0520
   6923SM   H2F 9007   5.009   1.864   8.660 -4.0190 -1.1479  0.5908
   6923SM   H2G 9008   5.039   1.862   8.472 -2.9815  1.5964 -2.9568
   6923SM   C3F 9009   4.835   1.880   8.529  0.0796  0.7980 -0.1359
   6923SM   H3F 9010   4.780   1.901   8.624  0.0838  3.2977 -0.6162
   6923SM   H3G 9011   4.819   1.770   8.521 -1.0823  0.6826  2.5473
   6923SM   C4F 9012   4.776   1.951   8.411  0.0374  0.4519  0.0738
   6923SM   H4F 9013   4.790   2.058   8.438  0.0348  0.3145  0.6458
   6923SM   H4G 9014   4.667   1.934   8.398  0.1374 -0.8012  0.7232
   6923SM   C5F 9015   4.851   1.924   8.271  0.8106 -0.8003  0.7142
   6923SM   H5F 9016   4.838   1.823   8.226  1.2813 -0.5398 -0.0368
   6923SM   H5G 9017   4.962   1.925   8.282  0.9395 -1.2043 -0.3701
   6923SM   C6F 9018   4.821   2.044   8.174  0.2479  0.4185  0.4618
   6923SM   H6F 9019   4.814   2.135   8.238 -2.0686  0.1324  0.6905
   6923SM   H6G 9020   4.720   2.032   8.129 -0.3086 -1.4553  2.0543
   6923SM   C7F 9021   4.923   2.065   8.060  0.0178 -0.2104 -0.1588
   6923SM   H7F 9022   5.027   2.058   8.097  0.4868  0.9820 -1.2158
   6923SM   H7G 9023   4.919   2.171   8.030  1.2696 -0.2881 -0.6453
   6923SM   C8F 9024   4.906   1.979   7.931  0.6171  0.0031  0.2363
   6923SM   H8F 9025   4.798   1.992   7.910  1.0101 -0.2654 -2.2200
   6923SM   H8G 9026   4.941   1.874   7.938 -0.7514 -0.6237 -1.6326
   6923SM   C9F 9027   4.979   2.034   7.803 -0.3520  0.1389  0.0440
   6923SM   H9F 9028   5.087   2.029   7.832 -0.5686 -2.0673  0.6838
   6923SM   H9G 9029   4.948   2.138   7.779  0.0453  0.5714  1.3150
   6923SM  C10F 9030   4.954   1.941   7.687 -0.2560 -0.3698 -0.3948
   6923SM  H10F 9031   4.846   1.916   7.678 -0.5120  0.3589  0.5259
   6923SM  H10G 9032   5.012   1.850   7.715  2.5625  1.1696 -0.9141
   6923SM  C11F 9033   5.015   1.986   7.556  0.3049 -0.8136 -0.6113
   6923SM  H11F 9034   5.124   1.997   7.570  0.1341 -0.6171  0.6531
   6923SM  H11G 9035   4.963   2.082   7.532  0.6257 -0.7336 -0.9871
   6923SM  C12F 9036   4.990   1.875   7.448  0.0965  0.7032 -0.3758
   6923SM  H12F 9037   4.883   1.851   7.470  0.2337  0.9638  0.6117
   6923SM  H12G 9038   5.055   1.785   7.459  0.7568  1.3458  1.1526
   6923SM  C13F 9039   5.022   1.924   7.307  0.4790  0.6498 -0.1778
   6923SM  H13F 9040   5.127   1.895   7.282  0.2506 -0.3437 -0.0139
   6923SM  H13G 9041   5.007   2.034   7.299 -2.4526  0.2835 -0.7268
   6923SM  C14F 9042   4.934   1.852   7.205  0.1109  0.8226 -0.1703
   6923SM  H14F 9043   4.832   1.873   7.244  0.1426 -1.1220  1.0759
   6923SM  H14G 9044   4.953   1.743   7.215 -0.0284  0.7866 -0.2969
   6923SM  C15F 9045   4.954   1.897   7.057  0.3427 -0.1327 -0.4755
   6923SM  H15F 9046   5.054   1.864   7.021 -1.3690 -2.1059 -3.9835
   6923SM  H15G 9047   4.948   2.008   7.052  1.5340 -0.0417 -0.2768
   6923SM  C16F 9048   4.841   1.835   6.974  0.8313  0.5930 -0.1277
   6923SM  H16F 9049   4.745   1.884   7.002  1.0300  0.3783  0.9481
   6923SM  H16G 9050   4.837   1.725   6.986 -0.6592  0.6342 -0.0577
   6923SM  C17F 9051   4.857   1.851   6.821 -0.2861 -0.0333  0.4587
   6923SM  H17F 9052   4.956   1.805   6.800  0.4386  1.9857 -0.8451
   6923SM  H17G 9053   4.862   1.959   6.798  2.0974 -0.6304 -2.3720
   6923SM  C18F 9054   4.746   1.786   6.736 -0.0653  0.3706  0.8835
   6923SM  H18F 9055   4.645   1.831   6.751  0.6968  2.7878 -0.7793
   6923SM  H18G 9056   4.737   1.679   6.767 -2.0519 -0.2895 -1.5993
   6923SM  C19F 9057   4.775   1.780   6.579  0.1972 -0.3714  0.2994
   6923SM  H19F 9058   4.870   1.724   6.565 -0.3340 -0.4719 -4.4036
   6923SM  H19G 9059   4.784   1.887   6.550  3.3333 -0.8009 -0.7213
   6923SM  C20F 9060   4.661   1.728   6.487 -0.4719  0.2379  0.1393
   6923SM  H20F 9061   4.562   1.776   6.503 -0.9906 -1.1935  1.4633
   6923SM  H20G 9062   4.634   1.623   6.513  1.9997 -0.5478 -0.1685
   6923SM  C21F 9063   4.703   1.745   6.336  0.2138 -0.5297  0.3027
   6923SM  H21F 9064   4.806   1.703   6.326  1.1947  1.8623 -0.2174
   6923SM  H21G 9065   4.729   1.851   6.317 -0.7181 -0.1322  1.1389
   6923SM  C22F 9066   4.592   1.711   6.233  0.5119  0.3454  0.5849
   6923SM  H22F 9067   4.641   1.725   6.134  1.0975  0.1886  0.8479
   6923SM  H22G 9068   4.519   1.794   6.245  0.5579  0.2804  1.3892
   6923SM  C23F 9069   4.540   1.567   6.247 -0.1406 -0.1149 -0.2191
   6923SM  H23F 9070   4.463   1.536   6.173 -0.9680  1.0092  0.1441
   6923SM  H23G 9071   4.496   1.545   6.346  1.4738  0.7379  0.7207
   6923SM  H23H 9072   4.625   1.496   6.242  0.1995  0.2779 -0.0799
   7023SM     N 9073   3.893   1.510   8.970 -0.5884 -0.2957  0.0025
   7023SM   C15 9074   3.999   1.521   8.866  0.0552 -0.4495 -0.0003
   7023SM  H15A 9075   3.988   1.441   8.794  1.1601 -0.1427 -0.5285
   7023SM  H15B 9076   4.099   1.510   8.906  0.7852 -1.5704 -1.9962
   7023SM  H15C 9077   4.010   1.614   8.813  2.8662 -0.6998 -0.0111
   7023SM   C14 9078   3.766   1.501   8.895  0.0986  0.1103 -0.1824
   7023SM  H14A 9079   3.685   1.493   8.966 -0.1142 -4.2064 -0.6528
   7023SM  H14B 9080   3.758   1.417   8.828  0.3826  0.7147 -0.9853
   7023SM  H14C 9081   3.771   1.590   8.834  1.5177 -0.0939 -0.3957
   7023SM   C13 9082   3.913   1.378   9.041  0.9538  0.4012 -0.0934
   7023SM  H13A 9083   4.008   1.368   9.092  0.5726 -3.0559  0.2335
   7023SM  H13B 9084   3.924   1.306   8.961  0.4366  2.6832 -2.3609
   7023SM  H13C 9085   3.831   1.347   9.104  1.3997  0.4274  0.5112
   7023SM   C12 9086   3.903   1.627   9.068  0.4145 -0.7909  0.0893
   7023SM  H12A 9087   3.985   1.622   9.139 -0.5510 -0.1447  1.2828
   7023SM  H12B 9088   3.818   1.616   9.133  0.6236 -2.3842  0.1386
   7023SM   C11 9089   3.900   1.766   9.006  0.3294 -0.6525  0.3303
   7023SM  H11A 9090   3.889   1.847   9.082 -3.7443 -1.0664  0.4307
   7023SM  H11B 9091   3.813   1.769   8.937  0.6726  0.5888 -0.0672
   7023SM     P 9092   4.099   1.922   8.929 -0.3531 -0.1689 -0.1859
   7023SM   O13 9093   4.015   2.038   8.977 -0.3639  0.1314  0.5108
   7023SM   O14 9094   4.231   1.911   8.994 -0.4713 -0.1242 -0.4236
   7023SM   O11 9095   4.129   1.946   8.774  0.6781  0.1184 -0.2456
   7023SM   O12 9096   4.017   1.787   8.932 -0.0831 -0.2380  0.2070
   7023SM   C1S 9097   4.081   1.842   8.684  0.1275  0.0509 -0.2639
   7023SM   H1S 9098   3.972   1.861   8.675  0.5079  2.7650 -0.1147
   7023SM   H1T 9099   4.124   1.741   8.701  0.8349  0.4367  0.2982
   7023SM    NF 9100   4.069   1.807   8.434 -0.4079 -0.3867 -0.3476
   7023SM   HNF 9101   4.098   1.716   8.406  1.1276  0.0373 -0.2068
   7023SM   C2S 9102   4.140   1.879   8.544 -0.3662 -0.4924  0.0437
   7023SM   H2S 9103   4.112   1.985   8.523  2.0232 -0.1601 -1.9641
   7023SM   C3S 9104   4.303   1.883   8.542  0.5342 -0.1327  0.4123
   7023SM   H3S 9105   4.332   1.779   8.567 -0.6991 -0.8106 -0.7871
   7023SM    O3 9106   4.366   1.970   8.636  0.1948  0.1699  0.5400
   7023SM   HO3 9107   4.297   2.000   8.696  0.6642  0.6841  0.8398
   7023SM   C4S 9108   4.348   1.896   8.399  0.4439 -0.0868 -0.2460
   7023SM   H4S 9109   4.337   1.809   8.332  1.3072  1.7119 -2.9073
   7023SM   C5S 9110   4.396   2.010   8.345  0.4818 -1.0559 -0.1418
   7023SM   H5S 9111   4.410   2.097   8.411 -1.0470  0.3005 -1.5163
   7023SM   C6S 9112   4.436   2.039   8.205 -0.7804 -0.2696  0.0705
   7023SM   H6S 9113   4.525   2.105   8.202 -2.1925  1.7033 -2.8060
   7023SM   H6T 9114   4.355   2.096   8.156 -0.0430 -1.7571 -3.1484
   7023SM   C7S 9115   4.456   1.917   8.113 -0.9119  0.2934  0.3568
   7023SM   H7S 9116   4.397   1.824   8.131  0.9391 -0.9876  0.1277
   7023SM   H7T 9117   4.559   1.880   8.132 -1.5241 -1.1373  1.1154
   7023SM   C8S 9118   4.449   1.955   7.967 -0.1955  0.4774 -0.6042
   7023SM   H8S 9119   4.553   1.981   7.935  0.5658 -0.4444  1.0128
   7023SM   H8T 9120   4.383   2.044   7.956  0.4451  0.8236 -1.8882
   7023SM   C9S 9121   4.396   1.845   7.882 -0.4073  0.2123  0.7744
   7023SM   H9S 9122   4.289   1.814   7.874  0.1968 -1.5717 -1.5302
   7023SM   H9T 9123   4.450   1.749   7.898 -0.9397 -0.2383 -0.0716
   7023SM  C10S 9124   4.411   1.875   7.736 -0.1283 -0.1028  0.0817
   7023SM  H10S 9125   4.392   1.785   7.674  3.1335 -1.0853  0.3166
   7023SM  H10T 9126   4.514   1.898   7.703  0.0733  0.6130  1.1530
   7023SM  C11S 9127   4.318   1.981   7.691  0.1647  0.3998 -0.3859
   7023SM  H11S 9128   4.353   2.023   7.594 -1.7946  0.8649 -0.9391
   7023SM  H11T 9129   4.332   2.066   7.762  0.9057 -0.6307  0.7318
   7023SM  C12S 9130   4.166   1.947   7.675  0.5396 -0.2479  0.1416
   7023SM  H12S 9131   4.138   1.877   7.756 -0.8749 -1.4393 -1.3158
   7023SM  H12T 9132   4.159   1.898   7.576  3.5975  2.4927 -1.6490
   7023SM  C13S 9133   4.067   2.063   7.675 -0.2500  0.0822 -0.3534
   7023SM  H13S 9134   3.959   2.036   7.669 -0.2246  0.0884 -0.9311
   7023SM  H13T 9135   4.084   2.119   7.580 -2.0909 -1.1028 -1.4480
   7023SM  C14S 9136   4.087   2.164   7.790 -0.3778 -0.0986 -0.2634
   7023SM  H14S 9137   4.021   2.251   7.772 -0.4166  0.1527  0.9835
   7023SM  H14T 9138   4.186   2.215   7.785 -0.9872  0.9689 -3.1944
   7023SM  C15S 9139   4.057   2.110   7.930 -0.2568 -0.6268  0.1934
   7023SM  H15S 9140   4.123   2.022   7.945 -0.6686 -0.5984  2.5778
   7023SM  H15T 9141   3.956   2.068   7.911  0.2437 -1.6243 -0.3575
   7023SM  C16S 9142   4.072   2.202   8.048 -0.0912  0.2653 -0.1096
   7023SM  H16S 9143   4.003   2.284   8.021 -0.8120 -0.7005 -1.3017
   7023SM  H16T 9144   4.178   2.236   8.043  0.0442 -0.1960 -0.4936
   7023SM  C17S 9145   4.040   2.139   8.188  0.2088 -0.5661 -0.3603
   7023SM  H17S 9146   4.123   2.067   8.204 -0.2838 -0.9303  0.5638
   7023SM  H17T 9147   3.945   2.083   8.180  0.3126 -0.9337  0.8651
   7023SM  C18S 9148   4.034   2.233   8.305 -0.4832 -0.2082  0.0127
   7023SM  H18S 9149   4.128   2.290   8.320  1.4464 -2.4477 -2.5937
   7023SM  H18T 9150   4.011   2.175   8.397 -1.4364 -0.0410 -0.1021
   7023SM  H18U 9151   3.947   2.302   8.291 -1.0036 -0.6423  1.0060
   7023SM   C1F 9152   3.939   1.821   8.406 -0.3056  0.4107 -0.5350
   7023SM    OF 9153   3.863   1.903   8.455  0.8080 -0.0791  0.0656
   7023SM   C2F 9154   3.887   1.718   8.313  0.1759 -0.0637 -0.0170
   7023SM   H2F 9155   3.786   1.693   8.352  0.1895  2.7141  2.1108
   7023SM   H2G 9156   3.946   1.624   8.310  0.5415  0.1326  0.6342
   7023SM   C3F 9157   3.882   1.785   8.167 -0.3324 -0.2397  0.0286
   7023SM   H3F 9158   3.989   1.803   8.145  0.0057 -0.8251  1.0839
   7023SM   H3G 9159   3.833   1.884   8.180  1.3224  0.5072  0.9075
   7023SM   C4F 9160   3.825   1.688   8.059  0.3256  0.0033 -0.2664
   7023SM   H4F 9161   3.721   1.658   8.083  0.4593  0.3505  0.7863
   7023SM   H4G 9162   3.880   1.591   8.059 -1.1500 -0.8576 -0.5797
   7023SM   C5F 9163   3.816   1.764   7.927 -0.2425 -0.5447  0.3959
   7023SM   H5F 9164   3.913   1.815   7.908 -1.0597  0.7243 -0.4666
   7023SM   H5G 9165   3.736   1.841   7.930  1.2248  1.0103  2.1318
   7023SM   C6F 9166   3.797   1.667   7.806  0.1367 -1.2254 -0.4478
   7023SM   H6F 9167   3.717   1.591   7.821 -0.8760 -0.1448 -0.1979
   7023SM   H6G 9168   3.896   1.617   7.796  1.7638  1.2062  1.9592
   7023SM   C7F 9169   3.774   1.737   7.671 -0.2229 -0.1961  0.5259
   7023SM   H7F 9170   3.843   1.824   7.665  0.5225 -0.8695 -2.4178
   7023SM   H7G 9171   3.670   1.774   7.677 -0.2543 -0.4753  2.0963
   7023SM   C8F 9172   3.798   1.638   7.545  0.1514 -0.1047 -0.8379
   7023SM   H8F 9173   3.727   1.553   7.552  2.1414 -1.7433  1.0496
   7023SM   H8G 9174   3.905   1.607   7.555  0.8316  2.3335  0.2020
   7023SM   C9F 9175   3.790   1.702   7.407 -0.0730  0.0146 -0.0687
   7023SM   H9F 9176   3.879   1.768   7.401 -0.3658  0.4137 -0.1640
   7023SM   H9G 9177   3.695   1.761   7.403 -0.3965 -0.4369  0.7531
   7023SM  C10F 9178   3.802   1.597   7.295 -0.4699  0.1123 -0.5903
   7023SM  H10F 9179   3.730   1.513   7.302  0.1092 -0.4177 -0.9589
   7023SM  H10G 9180   3.903   1.552   7.303 -0.1072  0.7551 -1.3881
   7023SM  C11F 9181   3.785   1.675   7.171 -0.1649  0.9158  0.3585
   7023SM  H11F 9182   3.873   1.742   7.166  2.1064 -1.8959  0.0345
   7023SM  H11G 9183   3.686   1.725   7.181  0.4327  2.3419 -0.5087
   7023SM  C12F 9184   3.811   1.578   7.046  0.6381  0.4705  0.3789
   7023SM  H12F 9185   3.766   1.478   7.061  2.2374 -0.3636 -0.1815
   7023SM  H12G 9186   3.920   1.558   7.046  0.5989  0.0710 -1.4402
   7023SM  C13F 9187   3.766   1.634   6.910  0.9618 -0.3935 -0.7854
   7023SM  H13F 9188   3.811   1.735   6.898 -0.2007  0.1626 -0.6347
   7023SM  H13G 9189   3.657   1.655   6.916  0.7847 -0.5010 -2.8602
   7023SM  C14F 9190   3.798   1.547   6.790  0.4711 -0.5751 -0.4319
   7023SM  H14F 9191   3.788   1.439   6.814  0.1193 -0.3760  0.3378
   7023SM  H14G 9192   3.903   1.563   6.757  0.8513  2.9664  1.9327
   7023SM  C15F 9193   3.713   1.588   6.675 -0.3457  0.5540  0.2851
   7023SM  H15F 9194   3.743   1.692   6.649 -3.0210  0.7548 -2.6302
   7023SM  H15G 9195   3.603   1.578   6.689 -0.4112 -1.0158 -1.0480
   7023SM  C16F 9196   3.743   1.502   6.543 -0.0149 -0.7987 -0.2963
   7023SM  H16F 9197   3.689   1.405   6.552 -1.8622  0.0669 -1.5322
   7023SM  H16G 9198   3.853   1.485   6.533 -0.4131 -2.6015 -2.7339
   7023SM  C17F 9199   3.684   1.562   6.419 -0.2579  0.4078  0.1297
   7023SM  H17F 9200   3.573   1.563   6.426 -0.2931 -1.6417  0.5933
   7023SM  H17G 9201   3.710   1.482   6.346  0.9387 -0.3090  1.3071
   7023SM  C18F 9202   3.746   1.693   6.384 -0.5656 -0.1203  0.2895
   7023SM  H18F 9203   3.737   1.769   6.465 -0.3619 -1.2023  1.3690
   7023SM  H18G 9204   3.693   1.734   6.295 -0.5855 -0.7694 -0.0015
   7023SM  C19F 9205   3.894   1.683   6.346  0.1109 -0.5602  0.5833
   7023SM  H19F 9206   3.904   1.600   6.273  0.7084  0.0550 -0.0493
   7023SM  H19G 9207   3.954   1.662   6.438 -3.5424 -1.2352  3.0230
   7023SM  C20F 9208   3.939   1.810   6.278  0.0571 -0.5298 -0.0412
   7023SM  H20F 9209   3.935   1.894   6.351 -0.1474 -2.1436  1.8955
   7023SM  H20G 9210   3.866   1.830   6.197  0.3133 -2.0229 -0.6583
   7023SM  C21F 9211   4.077   1.796   6.219  0.2161  0.1345 -0.2652
   7023SM  H21F 9212   4.080   1.714   6.145  0.0960 -0.6177  0.5487
   7023SM  H21G 9213   4.148   1.766   6.299 -1.2054 -0.8592  0.6572
   7023SM  C22F 9214   4.123   1.921   6.153  0.1720 -0.0219 -0.7392
   7023SM  H22F 9215   4.120   2.003   6.228 -1.5862 -0.0517 -0.7397
   7023SM  H22G 9216   4.057   1.933   6.064 -0.4268  2.6394 -0.0427
   7023SM  C23F 9217   4.264   1.911   6.102 -0.0628  0.5829  0.6236
   7023SM  H23F 9218   4.275   1.811   6.056 -1.2582  0.3529  0.7893
   7023SM  H23G 9219   4.334   1.927   6.187  1.0537  1.0363 -0.3586
   7023SM  H23H 9220   4.284   1.987   6.024  0.8987  1.8577  2.0683
   7123SM     N 9221   4.395   0.681   8.482  0.0913 -0.8895 -0.3307
   7123SM   C15 9222   4.532   0.631   8.519 -0.4181  0.6566  0.2668
   7123SM  H15A 9223   4.532   0.524   8.499 -0.6743  1.0707 -2.3329
   7123SM  H15B 9224   4.562   0.661   8.618 -0.5996  0.4302  0.3917
   7123SM  H15C 9225   4.604   0.671   8.449 -1.1425 -0.0994 -0.9486
   7123SM   C14 9226   4.390   0.828   8.516 -0.1873 -0.6079  0.5937
   7123SM  H14A 9227   4.287   0.859   8.521 -0.6035 -1.0459 -2.6657
   7123SM  H14B 9228   4.437   0.894   8.444  0.4331 -1.3341  0.3216
   7123SM  H14C 9229   4.429   0.858   8.612 -1.5175  1.6085  0.5093
   7123SM   C13 9230   4.374   0.668   8.330 -0.0067 -0.5310  0.1535
   7123SM  H13A 9231   4.409   0.571   8.298  0.4012  0.1224 -1.4783
   7123SM  H13B 9232   4.444   0.728   8.275  1.5056  0.1937  2.7083
   7123SM  H13C 9233   4.273   0.690   8.299  1.4723  3.3701 -2.6089
   7123SM   C12 9234   4.287   0.609   8.558 -0.2863  0.0362  0.3465
   7123SM  H12A 9235   4.189   0.650   8.541 -0.1092 -0.1611 -1.2295
   7123SM  H12B 9236   4.305   0.614   8.665  1.4257  1.1410  0.0555
   7123SM   C11 9237   4.281   0.465   8.516  0.1693  0.2227 -0.2334
   7123SM  H11A 9238   4.384   0.435   8.489  0.2628 -1.0083  1.3624
   7123SM  H11B 9239   4.218   0.460   8.424 -1.6683 -0.9294  1.0059
   7123SM     P 9240   4.210   0.222   8.589 -0.1171 -0.2175  0.0319
   7123SM   O13 9241   4.262   0.149   8.708 -0.7464 -0.0273 -0.8016
   7123SM   O14 9242   4.073   0.188   8.549  0.0462  0.7069 -0.3603
   7123SM   O11 9243   4.301   0.208   8.459  0.2829 -0.6582 -0.1041
   7123SM   O12 9244   4.216   0.384   8.617  0.0187 -0.7149 -0.2234
   7123SM   C1S 9245   4.240   0.148   8.347  0.5853  0.5054  0.0929
   7123SM   H1S 9246   4.152   0.207   8.314  1.7137  1.0215 -2.2041
   7123SM   H1T 9247   4.214   0.041   8.365 -0.5245  0.5766 -0.9503
   7123SM    NF 9248   4.269   0.106   8.100 -0.5545 -0.9224 -0.1251
   7123SM   HNF 9249   4.274   0.013   8.065  0.9877 -0.6127 -0.8137
   7123SM   C2S 9250   4.338   0.152   8.223 -0.3344  0.5991  0.5358
   7123SM   H2S 9251   4.352   0.262   8.208 -0.0074  0.3443 -1.2271
   7123SM   C3S 9252   4.476   0.083   8.258 -0.3305  0.3403 -0.1675
   7123SM   H3S 9253   4.453  -0.024   8.280  0.7768  0.5074  2.0493
   7123SM    O3 9254   4.531   0.122   8.381  0.3793 -0.4686 -0.9270
   7123SM   HO3 9255   4.452   0.157   8.423  0.7721  0.9127 -1.3057
   7123SM   C4S 9256   4.573   0.083   8.142 -0.0675 -0.4554 -0.7846
   7123SM   H4S 9257   4.549   0.015   8.059 -0.7162  0.7161 -1.5655
   7123SM   C5S 9258   4.683   0.161   8.121  0.3942 -1.1071  0.4114
   7123SM   H5S 9259   4.711   0.241   8.191  1.1400  0.3395 -1.4472
   7123SM   C6S 9260   4.780   0.163   8.006 -0.0154 -0.3289  0.0841
   7123SM   H6S 9261   4.876   0.153   8.060 -0.2936  1.4188  0.9977
   7123SM   H6T 9262   4.776   0.266   7.962 -1.7477 -0.5702 -0.4062
   7123SM   C7S 9263   4.752   0.047   7.906  0.2472 -0.4070 -0.3215
   7123SM   H7S 9264   4.720  -0.050   7.949 -1.6770 -0.2216 -1.2608
   7123SM   H7T 9265   4.844   0.026   7.848  0.4261 -0.8600  0.1217
   7123SM   C8S 9266   4.642   0.079   7.805 -0.1167  0.1154 -0.2051
   7123SM   H8S 9267   4.660   0.182   7.767 -1.1282  0.6030  0.5612
   7123SM   H8T 9268   4.550   0.076   7.868  1.0662  0.0961  1.6064
   7123SM   C9S 9269   4.638  -0.010   7.682 -0.0547  0.3483  0.8840
   7123SM   H9S 9270   4.588  -0.108   7.700 -1.1566  0.7648  0.2130
   7123SM   H9T 9271   4.746  -0.021   7.662 -0.1145 -1.4537  1.4010
   7123SM  C10S 9272   4.583   0.045   7.557 -0.1801  0.4488  0.3275
   7123SM  H10S 9273   4.651   0.133   7.551 -0.5348  0.9425  2.5789
   7123SM  H10T 9274   4.484   0.093   7.575 -0.8627 -0.5165 -0.6796
   7123SM  C11S 9275   4.580  -0.046   7.437  0.0080 -0.1915 -0.8460
   7123SM  H11S 9276   4.514  -0.132   7.462 -1.4426  1.4195  1.3169
   7123SM  H11T 9277   4.681  -0.071   7.398  0.0469  0.7396 -1.3570
   7123SM  C12S 9278   4.518   0.024   7.308 -0.5437  0.6496  0.5638
   7123SM  H12S 9279   4.577   0.111   7.272 -1.7681  0.5047 -2.1227
   7123SM  H12T 9280   4.423   0.070   7.344 -1.4910 -0.7284 -0.0718
   7123SM  C13S 9281   4.498  -0.079   7.191 -0.0767 -0.0573 -0.8220
   7123SM  H13S 9282   4.442  -0.169   7.221 -0.2505  0.2291 -0.2750
   7123SM  H13T 9283   4.602  -0.114   7.170  0.6762  1.1359  0.7026
   7123SM  C14S 9284   4.439  -0.009   7.063  0.4427  0.3044  0.1977
   7123SM  H14S 9285   4.517   0.064   7.032  2.1065 -0.1431  2.9219
   7123SM  H14T 9286   4.343   0.039   7.090  0.6028  1.2532 -0.8486
   7123SM  C15S 9287   4.404  -0.101   6.942 -0.1589  0.4067  0.7091
   7123SM  H15S 9288   4.351  -0.187   6.989  0.6625 -1.1051 -1.0239
   7123SM  H15T 9289   4.499  -0.145   6.908 -0.3333 -0.5723  1.4378
   7123SM  C16S 9290   4.317  -0.045   6.831  0.3591  0.4265 -0.3568
   7123SM  H16S 9291   4.311  -0.109   6.740 -0.2436  0.0874 -0.0896
   7123SM  H16T 9292   4.372   0.041   6.787  0.8185  0.4434  0.2309
   7123SM  C17S 9293   4.178   0.005   6.876 -0.4946 -0.0039 -0.0712
   7123SM  H17S 9294   4.186   0.108   6.918 -0.0348  0.0284 -0.2349
   7123SM  H17T 9295   4.147  -0.059   6.961  1.2061  0.6658  1.1003
   7123SM  C18S 9296   4.081   0.011   6.759 -0.3376 -0.1591 -0.2305
   7123SM  H18S 9297   4.122   0.063   6.670 -1.1615 -1.5490 -1.4761
   7123SM  H18T 9298   3.986   0.060   6.791 -0.3974  0.6898 -1.6534
   7123SM  H18U 9299   4.052  -0.093   6.732 -2.2114 -0.6533  3.0888
   7123SM   C1F 9300   4.176   0.181   8.038  0.2441 -0.3279  0.5536
   7123SM    OF 9301   4.137   0.290   8.074 -0.0479  0.1773 -0.0092
   7123SM   C2F 9302   4.107   0.115   7.922 -0.2185  0.3056 -0.5790
   7123SM   H2F 9303   3.999   0.132   7.939 -0.1166  0.5223 -0.1294
   7123SM   H2G 9304   4.126   0.006   7.932  0.2510  0.4300 -0.0443
   7123SM   C3F 9305   4.154   0.184   7.787  0.1426 -0.0037 -0.6059
   7123SM   H3F 9306   4.250   0.143   7.750 -0.3960 -2.2505  0.2612
   7123SM   H3G 9307   4.152   0.293   7.808 -1.0746 -0.2695  0.8443
   7123SM   C4F 9308   4.051   0.157   7.672  0.0917  0.0825 -0.0817
   7123SM   H4F 9309   3.958   0.211   7.700 -1.0543 -1.4413 -0.8116
   7123SM   H4G 9310   4.031   0.049   7.658  0.9504 -0.2511  1.0916
   7123SM   C5F 9311   4.102   0.207   7.537 -0.2992 -0.0931 -0.3493
   7123SM   H5F 9312   4.199   0.161   7.506 -1.5731 -1.2653 -2.7946
   7123SM   H5G 9313   4.130   0.312   7.557 -0.1729  0.0805 -1.3828
   7123SM   C6F 9314   4.002   0.194   7.429 -0.5233 -0.3454 -0.0000
   7123SM   H6F 9315   3.917   0.257   7.463 -1.2449 -2.0241  1.4884
   7123SM   H6G 9316   3.961   0.091   7.436 -1.9372  0.2943  1.9910
   7123SM   C7F 9317   4.052   0.233   7.288  0.0030  0.0554 -0.5967
   7123SM   H7F 9318   4.144   0.174   7.264  0.3390 -0.0332  0.8438
   7123SM   H7G 9319   4.067   0.343   7.288  1.2741  0.0104  2.9454
   7123SM   C8F 9320   3.959   0.215   7.167 -0.1905  0.3376  0.5227
   7123SM   H8F 9321   3.951   0.106   7.143 -0.7917  0.8043 -1.6534
   7123SM   H8G 9322   4.003   0.272   7.083 -2.2606 -0.1479 -0.9917
   7123SM   C9F 9323   3.812   0.262   7.197 -0.2770 -0.4500 -0.5862
   7123SM   H9F 9324   3.811   0.366   7.238 -1.8906  0.0593 -1.8233
   7123SM   H9G 9325   3.772   0.197   7.278 -2.9747  1.2120 -0.4521
   7123SM  C10F 9326   3.717   0.242   7.078 -0.4553  0.2759  0.8000
   7123SM  H10F 9327   3.620   0.290   7.104 -0.5931  2.0478 -2.4319
   7123SM  H10G 9328   3.698   0.134   7.065  0.3343  0.0922  1.1433
   7123SM  C11F 9329   3.766   0.300   6.942  0.0039 -0.7976 -0.5035
   7123SM  H11F 9330   3.869   0.263   6.925 -0.0168 -0.9129 -0.3817
   7123SM  H11G 9331   3.768   0.408   6.967 -2.0235 -0.7225 -0.5119
   7123SM  C12F 9332   3.677   0.265   6.821  0.5827  0.1283  0.0526
   7123SM  H12F 9333   3.575   0.306   6.839  0.5458  2.8058 -4.7621
   7123SM  H12G 9334   3.661   0.156   6.804 -1.7486  0.3012  0.7135
   7123SM  C13F 9335   3.730   0.336   6.694 -0.1912  0.4199  0.4288
   7123SM  H13F 9336   3.839   0.315   6.685 -0.1786 -0.0697  1.6638
   7123SM  H13G 9337   3.711   0.444   6.710 -1.5405 -0.1148  2.9299
   7123SM  C14F 9338   3.662   0.300   6.559  0.0513 -0.8909  0.2620
   7123SM  H14F 9339   3.556   0.329   6.568 -0.0375 -0.8715 -0.7383
   7123SM  H14G 9340   3.657   0.190   6.539 -2.0961 -1.1053  1.7186
   7123SM  C15F 9341   3.714   0.379   6.441  0.4709 -0.7528  0.2387
   7123SM  H15F 9342   3.661   0.336   6.353  0.0433  1.1923 -0.5226
   7123SM  H15G 9343   3.823   0.363   6.429  1.1018  3.0415 -0.3229
   7123SM  C16F 9344   3.677   0.530   6.435 -0.6491  0.1153  0.3558
   7123SM  H16F 9345   3.729   0.592   6.511 -2.3325  2.4271 -0.2660
   7123SM  H16G 9346   3.568   0.546   6.447 -0.4344  0.7974  1.4837
   7123SM  C17F 9347   3.737   0.605   6.313 -0.0098 -0.7392  0.4855
   7123SM  H17F 9348   3.703   0.546   6.226  0.7265 -2.9058  1.5899
   7123SM  H17G 9349   3.848   0.600   6.304  0.1962  3.4316 -1.6505
   7123SM  C18F 9350   3.709   0.754   6.317 -0.5496  0.0438  0.4220
   7123SM  H18F 9351   3.774   0.797   6.397  0.0400 -1.0925  0.5693
   7123SM  H18G 9352   3.603   0.772   6.346 -1.3944 -1.2824 -1.6611
   7123SM  C19F 9353   3.737   0.815   6.177  0.1726  0.4602 -0.8483
   7123SM  H19F 9354   3.671   0.903   6.158  0.0787  0.6535  0.2892
   7123SM  H19G 9355   3.712   0.739   6.101 -0.0641 -0.4502  0.1229
   7123SM  C20F 9356   3.881   0.857   6.151 -0.2145 -0.0983 -0.5390
   7123SM  H20F 9357   3.899   0.889   6.046 -2.6112  1.2654 -0.6208
   7123SM  H20G 9358   3.952   0.774   6.170  1.8476  1.5245 -0.8708
   7123SM  C21F 9359   3.917   0.971   6.245 -0.1717 -0.2669  0.3624
   7123SM  H21F 9360   4.023   0.998   6.229 -0.5695  0.6441 -0.8700
   7123SM  H21G 9361   3.910   0.948   6.353 -1.1121 -0.3548  0.2921
   7123SM  C22F 9362   3.838   1.102   6.209  0.1809  0.6293  0.1106
   7123SM  H22F 9363   3.735   1.075   6.240  0.7508  0.7998  2.3375
   7123SM  H22G 9364   3.834   1.108   6.098  1.2837 -2.7892 -0.2080
   7123SM  C23F 9365   3.892   1.227   6.276  0.5910  0.4468 -0.1164
   7123SM  H23F 9366   3.986   1.257   6.225  0.3854 -0.2938 -0.9665
   7123SM  H23G 9367   3.918   1.218   6.383 -0.3470  0.7458  0.1508
   7123SM  H23H 9368   3.822   1.314   6.278 -0.0825 -0.0388 -1.4183
   7223SM     N 9369   5.721   3.195   8.502  0.3247  0.0314  0.3391
   7223SM   C15 9370   5.770   3.073   8.427 -0.6134  0.0788 -0.2001
   7223SM  H15A 9371   5.695   2.995   8.427  0.2799 -0.8119  1.2718
   7223SM  H15B 9372   5.859   3.039   8.477 -0.4028  0.8477 -0.0338
   7223SM  H15C 9373   5.799   3.097   8.326  0.5589 -1.9151 -0.3722
   7223SM   C14 9374   5.826   3.296   8.506  0.2704 -0.3198  0.5260
   7223SM  H14A 9375   5.795   3.394   8.541 -1.4535 -0.4678 -0.4924
   7223SM  H14B 9376   5.856   3.319   8.405 -0.4633 -2.7536 -0.3082
   7223SM  H14C 9377   5.916   3.254   8.550 -0.5492 -1.8574  0.8157
   7223SM   C13 9378   5.606   3.255   8.428  0.6048 -0.2738 -0.4707
   7223SM  H13A 9379   5.530   3.298   8.491  1.5247  0.7096 -0.0132
   7223SM  H13B 9380   5.550   3.180   8.373 -1.7862  0.6449  0.5838
   7223SM  H13C 9381   5.631   3.321   8.346 -1.8704  0.7507 -0.4609
   7223SM   C12 9382   5.676   3.160   8.642 -0.5618 -0.1709 -0.1991
   7223SM  H12A 9383   5.671   3.252   8.697 -0.4936  0.7308 -1.6669
   7223SM  H12B 9384   5.755   3.102   8.689  0.2634  0.5901 -0.6334
   7223SM   C11 9385   5.550   3.070   8.670 -0.9870 -0.2801 -0.2565
   7223SM  H11A 9386   5.475   3.141   8.628 -0.9342 -1.1217 -1.8353
   7223SM  H11B 9387   5.530   3.053   8.778 -0.2560 -4.5849 -0.6167
   7223SM     P 9388   5.635   2.829   8.648 -0.1736  0.4550  0.5049
   7223SM   O13 9389   5.752   2.877   8.723  0.1304  0.4355  0.1322
   7223SM   O14 9390   5.555   2.727   8.716  0.2761  0.6603 -0.1241
   7223SM   O11 9391   5.677   2.761   8.511  0.5252  0.0014 -0.2817
   7223SM   O12 9392   5.553   2.951   8.599 -0.5202 -0.1883  0.2234
   7223SM   C1S 9393   5.592   2.694   8.426  0.8183  0.0790  0.0628
   7223SM   H1S 9394   5.491   2.740   8.430  0.6488 -0.3674  1.9143
   7223SM   H1T 9395   5.572   2.592   8.466 -2.4013  1.5636  2.8346
   7223SM    NF 9396   5.550   2.635   8.188 -0.4027 -0.7492  0.1379
   7223SM   HNF 9397   5.569   2.541   8.160 -4.3612 -1.9096  0.6834
   7223SM   C2S 9398   5.647   2.693   8.284  0.4882  0.4763  0.2556
   7223SM   H2S 9399   5.670   2.795   8.248  0.3444  0.0239 -1.1871
   7223SM   C3S 9400   5.783   2.612   8.275 -0.1447 -0.0341 -0.3255
   7223SM   H3S 9401   5.753   2.510   8.305  2.6712 -0.9364 -0.3132
   7223SM    O3 9402   5.880   2.648   8.374  0.0248 -0.3744 -0.1808
   7223SM   HO3 9403   5.836   2.701   8.440 -0.3639 -0.6416 -0.2221
   7223SM   C4S 9404   5.843   2.612   8.137 -0.1723 -0.9597  0.0295
   7223SM   H4S 9405   5.867   2.717   8.116  2.0258 -1.6637 -1.3589
   7223SM   C5S 9406   5.875   2.512   8.050 -0.1884  0.1913  0.9702
   7223SM   H5S 9407   5.856   2.411   8.089  0.7595  0.2391  1.5907
   7223SM   C6S 9408   5.949   2.521   7.921 -0.2358 -0.1731  0.2763
   7223SM   H6S 9409   6.034   2.449   7.920  0.9711  1.1306 -2.7862
   7223SM   H6T 9410   5.988   2.624   7.906 -1.4920  0.1060 -1.3097
   7223SM   C7S 9411   5.867   2.489   7.802  0.0609 -0.4440 -0.9521
   7223SM   H7S 9412   5.787   2.565   7.785 -0.7874 -1.0821  0.0249
   7223SM   H7T 9413   5.807   2.396   7.813 -1.4658  0.4842 -0.9850
   7223SM   C8S 9414   5.960   2.472   7.677  0.0105  0.6815 -0.6943
   7223SM   H8S 9415   6.039   2.394   7.689 -0.9032 -0.2251 -0.4709
   7223SM   H8T 9416   6.013   2.569   7.667  2.5831 -0.5925 -0.2900
   7223SM   C9S 9417   5.876   2.434   7.548  0.1886 -0.1442 -0.5562
   7223SM   H9S 9418   5.796   2.512   7.544 -0.7663 -1.1294 -1.0705
   7223SM   H9T 9419   5.824   2.339   7.569 -0.1463  0.2110  0.2920
   7223SM  C10S 9420   5.963   2.445   7.430  0.0871 -0.8001  0.2323
   7223SM  H10S 9421   6.055   2.385   7.447  0.3224  0.1240  2.5379
   7223SM  H10T 9422   5.995   2.552   7.428 -0.6981 -0.5301 -2.0228
   7223SM  C11S 9423   5.888   2.414   7.294 -0.0874 -0.4370 -0.2837
   7223SM  H11S 9424   5.825   2.501   7.265 -0.2937 -0.5620 -0.2130
   7223SM  H11T 9425   5.821   2.325   7.301 -0.4093 -0.1861 -0.1597
   7223SM  C12S 9426   5.988   2.398   7.173  0.0650  0.1421  0.4515
   7223SM  H12S 9427   6.041   2.300   7.185  0.0744  0.2326  1.1997
   7223SM  H12T 9428   6.058   2.484   7.177  0.0575  0.1218  1.4056
   7223SM  C13S 9429   5.916   2.421   7.043 -0.4425 -0.3987  0.7200
   7223SM  H13S 9430   5.844   2.505   7.038  1.4982  1.3303  0.7310
   7223SM  H13T 9431   5.854   2.330   7.026 -2.0921  0.7345  0.4954
   7223SM  C14S 9432   6.013   2.437   6.917  0.5439  0.1240 -0.3071
   7223SM  H14S 9433   6.083   2.351   6.916  1.8637  1.1398  1.0802
   7223SM  H14T 9434   6.080   2.521   6.945  0.3075  0.2534 -0.1248
   7223SM  C15S 9435   5.947   2.477   6.785 -0.5330 -0.0936 -0.9683
   7223SM  H15S 9436   5.876   2.558   6.811 -0.7995 -0.4776 -0.4581
   7223SM  H15T 9437   5.887   2.400   6.733  1.4462 -0.6677 -2.5219
   7223SM  C16S 9438   6.060   2.527   6.689  0.2746  0.1422 -0.9853
   7223SM  H16S 9439   6.115   2.610   6.738 -1.5142  0.9612 -0.2598
   7223SM  H16T 9440   6.001   2.561   6.601 -2.0112  0.9173  0.7455
   7223SM  C17S 9441   6.157   2.421   6.651  0.3717 -0.1016 -0.3201
   7223SM  H17S 9442   6.094   2.330   6.640  1.4413 -0.9911  0.6947
   7223SM  H17T 9443   6.241   2.405   6.721 -0.1593 -0.6244  0.2084
   7223SM  C18S 9444   6.204   2.447   6.509  0.4454  0.5121  0.2417
   7223SM  H18S 9445   6.266   2.360   6.478  0.7113  0.1168  1.8048
   7223SM  H18T 9446   6.265   2.538   6.527 -0.3641  0.6835  2.3341
   7223SM  H18U 9447   6.122   2.470   6.438 -0.5790  0.7936  1.4842
   7223SM   C1F 9448   5.443   2.706   8.142  0.1180 -0.0325 -0.0953
   7223SM    OF 9449   5.404   2.805   8.193 -0.1393  0.1245 -0.4199
   7223SM   C2F 9450   5.368   2.648   8.022 -0.3222  0.5515  0.2251
   7223SM   H2F 9451   5.294   2.724   7.990  0.4047  0.5195 -1.6417
   7223SM   H2G 9452   5.315   2.556   8.052  0.0964 -1.0597 -3.4712
   7223SM   C3F 9453   5.463   2.617   7.904 -0.3669  0.0875  0.5060
   7223SM   H3F 9454   5.534   2.534   7.926 -1.6141 -1.3534 -0.6050
   7223SM   H3G 9455   5.530   2.705   7.899 -2.2868  1.7808  2.5851
   7223SM   C4F 9456   5.394   2.595   7.768  0.4339  0.6040 -0.3432
   7223SM   H4F 9457   5.326   2.680   7.741 -0.8331  0.1048  1.1596
   7223SM   H4G 9458   5.329   2.505   7.775 -2.4587  2.6604  1.5792
   7223SM   C5F 9459   5.490   2.569   7.650 -0.1450  0.5154  0.5145
   7223SM   H5F 9460   5.553   2.479   7.669 -0.7126 -0.7960 -3.0018
   7223SM   H5G 9461   5.559   2.656   7.640  0.4111 -0.1656 -2.5662
   7223SM   C6F 9462   5.415   2.541   7.520 -0.6664 -0.2362  0.6382
   7223SM   H6F 9463   5.356   2.633   7.500  0.1586  0.1492 -0.0755
   7223SM   H6G 9464   5.344   2.456   7.511 -2.4328  1.3585 -2.3770
   7223SM   C7F 9465   5.507   2.500   7.404 -0.3478 -0.0853  0.0690
   7223SM   H7F 9466   5.570   2.413   7.431 -0.2962  0.1656  0.7887
   7223SM   H7G 9467   5.574   2.588   7.393 -0.6800  0.6677  3.1724
   7223SM   C8F 9468   5.438   2.471   7.265  0.5077  0.7100  0.5061
   7223SM   H8F 9469   5.373   2.556   7.233  1.8360  2.4495  2.1371
   7223SM   H8G 9470   5.380   2.377   7.278 -1.7368  1.9869  0.3158
   7223SM   C9F 9471   5.544   2.462   7.153  0.5422  0.4777  0.1031
   7223SM   H9F 9472   5.604   2.368   7.157 -3.3080 -2.3571 -1.8453
   7223SM   H9G 9473   5.613   2.548   7.141  1.8906 -0.3323  1.5787
   7223SM  C10F 9474   5.469   2.470   7.018  0.2721  0.5230 -0.4943
   7223SM  H10F 9475   5.419   2.569   7.011 -0.1465  0.2547 -1.4361
   7223SM  H10G 9476   5.383   2.399   7.022  0.7252  0.0191  0.9858
   7223SM  C11F 9477   5.553   2.443   6.897  0.0858  0.0156  0.6183
   7223SM  H11F 9478   5.582   2.337   6.879 -1.8887 -0.5199  0.3005
   7223SM  H11G 9479   5.641   2.509   6.908  0.8964 -0.9460  0.0141
   7223SM  C12F 9480   5.476   2.491   6.772 -0.1146  0.3354 -0.3517
   7223SM  H12F 9481   5.556   2.491   6.695 -0.4892  1.5850 -0.7585
   7223SM  H12G 9482   5.444   2.595   6.794 -1.5665  0.5814 -3.1894
   7223SM  C13F 9483   5.360   2.396   6.739 -0.5238  0.1334 -0.1757
   7223SM  H13F 9484   5.282   2.415   6.816 -1.1935 -0.8566 -0.5877
   7223SM  H13G 9485   5.396   2.292   6.727  1.4453  0.7538  0.0473
   7223SM  C14F 9486   5.292   2.431   6.601 -0.3245  0.3953 -0.3775
   7223SM  H14F 9487   5.254   2.535   6.608 -1.3147 -0.0703  1.7772
   7223SM  H14G 9488   5.201   2.371   6.581 -1.0809  1.7059 -1.0112
   7223SM  C15F 9489   5.389   2.428   6.481 -0.3259 -0.0145  0.9574
   7223SM  H15F 9490   5.437   2.328   6.471 -2.4864 -1.1944  1.7543
   7223SM  H15G 9491   5.462   2.512   6.488 -0.3176  0.0864 -0.2202
   7223SM  C16F 9492   5.310   2.427   6.353  0.0900  0.0655 -0.5559
   7223SM  H16F 9493   5.250   2.517   6.329 -0.8599 -0.5620 -0.5699
   7223SM  H16G 9494   5.234   2.347   6.363  0.7412 -0.4321  0.6621
   7223SM  C17F 9495   5.410   2.392   6.242  0.3435 -0.9363 -0.4223
   7223SM  H17F 9496   5.458   2.294   6.260  2.2229  0.1311  0.7473
   7223SM  H17G 9497   5.494   2.464   6.252 -0.0530 -0.2576 -1.7797
   7223SM  C18F 9498   5.347   2.401   6.103 -0.0693 -0.1943  0.5700
   7223SM  H18F 9499   5.304   2.503   6.097  0.6718  0.1379  0.7316
   7223SM  H18G 9500   5.268   2.323   6.103  0.2552 -0.5287  0.8041
   7223SM  C19F 9501   5.445   2.385   5.985  0.3035 -0.2297 -0.4468
   7223SM  H19F 9502   5.519   2.465   6.003 -0.0722 -0.3623  2.1074
   7223SM  H19G 9503   5.397   2.397   5.886 -1.2859 -0.6371  0.2413
   7223SM  C20F 9504   5.508   2.245   5.982  0.0512 -0.2210 -0.2293
   7223SM  H20F 9505   5.435   2.164   6.002  0.0475 -0.0334  0.5356
   7223SM  H20G 9506   5.573   2.244   6.072 -0.2888 -1.3531  0.0176
   7223SM  C21F 9507   5.614   2.222   5.874  0.3231 -0.4639  0.0058
   7223SM  H21F 9508   5.676   2.314   5.873 -0.2041 -0.1183 -1.2838
   7223SM  H21G 9509   5.565   2.238   5.776  2.2069 -1.0488 -1.0999
   7223SM  C22F 9510   5.705   2.101   5.891  0.3976 -0.1959 -0.0879
   7223SM  H22F 9511   5.648   2.005   5.888 -0.0387 -0.1816  3.3844
   7223SM  H22G 9512   5.737   2.105   5.997  0.0952  3.3495 -0.0110
   7223SM  C23F 9513   5.830   2.106   5.805  0.1473 -0.0343  1.1905
   7223SM  H23F 9514   5.802   2.063   5.707 -1.1214  1.3116  0.9243
   7223SM  H23G 9515   5.913   2.040   5.837  0.2420 -0.6719 -0.2834
   7223SM  H23H 9516   5.865   2.209   5.782  1.4298 -0.8168 -0.6274
   7323SM     N 9517   4.578   1.737   8.953 -0.4153 -0.0488  0.0790
   7323SM   C15 9518   4.666   1.855   8.938 -0.5528 -0.1898  0.1342
   7323SM  H15A 9519   4.732   1.841   8.853 -0.0705 -3.2821  0.8903
   7323SM  H15B 9520   4.719   1.862   9.031 -0.9689 -2.1708  0.5528
   7323SM  H15C 9521   4.610   1.946   8.921 -1.1966 -0.5362  0.3712
   7323SM   C14 9522   4.656   1.611   8.974 -0.4446 -1.0036  0.5087
   7323SM  H14A 9523   4.706   1.606   9.070  2.4087  1.5976 -0.6679
   7323SM  H14B 9524   4.725   1.594   8.892 -0.9939  1.3636 -0.5406
   7323SM  H14C 9525   4.592   1.525   8.967 -1.1269 -0.3588 -2.3461
   7323SM   C13 9526   4.486   1.750   9.075  0.5984 -0.1649  0.1725
   7323SM  H13A 9527   4.546   1.763   9.163 -1.6672  0.4466  1.7337
   7323SM  H13B 9528   4.431   1.658   9.084  2.6022 -1.2779  1.7500
   7323SM  H13C 9529   4.416   1.831   9.056 -0.3400 -1.2755 -1.4285
   7323SM   C12 9530   4.492   1.720   8.827  0.1003 -0.2745  0.4418
   7323SM  H12A 9531   4.552   1.677   8.747 -1.0365 -0.4929 -0.3119
   7323SM  H12B 9532   4.461   1.818   8.794 -1.4641 -0.3782  1.5129
   7323SM   C11 9533   4.367   1.633   8.828  0.0169  0.3922 -0.3981
   7323SM  H11A 9534   4.314   1.625   8.730  0.8291 -1.3537 -0.7411
   7323SM  H11B 9535   4.304   1.685   8.903 -1.2791 -0.1111 -1.0996
   7323SM     P 9536   4.479   1.398   8.776 -0.2268  0.2081 -0.0756
   7323SM   O13 9537   4.611   1.365   8.843 -0.3462 -0.1344  0.1725
   7323SM   O14 9538   4.389   1.284   8.737  0.2677 -0.1622  0.0229
   7323SM   O11 9539   4.508   1.472   8.642 -0.3747 -0.0772  0.0227
   7323SM   O12 9540   4.400   1.497   8.871 -0.4420  0.2577  0.5983
   7323SM   C1S 9541   4.429   1.439   8.523  0.4610  0.7792  0.0008
   7323SM   H1S 9542   4.325   1.463   8.552  0.4922 -1.8333  2.6890
   7323SM   H1T 9543   4.424   1.328   8.515 -0.1524  0.8198 -0.2473
   7323SM    NF 9544   4.391   1.464   8.276  0.0897 -0.5358 -0.0904
   7323SM   HNF 9545   4.426   1.382   8.231 -1.1420 -0.7489 -0.6933
   7323SM   C2S 9546   4.474   1.503   8.385 -0.1289 -0.1792  0.3168
   7323SM   H2S 9547   4.459   1.612   8.401 -0.7451 -0.0226 -1.2005
   7323SM   C3S 9548   4.626   1.483   8.370  0.8465 -1.0482  0.1366
   7323SM   H3S 9549   4.639   1.373   8.356  3.6093 -0.9122  0.9936
   7323SM    O3 9550   4.706   1.516   8.476  0.4493  0.0807  0.2065
   7323SM   HO3 9551   4.657   1.488   8.553 -0.4271 -1.8263 -0.9512
   7323SM   C4S 9552   4.663   1.553   8.248 -0.5013 -0.2738 -0.1606
   7323SM   H4S 9553   4.645   1.661   8.245  0.4252 -0.0964  0.2949
   7323SM   C5S 9554   4.717   1.504   8.133 -0.1385  0.1522  0.5436
   7323SM   H5S 9555   4.751   1.401   8.119  1.8896  0.6764  1.3206
   7323SM   C6S 9556   4.752   1.595   8.017  0.1527  0.5378 -0.5116
   7323SM   H6S 9557   4.862   1.612   8.008  0.2020  1.2933  1.2511
   7323SM   H6T 9558   4.717   1.700   8.031 -2.3599 -0.4238  0.9847
   7323SM   C7S 9559   4.705   1.539   7.887 -0.1387 -0.0367 -0.0952
   7323SM   H7S 9560   4.595   1.528   7.893 -0.1111  0.2601  1.0714
   7323SM   H7T 9561   4.758   1.444   7.867  0.3294  0.0770  0.5634
   7323SM   C8S 9562   4.748   1.620   7.760 -0.2880 -0.2317  0.1450
   7323SM   H8S 9563   4.858   1.638   7.763 -0.1447 -0.9386 -0.5982
   7323SM   H8T 9564   4.702   1.721   7.761 -0.1689 -0.1780  0.2868
   7323SM   C9S 9565   4.723   1.545   7.630  0.0125 -0.3814  0.0085
   7323SM   H9S 9566   4.613   1.531   7.630 -0.0430  0.0423 -0.4210
   7323SM   H9T 9567   4.779   1.449   7.627  0.2002 -0.3695  1.8003
   7323SM  C10S 9568   4.748   1.620   7.500  0.3802  0.0091  0.3810
   7323SM  H10S 9569   4.854   1.609   7.471  0.3607 -2.0086  0.9426
   7323SM  H10T 9570   4.714   1.725   7.515  0.9823 -0.0820  2.8984
   7323SM  C11S 9571   4.673   1.560   7.381  0.4171 -0.5983 -0.4628
   7323SM  H11S 9572   4.674   1.635   7.299  0.3936  0.7595  0.7439
   7323SM  H11T 9573   4.567   1.548   7.413  0.3299  0.8773 -0.1288
   7323SM  C12S 9574   4.719   1.424   7.329 -0.4322 -0.0671 -0.0454
   7323SM  H12S 9575   4.717   1.341   7.402  1.7808 -1.8849 -1.9110
   7323SM  H12T 9576   4.823   1.444   7.295 -0.5763 -0.8811 -0.9826
   7323SM  C13S 9577   4.650   1.384   7.204 -0.3317  0.7325 -0.8337
   7323SM  H13S 9578   4.544   1.372   7.238  0.4973  0.4431  1.9487
   7323SM  H13T 9579   4.679   1.284   7.164  0.2990  0.1898  0.8811
   7323SM  C14S 9580   4.649   1.490   7.094  0.3586  0.3195 -0.5548
   7323SM  H14S 9581   4.750   1.533   7.077 -0.8317  2.6888 -2.3521
   7323SM  H14T 9582   4.585   1.574   7.129 -0.6706 -0.9309  0.7224
   7323SM  C15S 9583   4.607   1.443   6.958  0.1107  0.3472  0.2476
   7323SM  H15S 9584   4.577   1.533   6.900 -2.4439  0.3199  1.3873
   7323SM  H15T 9585   4.507   1.397   6.969  0.5753 -1.2282 -1.5958
   7323SM  C16S 9586   4.705   1.352   6.887  0.2412 -0.1206 -0.1397
   7323SM  H16S 9587   4.683   1.255   6.938  2.6104  0.5072  2.3251
   7323SM  H16T 9588   4.813   1.375   6.906  0.8279 -1.7571 -1.2346
   7323SM  C17S 9589   4.685   1.338   6.738  0.1929 -0.8238 -0.0099
   7323SM  H17S 9590   4.746   1.251   6.705 -0.4601 -1.2789 -0.0441
   7323SM  H17T 9591   4.728   1.429   6.691 -3.2653  0.4502 -0.9929
   7323SM  C18S 9592   4.546   1.340   6.685 -0.4735 -0.5098 -0.1826
   7323SM  H18S 9593   4.547   1.346   6.574  1.1317  1.1638 -0.1196
   7323SM  H18T 9594   4.491   1.429   6.724 -0.8415 -0.6075 -0.4736
   7323SM  H18U 9595   4.492   1.245   6.708 -1.5457  0.7101  3.0470
   7323SM   C1F 9596   4.273   1.504   8.248  1.8449 -0.3211  0.4584
   7323SM    OF 9597   4.213   1.585   8.317  0.0841 -0.1234 -0.0087
   7323SM   C2F 9598   4.200   1.454   8.124  0.0659 -0.2341  0.6506
   7323SM   H2F 9599   4.103   1.509   8.119  1.6026  2.7836  1.6223
   7323SM   H2G 9600   4.180   1.344   8.129 -1.1444 -0.0276  0.7471
   7323SM   C3F 9601   4.281   1.479   7.998 -0.6875  0.2841 -0.1156
   7323SM   H3F 9602   4.364   1.406   7.984 -1.4698 -0.6509 -0.0205
   7323SM   H3G 9603   4.329   1.578   8.009  0.3886 -0.2646  0.2540
   7323SM   C4F 9604   4.190   1.485   7.875  0.3469  1.0271  0.2626
   7323SM   H4F 9605   4.118   1.570   7.871 -2.2609 -1.0686  0.2113
   7323SM   H4G 9606   4.128   1.393   7.874  1.3671  0.2828  1.5607
   7323SM   C5F 9607   4.270   1.496   7.739  0.3564 -0.4776 -0.2936
   7323SM   H5F 9608   4.320   1.398   7.729 -1.5302 -1.6303  0.9658
   7323SM   H5G 9609   4.349   1.574   7.736 -1.7049  1.8524  1.2167
   7323SM   C6F 9610   4.191   1.520   7.609 -0.3219  1.1318  0.9836
   7323SM   H6F 9611   4.124   1.607   7.629 -1.7806  0.7014 -1.6650
   7323SM   H6G 9612   4.121   1.437   7.589  1.6611 -0.2995 -0.3503
   7323SM   C7F 9613   4.276   1.554   7.491 -0.5721  0.6425  1.0565
   7323SM   H7F 9614   4.349   1.474   7.465  0.8052  1.7561  1.4004
   7323SM   H7G 9615   4.334   1.646   7.515  2.1005 -0.4283 -0.7459
   7323SM   C8F 9616   4.195   1.588   7.365 -0.1052 -0.0345  0.7572
   7323SM   H8F 9617   4.110   1.648   7.403 -0.6941  1.1120 -2.1037
   7323SM   H8G 9618   4.149   1.493   7.330 -0.4223  0.7802 -1.2049
   7323SM   C9F 9619   4.276   1.660   7.259 -0.1202 -0.3767 -0.6305
   7323SM   H9F 9620   4.378   1.618   7.243 -0.1171 -0.8229  0.4450
   7323SM   H9G 9621   4.292   1.762   7.299 -0.1965 -0.0966 -1.3107
   7323SM  C10F 9622   4.213   1.651   7.118  0.1283  0.0851  0.4946
   7323SM  H10F 9623   4.281   1.710   7.053 -0.4892  1.2060  0.8547
   7323SM  H10G 9624   4.116   1.703   7.112  0.2436  0.1596 -2.4747
   7323SM  C11F 9625   4.215   1.512   7.051  0.5877 -0.1121 -0.3894
   7323SM  H11F 9626   4.135   1.454   7.101  1.0991 -0.0395  0.5471
   7323SM  H11G 9627   4.312   1.464   7.077  0.1532 -0.6500  0.2690
   7323SM  C12F 9628   4.194   1.528   6.900 -0.6587 -0.4511  0.6244
   7323SM  H12F 9629   4.269   1.598   6.858 -1.9459  3.2054  3.8247
   7323SM  H12G 9630   4.100   1.584   6.879  0.4044  0.4200 -2.2854
   7323SM  C13F 9631   4.174   1.403   6.819 -0.4215  0.3532 -0.5180
   7323SM  H13F 9632   4.077   1.350   6.832 -0.4538  0.4313 -0.4468
   7323SM  H13G 9633   4.259   1.336   6.844 -1.3188  0.0463  1.9778
   7323SM  C14F 9634   4.187   1.429   6.673 -0.4440  0.8301  0.6567
   7323SM  H14F 9635   4.276   1.494   6.658  0.4009 -0.1604  1.2428
   7323SM  H14G 9636   4.094   1.474   6.631 -0.0975  0.9693  0.0302
   7323SM  C15F 9637   4.202   1.299   6.592 -0.5036  0.0825  0.3503
   7323SM  H15F 9638   4.108   1.239   6.596  0.4035 -1.5410 -1.2166
   7323SM  H15G 9639   4.270   1.224   6.637 -1.4602  0.5525  2.7592
   7323SM  C16F 9640   4.246   1.323   6.441  0.1369 -0.1605 -0.8976
   7323SM  H16F 9641   4.332   1.394   6.437  1.3882 -1.6855 -2.4792
   7323SM  H16G 9642   4.158   1.358   6.383 -0.9549 -2.1692 -0.5341
   7323SM  C17F 9643   4.286   1.195   6.375 -0.3717  0.0551  0.2961
   7323SM  H17F 9644   4.191   1.139   6.363 -0.9608  0.8584  1.0192
   7323SM  H17G 9645   4.352   1.134   6.441 -1.8625 -0.4788  1.3609
   7323SM  C18F 9646   4.364   1.214   6.241 -0.6570 -0.3833  0.6427
   7323SM  H18F 9647   4.459   1.269   6.260 -0.5898 -0.4585  0.5261
   7323SM  H18G 9648   4.288   1.266   6.179  1.3211 -0.7328 -2.2592
   7323SM  C19F 9649   4.390   1.076   6.174 -0.3744 -0.5847  0.3109
   7323SM  H19F 9650   4.289   1.031   6.166 -1.2844  1.3897  0.2788
   7323SM  H19G 9651   4.439   0.998   6.237 -1.3634 -0.0811  1.7767
   7323SM  C20F 9652   4.446   1.079   6.029  0.3008  0.5780 -0.4284
   7323SM  H20F 9653   4.537   1.141   6.023  0.1686  0.8732  0.3890
   7323SM  H20G 9654   4.375   1.122   5.955  0.2271  1.3343  0.0645
   7323SM  C21F 9655   4.484   0.930   5.985  0.4780 -0.0301 -0.2003
   7323SM  H21F 9656   4.390   0.872   5.977 -0.8508  2.1966 -1.7743
   7323SM  H21G 9657   4.544   0.887   6.069 -1.1797  2.1190  2.2577
   7323SM  C22F 9658   4.555   0.925   5.852 -0.4378  0.1564  0.6195
   7323SM  H22F 9659   4.660   0.962   5.855 -0.6739  0.8765  0.3632
   7323SM  H22G 9660   4.507   0.991   5.777 -0.7950 -1.5405 -0.7221
   7323SM  C23F 9661   4.556   0.785   5.798  0.5359 -0.2582 -0.0603
   7323SM  H23F 9662   4.591   0.719   5.880  0.1616 -0.8535 -0.3656
   7323SM  H23G 9663   4.621   0.780   5.708 -1.8139 -1.6170 -1.8056
   7323SM  H23H 9664   4.448   0.761   5.780 -0.2362  1.7830  1.4590
   7423SM     N 9665   0.623   4.382   8.882 -0.4583  1.0560  0.2059
   7423SM   C15 9666   0.552   4.271   8.947  0.0980 -0.3251  0.6024
   7423SM  H15A 9667   0.574   4.261   9.052 -0.7912  0.6887  0.9078
   7423SM  H15B 9668   0.566   4.174   8.901  0.8365  1.0979 -2.4030
   7423SM  H15C 9669   0.444   4.281   8.942  0.0468 -1.3023 -2.1923
   7423SM   C14 9670   0.549   4.410   8.756  0.4546  0.7976  0.3217
   7423SM  H14A 9671   0.445   4.437   8.769 -0.4717 -2.6028  1.1382
   7423SM  H14B 9672   0.549   4.318   8.698  0.7102 -0.3278  2.0408
   7423SM  H14C 9673   0.588   4.496   8.703 -1.1910  1.5031  0.1919
   7423SM   C13 9674   0.614   4.503   8.977  0.0889 -0.1489  0.4884
   7423SM  H13A 9675   0.666   4.587   8.933  0.3674 -0.4284  0.2773
   7423SM  H13B 9676   0.651   4.475   9.074  0.3249 -1.5526  0.0257
   7423SM  H13C 9677   0.509   4.527   8.985 -0.0197 -0.0851 -0.8174
   7423SM   C12 9678   0.764   4.342   8.852 -0.5125  0.0586  0.1619
   7423SM  H12A 9679   0.819   4.332   8.944 -0.1739  2.9378  0.3634
   7423SM  H12B 9680   0.814   4.427   8.806  0.2718 -0.4378  0.0841
   7423SM   C11 9681   0.795   4.212   8.769  0.1855 -0.1218 -0.2146
   7423SM  H11A 9682   0.897   4.222   8.727 -0.1891  0.0066 -1.1147
   7423SM  H11B 9683   0.727   4.213   8.681  0.0931 -0.3207 -0.1460
   7423SM     P 9684   0.724   3.962   8.781 -0.0670  0.0084  0.2450
   7423SM   O13 9685   0.741   3.848   8.869  0.4071  0.4977 -0.2358
   7423SM   O14 9686   0.584   3.995   8.744  0.0976 -0.5808  0.2287
   7423SM   O11 9687   0.812   3.941   8.652  0.1735 -0.1253  0.2588
   7423SM   O12 9688   0.782   4.095   8.851 -0.3750 -0.0284  0.2644
   7423SM   C1S 9689   0.747   3.916   8.528 -0.6903  0.6506  0.1348
   7423SM   H1S 9690   0.691   4.006   8.493  2.5988  2.4412 -0.9161
   7423SM   H1T 9691   0.675   3.832   8.540 -0.7369  0.4196 -1.6218
   7423SM    NF 9692   0.767   3.882   8.286 -0.2932  0.0309 -0.3277
   7423SM   HNF 9693   0.708   3.808   8.253  2.6591 -3.2245  1.0596
   7423SM   C2S 9694   0.846   3.862   8.413  0.2633  0.0651  0.2917
   7423SM   H2S 9695   0.932   3.931   8.406 -0.6311  1.1101 -0.8597
   7423SM   C3S 9696   0.895   3.723   8.459  0.0908 -0.4019  0.8271
   7423SM   H3S 9697   0.806   3.656   8.461 -0.7542  0.6706  0.5042
   7423SM    O3 9698   0.956   3.726   8.593  0.3818 -1.1125  0.0736
   7423SM   HO3 9699   0.912   3.804   8.625 -1.7040 -1.4600 -1.7565
   7423SM   C4S 9700   0.996   3.666   8.365 -0.0017  0.7050 -0.1479
   7423SM   H4S 9701   0.963   3.591   8.291  1.3744 -0.1952  0.0955
   7423SM   C5S 9702   1.128   3.696   8.360  0.5032  0.4682 -0.5501
   7423SM   H5S 9703   1.152   3.784   8.421  0.7731  0.6106 -0.8596
   7423SM   C6S 9704   1.221   3.641   8.252 -0.3363 -0.1669 -0.1077
   7423SM   H6S 9705   1.297   3.581   8.305  0.3948  0.7512 -0.1053
   7423SM   H6T 9706   1.291   3.717   8.211 -1.6695  0.9781 -0.3399
   7423SM   C7S 9707   1.146   3.571   8.134 -0.2752  0.4387  0.1529
   7423SM   H7S 9708   1.080   3.650   8.090 -2.7173 -0.1669  2.4440
   7423SM   H7T 9709   1.095   3.484   8.180  0.3923 -0.9259 -1.6090
   7423SM   C8S 9710   1.230   3.507   8.021  0.0568 -0.2729  0.1153
   7423SM   H8S 9711   1.157   3.466   7.947  0.6538 -1.5384  0.2058
   7423SM   H8T 9712   1.289   3.419   8.053  0.2620 -0.7099 -1.3688
   7423SM   C9S 9713   1.333   3.608   7.960  0.5891  0.2315  0.0273
   7423SM   H9S 9714   1.406   3.636   8.039 -0.6040 -1.4360  1.8230
   7423SM   H9T 9715   1.279   3.699   7.926  1.2074  0.3827 -0.5633
   7423SM  C10S 9716   1.398   3.541   7.844 -0.0338  0.5684 -0.1713
   7423SM  H10S 9717   1.313   3.518   7.777 -1.8347  3.0350  1.1097
   7423SM  H10T 9718   1.432   3.439   7.870 -0.6904  0.1108 -1.0794
   7423SM  C11S 9719   1.508   3.627   7.785 -0.4379 -0.1203  0.2139
   7423SM  H11S 9720   1.575   3.645   7.872 -3.4119 -1.0452  2.9002
   7423SM  H11T 9721   1.468   3.729   7.763  2.0604  1.3313  1.8517
   7423SM  C12S 9722   1.573   3.574   7.653 -0.0710  0.1029 -0.4273
   7423SM  H12S 9723   1.639   3.488   7.677  1.4989  0.9576 -1.4627
   7423SM  H12T 9724   1.645   3.651   7.618  0.8333  0.0836  1.2917
   7423SM  C13S 9725   1.472   3.555   7.534  0.4551 -0.3513  0.5713
   7423SM  H13S 9726   1.422   3.652   7.512  0.2604 -0.6774 -0.4714
   7423SM  H13T 9727   1.392   3.485   7.568 -1.1989  0.7661 -0.8509
   7423SM  C14S 9728   1.543   3.510   7.408 -0.6165  0.3626 -0.3190
   7423SM  H14S 9729   1.573   3.403   7.406 -1.6369  0.0672 -0.7431
   7423SM  H14T 9730   1.634   3.573   7.403 -0.8670  1.0943  2.3953
   7423SM  C15S 9731   1.451   3.519   7.286 -0.1919  0.1460 -0.1459
   7423SM  H15S 9732   1.430   3.626   7.262 -0.3773  0.1547  0.0607
   7423SM  H15T 9733   1.359   3.458   7.292 -0.6561  0.3406 -3.3281
   7423SM  C16S 9734   1.530   3.448   7.179  0.0539  1.1600 -0.5536
   7423SM  H16S 9735   1.558   3.342   7.195  0.5026  1.0281 -2.0144
   7423SM  H16T 9736   1.628   3.499   7.181  1.6814 -1.7844  0.3120
   7423SM  C17S 9737   1.468   3.463   7.035 -0.9053 -0.4719  0.2632
   7423SM  H17S 9738   1.437   3.569   7.020  1.3490  0.0332 -1.3100
   7423SM  H17T 9739   1.379   3.397   7.035 -1.8356  0.4934  4.3198
   7423SM  C18S 9740   1.554   3.442   6.918  0.0645  0.2185  0.4109
   7423SM  H18S 9741   1.517   3.466   6.816 -0.1505  1.9778  0.8642
   7423SM  H18T 9742   1.579   3.335   6.905  1.1116  0.6611 -1.7743
   7423SM  H18U 9743   1.650   3.497   6.927 -0.5747  1.9629 -2.3176
   7423SM   C1F 9744   0.752   3.992   8.225 -0.6456 -0.2521  0.0674
   7423SM    OF 9745   0.798   4.092   8.280 -0.3095  0.6144  0.0102
   7423SM   C2F 9746   0.697   3.997   8.089 -0.4875 -0.1273  0.0520
   7423SM   H2F 9747   0.603   3.938   8.080 -0.4727  0.0596 -1.7015
   7423SM   H2G 9748   0.767   3.936   8.027  1.5681  0.4256  1.7151
   7423SM   C3F 9749   0.678   4.140   8.033  0.2581 -0.4124 -0.4687
   7423SM   H3F 9750   0.774   4.195   8.024 -0.1477  0.4233  0.1079
   7423SM   H3G 9751   0.618   4.196   8.109 -0.9360 -1.6020 -0.4905
   7423SM   C4F 9752   0.620   4.141   7.896  0.1854  0.3492 -0.5300
   7423SM   H4F 9753   0.601   4.248   7.871 -1.0135  0.5303  1.0058
   7423SM   H4G 9754   0.517   4.102   7.910  0.2374  0.9657  1.9946
   7423SM   C5F 9755   0.694   4.056   7.781  0.2833 -0.3634  0.1900
   7423SM   H5F 9756   0.689   3.946   7.799 -0.5063 -0.7551 -2.0892
   7423SM   H5G 9757   0.800   4.087   7.773  0.6427 -1.8138 -0.9561
   7423SM   C6F 9758   0.615   4.084   7.653 -0.4635  0.5607  0.0630
   7423SM   H6F 9759   0.626   4.191   7.625 -0.9016  0.9984  1.5061
   7423SM   H6G 9760   0.507   4.058   7.641  0.0223 -1.2894 -0.6393
   7423SM   C7F 9761   0.683   3.993   7.538  0.4344 -0.7105 -0.9709
   7423SM   H7F 9762   0.687   3.888   7.576 -0.2838  0.4127  2.5699
   7423SM   H7G 9763   0.785   4.035   7.532  0.2733  0.5292  2.8335
   7423SM   C8F 9764   0.609   4.001   7.398 -0.6229  0.4826 -0.6116
   7423SM   H8F 9765   0.624   4.103   7.356 -1.8567  0.0163 -2.2997
   7423SM   H8G 9766   0.500   3.983   7.409 -0.5500 -0.2250 -0.9892
   7423SM   C9F 9767   0.653   3.893   7.304 -0.2614 -0.2691  0.0518
   7423SM   H9F 9768   0.612   3.797   7.341  0.1709 -0.4812 -0.0029
   7423SM   H9G 9769   0.761   3.875   7.284 -0.7707 -3.2363 -0.4511
   7423SM  C10F 9770   0.581   3.906   7.173  0.5446  0.2035 -0.3179
   7423SM  H10F 9771   0.471   3.918   7.185  0.4569 -0.5041 -0.3557
   7423SM  H10G 9772   0.598   3.813   7.114  0.6315  2.1040 -3.5003
   7423SM  C11F 9773   0.647   4.005   7.079  0.1952  0.4166 -0.3527
   7423SM  H11F 9774   0.756   3.983   7.074  0.0496 -0.3338 -0.3110
   7423SM  H11G 9775   0.640   4.107   7.122 -1.4011  0.1005  0.2038
   7423SM  C12F 9776   0.577   4.000   6.943 -0.1049 -0.5928 -0.2619
   7423SM  H12F 9777   0.467   3.999   6.955 -0.0083  0.4727  0.8318
   7423SM  H12G 9778   0.603   3.904   6.892  1.5615  1.1781 -2.9938
   7423SM  C13F 9779   0.615   4.114   6.846 -0.6410 -0.3752 -0.3141
   7423SM  H13F 9780   0.725   4.097   6.834 -0.3642 -1.5008  2.8216
   7423SM  H13G 9781   0.606   4.210   6.902 -2.2284 -1.4539  1.3917
   7423SM  C14F 9782   0.530   4.129   6.723  0.2965 -0.1675  0.6031
   7423SM  H14F 9783   0.432   4.161   6.763 -0.8749  0.1264 -2.2818
   7423SM  H14G 9784   0.534   4.027   6.679  0.0189  0.1136 -0.0726
   7423SM  C15F 9785   0.585   4.237   6.633  0.5067 -0.5580  0.7280
   7423SM  H15F 9786   0.687   4.212   6.595 -1.1178 -2.3976 -2.9682
   7423SM  H15G 9787   0.587   4.323   6.703 -1.8776 -0.6145  0.9378
   7423SM  C16F 9788   0.494   4.269   6.509  0.6149 -0.0671 -0.3727
   7423SM  H16F 9789   0.480   4.176   6.450 -1.0427 -0.4284  0.5498
   7423SM  H16G 9790   0.539   4.352   6.450 -0.5716 -0.6200 -2.1422
   7423SM  C17F 9791   0.358   4.326   6.565 -0.2177  0.3860  0.2057
   7423SM  H17F 9792   0.377   4.404   6.642 -1.3660  1.3703 -0.4696
   7423SM  H17G 9793   0.307   4.240   6.613 -0.3670 -0.5802 -1.5930
   7423SM  C18F 9794   0.258   4.368   6.461 -0.0968 -0.5781  0.1733
   7423SM  H18F 9795   0.160   4.371   6.512  0.0898 -2.8008  0.7623
   7423SM  H18G 9796   0.253   4.284   6.389  0.6991  0.2378 -0.8663
   7423SM  C19F 9797   0.285   4.499   6.391 -0.5731 -0.5187  0.3896
   7423SM  H19F 9798   0.382   4.489   6.337 -0.8638 -3.2178  0.2659
   7423SM  H19G 9799   0.299   4.582   6.463  1.3659 -0.5872  0.1327
   7423SM  C20F 9800   0.190   4.536   6.278  1.1242  0.8798  0.7332
   7423SM  H20F 9801   0.148   4.440   6.241 -0.5189  0.8242  2.5907
   7423SM  H20G 9802   0.258   4.583   6.204  1.2126 -1.7155 -1.0037
   7423SM  C21F 9803   0.082   4.626   6.320 -0.3599  0.1617 -0.7299
   7423SM  H21F 9804   0.133   4.714   6.365  0.4959 -0.8732  0.3962
   7423SM  H21G 9805   0.024   4.567   6.394  2.0586 -2.0802 -0.4591
   7423SM  C22F 9806  -0.008   4.678   6.210  1.0304  0.0867 -0.5660
   7423SM  H22F 9807  -0.094   4.608   6.208 -0.5136  1.9004 -2.1632
   7423SM  H22G 9808   0.042   4.660   6.112 -1.2419 -1.6719 -1.5023
   7423SM  C23F 9809  -0.070   4.811   6.230  0.4120 -0.2525  0.0803
   7423SM  H23F 9810   0.010   4.888   6.234  1.5583 -1.4730  1.2259
   7423SM  H23G 9811  -0.141   4.816   6.316  1.1232  2.0623  0.6123
   7423SM  H23H 9812  -0.135   4.829   6.141 -2.5572 -0.2154  2.0976
   7523SM     N 9813   6.159   5.666   8.810 -0.2480  0.2620 -0.3466
   7523SM   C15 9814   6.185   5.771   8.912  0.0224  0.7140  0.6892
   7523SM  H15A 9815   6.139   5.869   8.900  1.6174  1.5634  1.2476
   7523SM  H15B 9816   6.285   5.808   8.895  0.9360 -1.2090  1.5977
   7523SM  H15C 9817   6.168   5.740   9.014 -0.5971  1.5353  0.8565
   7523SM   C14 9818   6.022   5.614   8.828 -0.1241  0.2727  0.1053
   7523SM  H14A 9819   6.007   5.537   8.754  3.1455  0.1858 -0.6383
   7523SM  H14B 9820   5.948   5.692   8.826 -1.4778 -0.9489  1.0901
   7523SM  H14C 9821   6.006   5.556   8.917 -1.2806 -0.2263 -0.4073
   7523SM   C13 9822   6.172   5.728   8.677  0.1049  0.1537  0.7067
   7523SM  H13A 9823   6.276   5.753   8.661  0.3479 -1.2187 -0.0202
   7523SM  H13B 9824   6.119   5.822   8.678  1.6391  1.0626  0.1922
   7523SM  H13C 9825   6.128   5.661   8.604  1.1755  2.2960 -2.0413
   7523SM   C12 9826   6.266   5.553   8.833  0.3750 -0.8370  0.0553
   7523SM  H12A 9827   6.245   5.497   8.923  1.7691 -1.5615 -0.0444
   7523SM  H12B 9828   6.360   5.606   8.842  0.1572  0.1507 -2.5164
   7523SM   C11 9829   6.284   5.459   8.714 -0.0664 -0.7949 -0.3542
   7523SM  H11A 9830   6.374   5.395   8.727 -0.2894 -1.0922 -0.2415
   7523SM  H11B 9831   6.304   5.525   8.627  1.8240 -0.8299  0.0008
   7523SM     P 9832   6.148   5.296   8.573  0.1718  0.1063 -0.0758
   7523SM   O13 9833   6.272   5.222   8.548 -0.6755 -0.4139  0.1887
   7523SM   O14 9834   6.023   5.222   8.581  0.5385 -0.0854  0.3839
   7523SM   O11 9835   6.125   5.408   8.470  0.1393  0.0064  0.4469
   7523SM   O12 9836   6.163   5.377   8.702 -0.6123 -0.2898  0.6544
   7523SM   C1S 9837   6.212   5.480   8.389 -0.0694  0.2238 -0.1710
   7523SM   H1S 9838   6.320   5.471   8.415  0.3151  1.1016 -1.4123
   7523SM   H1T 9839   6.200   5.590   8.392  3.0034  0.6611 -0.5646
   7523SM    NF 9840   6.307   5.474   8.142  0.3386 -0.2697 -0.1613
   7523SM   HNF 9841   6.273   5.513   8.057 -1.0492 -1.6998 -0.3004
   7523SM   C2S 9842   6.199   5.428   8.238 -0.6712 -0.0041 -0.2804
   7523SM   H2S 9843   6.203   5.317   8.242 -0.6694 -0.1174 -2.3658
   7523SM   C3S 9844   6.062   5.466   8.183 -0.4304  0.5254 -0.1874
   7523SM   H3S 9845   6.048   5.576   8.189  1.3474  0.7171  1.5089
   7523SM    O3 9846   5.958   5.411   8.260 -0.0084  0.4707 -0.2281
   7523SM   HO3 9847   6.002   5.384   8.341 -2.2148 -0.9478  0.5751
   7523SM   C4S 9848   6.046   5.410   8.046 -0.0565  0.1124  0.4021
   7523SM   H4S 9849   6.043   5.482   7.962 -0.4185 -1.7393 -1.2430
   7523SM   C5S 9850   6.029   5.279   8.017 -0.7445  0.6667  0.2839
   7523SM   H5S 9851   6.039   5.207   8.100  1.3147  1.7345  1.0424
   7523SM   C6S 9852   6.012   5.222   7.876 -0.0219 -0.5015  0.4062
   7523SM   H6S 9853   5.903   5.210   7.862  0.4048 -3.7126 -1.0507
   7523SM   H6T 9854   6.044   5.116   7.864  2.4228  0.2131 -0.0869
   7523SM   C7S 9855   6.070   5.311   7.759  0.2746  0.9028  0.0648
   7523SM   H7S 9856   6.180   5.320   7.771  0.1938  3.7579 -0.7324
   7523SM   H7T 9857   6.029   5.414   7.769 -0.2545  0.8692 -1.5460
   7523SM   C8S 9858   6.047   5.242   7.621  0.3101 -0.0228 -0.5612
   7523SM   H8S 9859   5.938   5.254   7.603  0.4550 -0.9113 -2.2985
   7523SM   H8T 9860   6.061   5.132   7.632  0.4271 -0.0592 -1.0257
   7523SM   C9S 9861   6.134   5.281   7.502 -0.2857  0.2370 -0.5164
   7523SM   H9S 9862   6.228   5.222   7.513 -0.8072 -0.5710 -0.2846
   7523SM   H9T 9863   6.166   5.387   7.509  2.0488 -0.3172 -1.7600
   7523SM  C10S 9864   6.070   5.262   7.365  0.5263  0.2459  0.4816
   7523SM  H10S 9865   5.998   5.346   7.354  0.8016  0.4941  0.6014
   7523SM  H10T 9866   6.008   5.171   7.344  0.5352  0.6029 -1.2124
   7523SM  C11S 9867   6.173   5.274   7.250  0.8338  0.3494  0.4632
   7523SM  H11S 9868   6.250   5.194   7.256 -0.4506 -0.8474  1.5605
   7523SM  H11T 9869   6.224   5.372   7.263  1.9285 -0.0671 -0.4784
   7523SM  C12S 9870   6.104   5.272   7.117 -0.5525  0.8490  0.1403
   7523SM  H12S 9871   6.004   5.319   7.124 -0.4550  0.8241  2.8782
   7523SM  H12T 9872   6.092   5.163   7.098  0.6495  0.0172  3.4485
   7523SM  C13S 9873   6.190   5.329   7.007  0.1480 -0.1454 -0.2751
   7523SM  H13S 9874   6.286   5.283   6.974 -1.0342 -2.6574 -0.4446
   7523SM  H13T 9875   6.211   5.430   7.047 -0.9610 -0.7216  1.9484
   7523SM  C14S 9876   6.099   5.343   6.884  0.3546 -0.6504  0.0466
   7523SM  H14S 9877   6.007   5.400   6.908  0.3743 -0.7439  0.3445
   7523SM  H14T 9878   6.058   5.252   6.835 -0.6290 -0.6763  0.8921
   7523SM  C15S 9879   6.161   5.425   6.767  0.3710  0.1462  0.1078
   7523SM  H15S 9880   6.211   5.516   6.805 -0.6736  0.3643  1.0015
   7523SM  H15T 9881   6.077   5.452   6.699  0.7705 -0.5250 -0.6649
   7523SM  C16S 9882   6.266   5.345   6.693 -0.4762  0.3328 -0.1227
   7523SM  H16S 9883   6.341   5.316   6.769 -0.5092  0.9118  0.1296
   7523SM  H16T 9884   6.316   5.395   6.607  1.0065 -1.3873 -0.3357
   7523SM  C17S 9885   6.219   5.211   6.629 -1.0044  0.5320  0.5574
   7523SM  H17S 9886   6.126   5.230   6.570 -1.7544 -4.2373 -0.1935
   7523SM  H17T 9887   6.200   5.149   6.719 -0.3718  1.3540  1.2712
   7523SM  C18S 9888   6.328   5.144   6.540  0.5908  0.1845 -0.4719
   7523SM  H18S 9889   6.430   5.150   6.583 -0.1390 -0.3747  1.4587
   7523SM  H18T 9890   6.324   5.213   6.453  1.3438 -0.2300 -0.8419
   7523SM  H18U 9891   6.300   5.043   6.502 -0.3000  0.5024 -0.6928
   7523SM   C1F 9892   6.429   5.431   8.148  0.2934 -0.2871  0.7052
   7523SM    OF 9893   6.470   5.378   8.249  0.2246 -0.5703 -0.7472
   7523SM   C2F 9894   6.522   5.469   8.037  0.4834  1.1935 -0.1381
   7523SM   H2F 9895   6.627   5.442   8.061 -0.6262 -3.4794  0.3843
   7523SM   H2G 9896   6.522   5.579   8.018  1.0137  1.4384  1.1895
   7523SM   C3F 9897   6.483   5.396   7.910  0.3683 -0.2542 -0.0310
   7523SM   H3F 9898   6.377   5.416   7.887  0.5358  2.6772  1.2727
   7523SM   H3G 9899   6.495   5.286   7.923  0.0877 -0.7996 -3.4301
   7523SM   C4F 9900   6.561   5.418   7.780  0.3102 -0.1174 -0.8288
   7523SM   H4F 9901   6.668   5.400   7.801  0.3780  0.4580 -0.6864
   7523SM   H4G 9902   6.548   5.525   7.752 -1.4103  0.2083  1.0170
   7523SM   C5F 9903   6.513   5.328   7.664 -0.8610 -0.7906 -0.0024
   7523SM   H5F 9904   6.407   5.354   7.640 -0.1715  1.1345 -1.0968
   7523SM   H5G 9905   6.506   5.222   7.698  0.5306 -1.3019 -1.2058
   7523SM   C6F 9906   6.590   5.349   7.537 -0.2503  0.0300  0.2743
   7523SM   H6F 9907   6.696   5.325   7.559 -0.4406 -1.0756  0.0314
   7523SM   H6G 9908   6.582   5.457   7.511 -1.4511 -0.1334 -0.1195
   7523SM   C7F 9909   6.541   5.275   7.416  0.3960 -0.4345  0.8081
   7523SM   H7F 9910   6.430   5.278   7.413  0.3808 -0.7807 -1.7193
   7523SM   H7G 9911   6.577   5.170   7.421 -2.2914 -1.5253 -0.3674
   7523SM   C8F 9912   6.590   5.333   7.284  0.2726  0.9074 -0.3331
   7523SM   H8F 9913   6.701   5.331   7.283  0.4169  0.2306  3.2147
   7523SM   H8G 9914   6.571   5.441   7.268  2.6660  1.5254  0.5755
   7523SM   C9F 9915   6.546   5.246   7.164  0.6031  0.0119  0.2693
   7523SM   H9F 9916   6.435   5.252   7.154  0.7112  1.9532 -0.2781
   7523SM   H9G 9917   6.572   5.142   7.192  0.5632 -0.4328 -1.2584
   7523SM  C10F 9918   6.606   5.297   7.034  0.5252 -0.3205  0.4085
   7523SM  H10F 9919   6.714   5.314   7.051  0.9372  0.1272 -2.2850
   7523SM  H10G 9920   6.553   5.391   7.008 -1.9121 -1.8679 -0.5812
   7523SM  C11F 9921   6.586   5.198   6.917 -0.3762  0.5437 -0.0694
   7523SM  H11F 9922   6.481   5.211   6.884 -0.9317  1.1975  1.7774
   7523SM  H11G 9923   6.606   5.097   6.960  1.6360  0.9592  0.0899
   7523SM  C12F 9924   6.679   5.210   6.806  0.1090 -0.0914  0.1831
   7523SM  H12F 9925   6.666   5.136   6.725 -0.2252 -1.0452  1.0862
   7523SM  H12G 9926   6.785   5.197   6.836  0.0124  0.4503  0.7931
   7523SM  C13F 9927   6.666   5.347   6.748 -0.0838  0.4557 -0.0149
   7523SM  H13F 9928   6.626   5.430   6.810  2.5008  1.4876  0.4028
   7523SM  H13G 9929   6.583   5.338   6.674 -0.2606 -0.9065  0.3306
   7523SM  C14F 9930   6.797   5.390   6.679 -0.5937  0.2972  0.0776
   7523SM  H14F 9931   6.820   5.310   6.605 -2.1661 -0.6675  0.5866
   7523SM  H14G 9932   6.884   5.402   6.748 -0.3740  0.1823 -0.1744
   7523SM  C15F 9933   6.776   5.515   6.597  1.0189  0.8502 -0.5011
   7523SM  H15F 9934   6.874   5.567   6.604  1.5988 -0.2896  0.1917
   7523SM  H15G 9935   6.693   5.577   6.640 -0.3011 -0.5181 -0.9952
   7523SM  C16F 9936   6.740   5.476   6.451  0.5929  0.7453  0.4072
   7523SM  H16F 9937   6.644   5.423   6.440  0.2881  1.5438 -1.0161
   7523SM  H16G 9938   6.824   5.410   6.421 -0.1896 -0.3297  0.5330
   7523SM  C17F 9939   6.717   5.596   6.358 -0.2929  0.1007 -0.2865
   7523SM  H17F 9940   6.803   5.667   6.357  1.7635 -2.2263 -2.2953
   7523SM  H17G 9941   6.631   5.649   6.405  0.1929 -0.6715  1.5768
   7523SM  C18F 9942   6.684   5.559   6.213 -0.2979 -0.5827 -0.7139
   7523SM  H18F 9943   6.618   5.470   6.206  0.2103 -0.8603 -2.4933
   7523SM  H18G 9944   6.770   5.529   6.150  1.2493  1.5045  0.3017
   7523SM  C19F 9945   6.612   5.677   6.141  0.2631 -0.4180  0.0787
   7523SM  H19F 9946   6.683   5.762   6.143 -0.7870  0.5627 -1.8337
   7523SM  H19G 9947   6.524   5.703   6.203  0.6121  1.5554 -0.1905
   7523SM  C20F 9948   6.567   5.641   5.997 -0.0434  0.1263 -0.4263
   7523SM  H20F 9949   6.527   5.538   5.993  2.3527 -0.8934 -0.1174
   7523SM  H20G 9950   6.658   5.640   5.933  0.0275  3.4826 -0.5955
   7523SM  C21F 9951   6.453   5.722   5.950  0.2171  0.1716 -1.0416
   7523SM  H21F 9952   6.435   5.702   5.842  0.2673 -1.6460 -0.7462
   7523SM  H21G 9953   6.477   5.831   5.956 -1.2164  0.4206  1.6341
   7523SM  C22F 9954   6.317   5.700   6.012  0.1645 -0.5625 -0.1431
   7523SM  H22F 9955   6.329   5.717   6.122 -0.9208 -0.5231 -0.0203
   7523SM  H22G 9956   6.270   5.600   6.004  0.7858 -0.8336 -0.4970
   7523SM  C23F 9957   6.212   5.805   5.966  0.8737  0.0159 -0.3489
   7523SM  H23F 9958   6.188   5.793   5.858  0.3728 -0.8053 -0.1566
   7523SM  H23G 9959   6.244   5.907   5.995  2.3974 -0.8903  1.3365
   7523SM  H23H 9960   6.115   5.797   6.020  0.0171 -1.0566 -1.9491
   7623SM     N 9961   1.348   4.218   8.886 -0.1064 -0.1035 -0.1819
   7623SM   C15 9962   1.244   4.307   8.958  0.4474 -0.3217  0.4930
   7623SM  H15A 9963   1.220   4.393   8.898 -0.9770  0.0105  1.4783
   7623SM  H15B 9964   1.278   4.342   9.055 -1.1938 -0.9233  1.3410
   7623SM  H15C 9965   1.153   4.255   8.987 -0.5700  0.6088 -0.8966
   7623SM   C14 9966   1.470   4.296   8.892  0.1704 -0.2810 -0.6606
   7623SM  H14A 9967   1.544   4.259   8.824 -0.9991 -1.3907 -1.3760
   7623SM  H14B 9968   1.497   4.313   8.995 -3.2681  2.0819  0.0421
   7623SM  H14C 9969   1.453   4.395   8.851  0.5945  0.5514  1.0728
   7623SM   C13 9970   1.356   4.095   8.963 -0.0654 -0.0219  0.5223
   7623SM  H13A 9971   1.449   4.043   8.946 -0.9430 -1.8101  0.9369
   7623SM  H13B 9972   1.280   4.020   8.947  2.2088 -2.7021  1.5114
   7623SM  H13C 9973   1.338   4.119   9.067  0.9578  1.8042  0.3145
   7623SM   C12 9974   1.309   4.193   8.742  0.1540  0.0879  0.1069
   7623SM  H12A 9975   1.203   4.174   8.752 -0.3213  2.8112  1.4206
   7623SM  H12B 9976   1.373   4.110   8.715  1.2131  1.0298 -0.3842
   7623SM   C11 9977   1.327   4.317   8.651 -0.0481 -0.1553 -0.2987
   7623SM  H11A 9978   1.284   4.290   8.552 -1.3694  1.2749 -0.1496
   7623SM  H11B 9979   1.434   4.344   8.639  0.1282 -0.6149  0.2153
   7623SM     P 9980   1.283   4.572   8.667 -0.2395  0.5123  0.2857
   7623SM   O13 9981   1.177   4.671   8.700  0.1316 -0.2558 -0.6220
   7623SM   O14 9982   1.414   4.577   8.733  0.1018  0.4973 -0.3246
   7623SM   O11 9983   1.322   4.574   8.515 -0.0768  0.5920  0.1739
   7623SM   O12 9984   1.244   4.422   8.698 -0.1124 -0.4903 -0.1144
   7623SM   C1S 9985   1.220   4.545   8.410 -0.5654 -0.1336  0.2164
   7623SM   H1S 9986   1.123   4.563   8.460 -0.4412 -1.9298  1.1807
   7623SM   H1T 9987   1.212   4.437   8.386 -1.3665  0.1939 -1.0714
   7623SM    NF 9988   1.107   4.623   8.204  0.0494 -0.4516 -0.4642
   7623SM   HNF 9989   1.107   4.562   8.125  0.7923 -0.9010 -0.1284
   7623SM   C2S 9990   1.229   4.633   8.282  0.2513 -0.7650 -0.2972
   7623SM   H2S 9991   1.226   4.738   8.318  1.7165 -1.0112  0.6184
   7623SM   C3S 9992   1.359   4.607   8.212 -0.2660  0.1426  0.5631
   7623SM   H3S 9993   1.346   4.507   8.165  0.4952  0.8852 -1.3498
   7623SM    O3 9994   1.473   4.594   8.302  0.6124  0.5805  0.3670
   7623SM   HO3 9995   1.431   4.592   8.388  1.9523  0.5009  1.0453
   7623SM   C4S 9996   1.377   4.707   8.106 -0.1150 -0.1969  0.4778
   7623SM   H4S 9997   1.326   4.693   8.009  2.5492 -0.7256 -0.9563
   7623SM   C5S 9998   1.448   4.815   8.111 -0.3541  0.1960 -0.1592
   7623SM   H5S 9999   1.505   4.835   8.203  0.0201  0.9632 -0.5502
   7623SM   C6S10000   1.454   4.917   7.996  0.1697  0.1961  0.7391
   7623SM   H6S10001   1.546   4.903   7.936 -0.6059  1.8916 -0.9679
   7623SM   H6T10002   1.468   5.018   8.041 -0.3425 -0.4300  2.3502
   7623SM   C7S10003   1.336   4.931   7.894  0.0563  0.2396  0.2222
   7623SM   H7S10004   1.259   5.001   7.933 -1.9228 -0.4960 -2.1075
   7623SM   H7T10005   1.283   4.834   7.882  0.5065 -0.1197  1.1086
   7623SM   C8S10006   1.377   4.973   7.756  0.0220 -0.9057  0.0024
   7623SM   H8S10007   1.439   4.888   7.719 -1.0057 -1.7716  0.1855
   7623SM   H8T10008   1.442   5.062   7.767  2.1755 -2.1241 -1.9670
   7623SM   C9S10009   1.257   4.993   7.658 -0.1931  0.1550 -0.6364
   7623SM   H9S10010   1.219   5.096   7.676  0.7423  0.7537 -1.9400
   7623SM   H9T10011   1.177   4.918   7.674 -1.7092  2.1374  1.9375
   7623SM  C10S10012   1.305   5.014   7.519 -0.1333 -0.0605  0.1166
   7623SM  H10S10013   1.381   5.096   7.515  0.0008 -0.2188 -0.6715
   7623SM  H10T10014   1.217   5.036   7.456  0.7981  0.2411 -1.1274
   7623SM  C11S10015   1.377   4.890   7.458 -1.0774  0.0719  0.5306
   7623SM  H11S10016   1.312   4.800   7.458 -0.3613 -0.5007  2.4663
   7623SM  H11T10017   1.478   4.878   7.503 -0.9437  2.4621  1.0227
   7623SM  C12S10018   1.401   4.917   7.312  0.2015  0.1992  0.3666
   7623SM  H12S10019   1.461   5.011   7.310  0.0713  0.2909  0.6619
   7623SM  H12T10020   1.302   4.924   7.263 -1.0491  0.2140  2.7560
   7623SM  C13S10021   1.480   4.803   7.242 -0.0458  0.3967 -0.2744
   7623SM  H13S10022   1.445   4.707   7.285  0.1581 -0.3559 -1.7205
   7623SM  H13T10023   1.588   4.813   7.267  0.1178 -1.1695 -0.2580
   7623SM  C14S10024   1.455   4.796   7.090  0.0731  0.1540 -0.1548
   7623SM  H14S10025   1.445   4.901   7.056 -2.6068 -0.2587 -0.8403
   7623SM  H14T10026   1.356   4.747   7.080 -0.0376  0.4788 -0.6568
   7623SM  C15S10027   1.566   4.724   7.010  0.3319 -0.3018  0.2340
   7623SM  H15S10028   1.589   4.629   7.063 -0.5276 -1.2072 -0.9676
   7623SM  H15T10029   1.664   4.776   7.016  0.4798 -0.6828  1.3035
   7623SM  C16S10030   1.526   4.688   6.867  0.2568  0.1666  0.1158
   7623SM  H16S10031   1.501   4.783   6.815  2.3699  0.6115 -0.1806
   7623SM  H16T10032   1.441   4.618   6.870  0.1955  0.2576  1.2509
   7623SM  C17S10033   1.643   4.630   6.793  0.4511 -0.2850  1.2020
   7623SM  H17S10034   1.678   4.536   6.840 -1.8442 -1.1386  1.3267
   7623SM  H17T10035   1.721   4.709   6.784  0.5916 -0.5347  0.1479
   7623SM  C18S10036   1.607   4.599   6.646 -0.0242  0.5607 -0.2367
   7623SM  H18S10037   1.699   4.571   6.591  0.8039  0.4311  1.1714
   7623SM  H18T10038   1.560   4.689   6.600 -1.2777  0.9669  1.7218
   7623SM  H18U10039   1.532   4.518   6.636  1.4345 -0.9835  0.9435
   7623SM   C1F10040   0.987   4.656   8.243  0.4277 -0.4219  0.2079
   7623SM    OF10041   0.966   4.724   8.340 -0.2787  0.4492  1.1590
   7623SM   C2F10042   0.871   4.616   8.161  0.2774  0.2594 -0.0654
   7623SM   H2F10043   0.777   4.620   8.220  0.5088 -2.0398  0.5723
   7623SM   H2G10044   0.887   4.510   8.132  0.7094 -0.0942  1.3870
   7623SM   C3F10045   0.850   4.701   8.028  0.2372  0.0273 -0.1142
   7623SM   H3F10046   0.931   4.675   7.956  1.3142 -1.5728  1.5713
   7623SM   H3G10047   0.846   4.806   8.062 -0.4478  0.2854 -0.9705
   7623SM   C4F10048   0.721   4.672   7.952  0.1595  0.0759  0.4382
   7623SM   H4F10049   0.639   4.701   8.021 -0.7518  1.8555 -1.2961
   7623SM   H4G10050   0.717   4.562   7.941 -0.3773 -0.0205  1.4694
   7623SM   C5F10051   0.704   4.743   7.822  0.4817 -0.1674 -0.1369
   7623SM   H5F10052   0.709   4.852   7.844 -0.3791  0.0546 -0.9501
   7623SM   H5G10053   0.602   4.723   7.781 -0.1266 -0.7881  1.5887
   7623SM   C6F10054   0.803   4.703   7.711 -0.3487  0.3994  0.0509
   7623SM   H6F10055   0.800   4.595   7.684  2.0452  0.6739 -1.6962
   7623SM   H6G10056   0.910   4.728   7.728  0.1570 -0.0492 -2.1459
   7623SM   C7F10057   0.766   4.764   7.573 -0.0295 -0.1040  0.3297
   7623SM   H7F10058   0.734   4.870   7.585 -0.2610  0.3667 -3.3940
   7623SM   H7G10059   0.678   4.711   7.531  0.4201  0.0071 -0.7726
   7623SM   C8F10060   0.875   4.767   7.467 -0.3017  0.2457 -0.0527
   7623SM   H8F10061   0.932   4.672   7.468  0.9697  0.8989  3.1334
   7623SM   H8G10062   0.933   4.860   7.486  0.4014 -0.2411  0.1956
   7623SM   C9F10063   0.816   4.793   7.322 -0.4616 -0.4881 -0.3052
   7623SM   H9F10064   0.716   4.840   7.336  0.8990  2.3091  1.0670
   7623SM   H9G10065   0.820   4.696   7.269  0.7992 -1.5067  1.5226
   7623SM  C10F10066   0.901   4.892   7.233  0.8118  0.5291 -0.4067
   7623SM  H10F10067   0.920   4.989   7.285 -1.2889  0.7854 -0.0531
   7623SM  H10G10068   0.841   4.904   7.141 -1.7538  0.5315  1.1760
   7623SM  C11F10069   1.037   4.828   7.189  0.2769  0.1437  0.1814
   7623SM  H11F10070   1.020   4.723   7.155 -0.3157  0.4867 -0.6035
   7623SM  H11G10071   1.101   4.829   7.280  0.5134  0.8164  0.0122
   7623SM  C12F10072   1.100   4.886   7.062 -0.0805 -0.4798  0.4685
   7623SM  H12F10073   1.208   4.862   7.074 -0.1713 -0.5348  1.2196
   7623SM  H12G10074   1.087   4.996   7.059  0.5677 -0.3945 -2.2680
   7623SM  C13F10075   1.046   4.829   6.933 -0.4693 -0.1050 -0.5573
   7623SM  H13F10076   0.941   4.866   6.933 -0.5188 -0.2438 -0.3199
   7623SM  H13G10077   1.040   4.718   6.924 -0.9011 -0.1611  0.3059
   7623SM  C14F10078   1.123   4.895   6.815 -0.8274  0.4744 -0.7537
   7623SM  H14F10079   1.230   4.882   6.842 -0.9819 -1.3509 -0.9391
   7623SM  H14G10080   1.094   5.001   6.832 -0.5149  0.4708 -0.1840
   7623SM  C15F10081   1.082   4.852   6.675  0.3819 -0.5923 -0.4121
   7623SM  H15F10082   0.981   4.887   6.644  0.8460 -1.0001 -2.5044
   7623SM  H15G10083   1.059   4.744   6.675 -1.9611 -0.1504 -0.7296
   7623SM  C16F10084   1.177   4.889   6.560 -0.2830 -0.7344 -1.0510
   7623SM  H16F10085   1.276   4.850   6.591  1.0928  3.5235  0.6417
   7623SM  H16G10086   1.188   4.999   6.551 -1.5589 -0.3276  1.3883
   7623SM  C17F10087   1.138   4.827   6.422 -0.5664 -0.3266 -0.3566
   7623SM  H17F10088   1.195   4.882   6.344 -1.6991  2.1268  0.4747
   7623SM  H17G10089   1.042   4.858   6.377  0.4312  0.7087 -1.8758
   7623SM  C18F10090   1.162   4.673   6.409  0.2271 -0.1434 -1.2559
   7623SM  H18F10091   1.084   4.636   6.339 -0.7599 -1.5424  0.4968
   7623SM  H18G10092   1.136   4.614   6.500 -0.2806  0.6727 -0.8533
   7623SM  C19F10093   1.304   4.651   6.350  0.2897 -0.5127 -0.4469
   7623SM  H19F10094   1.385   4.670   6.423 -0.3166 -4.2238  1.3750
   7623SM  H19G10095   1.311   4.713   6.258  1.2868 -0.3928 -0.2990
   7623SM  C20F10096   1.317   4.503   6.316  0.6080  0.2376 -0.0876
   7623SM  H20F10097   1.219   4.486   6.267  1.9631  0.6871 -3.1865
   7623SM  H20G10098   1.320   4.440   6.407 -1.7850  0.0939 -0.0440
   7623SM  C21F10099   1.423   4.477   6.207 -0.4350 -0.4525  1.0443
   7623SM  H21F10100   1.390   4.373   6.185 -0.3764 -0.1821 -0.3725
   7623SM  H21G10101   1.519   4.480   6.263  0.7484  1.3950 -0.9728
   7623SM  C22F10102   1.415   4.558   6.083 -0.0463 -0.4083  0.1038
   7623SM  H22F10103   1.461   4.657   6.100  0.2581 -0.1254 -2.0826
   7623SM  H22G10104   1.311   4.573   6.045  0.3583 -1.1489 -1.3296
   7623SM  C23F10105   1.489   4.489   5.968  0.1894 -0.8242 -0.8073
   7623SM  H23F10106   1.465   4.533   5.868 -0.9579 -0.3865 -0.3547
   7623SM  H23G10107   1.471   4.380   5.960 -0.6092 -0.8244  0.7252
   7623SM  H23H10108   1.599   4.499   5.979  0.1207 -1.2886  0.4646
   7723SM     N10109   6.688   1.759   8.974  0.1406 -0.0651  0.2851
   7723SM   C1510110   6.727   1.879   8.897 -0.2355  0.1731 -0.0311
   7723SM  H15A10111   6.673   1.878   8.804  0.9515 -2.5379 -0.7892
   7723SM  H15B10112   6.833   1.886   8.882 -0.3510 -1.7787 -2.3266
   7723SM  H15C10113   6.689   1.966   8.949  0.2990  0.0719  0.5390
   7723SM   C1410114   6.768   1.744   9.100 -0.0178  0.2080  0.1682
   7723SM  H14A10115   6.744   1.820   9.174 -0.8175 -0.3549  0.4983
   7723SM  H14B10116   6.873   1.739   9.077  0.1169  0.8045  0.6397
   7723SM  H14C10117   6.753   1.645   9.140 -1.6622  0.4686  0.2506
   7723SM   C1310118   6.543   1.777   9.004  0.3023  0.0358  0.7723
   7723SM  H13A10119   6.488   1.794   8.913  0.8377  1.6814  0.7326
   7723SM  H13B10120   6.523   1.866   9.061  0.0931  0.8371 -0.5127
   7723SM  H13C10121   6.504   1.689   9.053  0.0879 -1.0667 -1.2675
   7723SM   C1210122   6.705   1.645   8.873 -0.4523 -0.3594  0.1943
   7723SM  H12A10123   6.812   1.631   8.866 -0.3176 -0.3042  1.7767
   7723SM  H12B10124   6.669   1.682   8.778 -0.1331 -0.9706 -0.1714
   7723SM   C1110125   6.638   1.511   8.910  0.3570  0.0936  0.1979
   7723SM  H11A10126   6.647   1.438   8.825  1.5988  0.6923 -0.2157
   7723SM  H11B10127   6.530   1.532   8.919  0.2798 -0.4323  0.5340
   7723SM     P10128   6.831   1.370   9.018  0.7317 -0.2038  0.1848
   7723SM   O1310129   6.908   1.451   9.114  0.2287 -0.3143  0.3682
   7723SM   O1410130   6.811   1.228   9.051  0.1740 -0.2947 -0.3955
   7723SM   O1110131   6.878   1.387   8.864 -0.3870 -0.0567 -0.4118
   7723SM   O1210132   6.688   1.439   9.022 -0.4086  0.1698  0.1905
   7723SM   C1S10133   6.996   1.318   8.838 -0.3599 -0.9371  0.5292
   7723SM   H1S10134   6.998   1.211   8.868  3.0379 -1.2899 -0.4458
   7723SM   H1T10135   7.083   1.370   8.885  0.4446 -0.9446 -0.8660
   7723SM    NF10136   7.142   1.225   8.668  0.5157 -0.1017 -0.4515
   7723SM   HNF10137   7.237   1.257   8.665  0.1736  1.4873  2.4726
   7723SM   C2S10138   7.034   1.321   8.689 -0.4017 -0.2120  0.1515
   7723SM   H2S10139   6.950   1.287   8.625 -1.3549  2.3017 -0.0121
   7723SM   C3S10140   7.054   1.473   8.655 -0.7268  0.4342 -0.6257
   7723SM   H3S10141   7.147   1.510   8.704 -2.1801 -0.0605  2.7728
   7723SM    O310142   6.947   1.558   8.687  0.5803  0.1858  0.0416
   7723SM   HO310143   6.892   1.503   8.743  0.7662  0.3087  0.3508
   7723SM   C4S10144   7.082   1.485   8.505 -0.2297  1.1038  0.1543
   7723SM   H4S10145   7.190   1.477   8.487 -0.3984 -0.8148 -0.1969
   7723SM   C5S10146   7.014   1.509   8.397  0.2278 -0.1826 -0.5747
   7723SM   H5S10147   6.908   1.534   8.408  0.4385 -0.2258  2.2697
   7723SM   C6S10148   7.074   1.525   8.259 -0.1105 -0.2348 -0.2180
   7723SM   H6S10149   7.175   1.480   8.251  1.0168  2.2261 -0.8027
   7723SM   H6T10150   7.078   1.633   8.233  0.1419 -0.0928  0.3865
   7723SM   C7S10151   6.974   1.478   8.155  0.3319  0.2074 -0.2179
   7723SM   H7S10152   6.893   1.554   8.142  1.0038  1.2793  1.5586
   7723SM   H7T10153   6.933   1.379   8.185  0.0098 -0.1341 -1.6980
   7723SM   C8S10154   7.046   1.463   8.017 -0.1414  0.0843  0.3241
   7723SM   H8S10155   7.141   1.405   8.027 -0.1968  0.2535  2.3006
   7723SM   H8T10156   7.080   1.564   7.985 -1.5053 -0.3666 -2.9130
   7723SM   C9S10157   6.952   1.392   7.919 -0.1390 -0.1777  0.3195
   7723SM   H9S10158   6.856   1.441   7.946  0.3415  0.7743  0.3550
   7723SM   H9T10159   6.956   1.282   7.933 -0.0092 -0.1943  0.1562
   7723SM  C10S10160   6.984   1.415   7.765  0.1750 -0.5027 -0.0626
   7723SM  H10S10161   6.923   1.343   7.707 -0.4684  0.5931 -0.8004
   7723SM  H10T10162   7.093   1.406   7.749  0.5672 -1.0342  2.5186
   7723SM  C11S10163   6.941   1.558   7.720 -0.0267 -0.3118  1.0127
   7723SM  H11S10164   7.032   1.620   7.733  1.3460 -1.6258 -1.5660
   7723SM  H11T10165   6.860   1.596   7.785 -2.9923 -1.6484 -1.5979
   7723SM  C12S10166   6.886   1.575   7.574 -0.0083 -0.5926  0.4266
   7723SM  H12S10167   6.869   1.683   7.554 -2.1351 -1.3648 -2.6891
   7723SM  H12T10168   6.795   1.511   7.572  0.7236 -1.6568 -0.4778
   7723SM  C13S10169   6.977   1.524   7.464 -0.2268  0.3458  0.5587
   7723SM  H13S10170   7.018   1.425   7.495 -0.3746  0.7566  2.2031
   7723SM  H13T10171   7.064   1.591   7.449 -1.1253  1.2816 -0.6409
   7723SM  C14S10172   6.915   1.500   7.328 -0.1438  0.6816  0.1310
   7723SM  H14S10173   6.856   1.592   7.309  0.9663  1.0194 -1.9264
   7723SM  H14T10174   6.849   1.411   7.332 -1.3243  1.3816 -2.0586
   7723SM  C15S10175   7.019   1.474   7.222 -0.1361 -0.4249  0.1185
   7723SM  H15S10176   7.091   1.393   7.249  3.2296  1.2174 -3.0116
   7723SM  H15T10177   7.065   1.575   7.217 -0.1447 -0.3434  1.2693
   7723SM  C16S10178   6.957   1.419   7.094 -0.5400  0.5438  0.1554
   7723SM  H16S10179   6.882   1.488   7.050  0.3485  2.0042  0.8696
   7723SM  H16T10180   6.907   1.321   7.113  1.3610 -0.3348  0.9025
   7723SM  C17S10181   7.064   1.397   6.980 -0.7015 -0.8927 -0.7219
   7723SM  H17S10182   7.154   1.348   7.023  1.5153  0.3597 -3.6037
   7723SM  H17T10183   7.115   1.495   6.965 -0.5393 -0.8151  0.2711
   7723SM  C18S10184   7.017   1.338   6.843 -0.2627  0.2960  0.4810
   7723SM  H18S10185   7.094   1.326   6.763 -1.0675  2.4481 -0.6946
   7723SM  H18T10186   6.931   1.393   6.799 -0.7214 -1.7747 -1.4254
   7723SM  H18U10187   6.984   1.233   6.858  2.8419 -1.4351 -3.0950
   7723SM   C1F10188   7.110   1.098   8.669  0.2600  0.7825  0.4118
   7723SM    OF10189   7.000   1.061   8.702 -0.3775 -0.0636 -0.0619
   7723SM   C2F10190   7.214   1.004   8.625  0.1935  0.0610  0.6786
   7723SM   H2F10191   7.162   0.907   8.609 -0.6616  0.7608 -0.9774
   7723SM   H2G10192   7.299   0.999   8.697  1.1359 -0.0979 -0.4122
   7723SM   C3F10193   7.290   1.038   8.494 -0.2215 -0.2076 -0.3311
   7723SM   H3F10194   7.372   0.962   8.488 -0.2186 -0.2359  0.0330
   7723SM   H3G10195   7.335   1.137   8.513  0.7480 -0.6731 -0.1233
   7723SM   C4F10196   7.205   1.037   8.370 -0.0266  0.4120 -0.6397
   7723SM   H4F10197   7.119   1.107   8.374  1.6196  2.5839 -1.4883
   7723SM   H4G10198   7.160   0.938   8.347  1.5276 -0.6459  0.6559
   7723SM   C5F10199   7.285   1.084   8.252  0.0204  0.1080 -0.2399
   7723SM   H5F10200   7.375   1.019   8.245 -1.0540 -1.3932 -0.5247
   7723SM   H5G10201   7.318   1.189   8.268 -0.0861  0.1351 -0.2010
   7723SM   C6F10202   7.201   1.090   8.126 -1.1637  0.2589  0.0355
   7723SM   H6F10203   7.120   1.165   8.127 -1.0857  0.3548 -0.4454
   7723SM   H6G10204   7.155   0.990   8.110 -1.1162 -0.0193  1.5392
   7723SM   C7F10205   7.284   1.128   8.005 -0.3224 -0.3547 -0.7044
   7723SM   H7F10206   7.381   1.073   8.013 -0.7675 -0.9289  1.1724
   7723SM   H7G10207   7.302   1.238   7.997  2.5000 -0.4251  2.3745
   7723SM   C8F10208   7.208   1.095   7.879 -0.6949 -0.2009  0.7710
   7723SM   H8F10209   7.119   1.162   7.882 -0.8762 -0.4633  1.3388
   7723SM   H8G10210   7.177   0.989   7.886  0.6712 -0.6224  0.6062
   7723SM   C9F10211   7.296   1.138   7.757 -0.0297  0.1180 -1.0717
   7723SM   H9F10212   7.385   1.073   7.757 -0.9810 -1.3687  1.8729
   7723SM   H9G10213   7.331   1.242   7.776 -0.5391  0.5552 -2.3674
   7723SM  C10F10214   7.216   1.122   7.630  0.4551  0.0375  0.0298
   7723SM  H10F10215   7.118   1.174   7.627  0.8747  0.8239 -0.3157
   7723SM  H10G10216   7.191   1.016   7.608  2.7351 -0.3976 -0.6556
   7723SM  C11F10217   7.289   1.184   7.502  0.0182  0.5822  0.1339
   7723SM  H11F10218   7.393   1.155   7.527 -0.4673  0.6960  2.5537
   7723SM  H11G10219   7.252   1.289   7.511 -2.7201 -0.4007  1.3488
   7723SM  C12F10220   7.242   1.114   7.378 -0.7521 -0.4596 -0.1375
   7723SM  H12F10221   7.131   1.114   7.381 -0.7753  1.5762  1.2881
   7723SM  H12G10222   7.279   1.010   7.383  1.1680  0.2416  2.7155
   7723SM  C13F10223   7.309   1.157   7.247  1.0937 -0.2762  0.0740
   7723SM  H13F10224   7.418   1.159   7.270  1.0330 -0.3465  0.3750
   7723SM  H13G10225   7.288   1.264   7.223  0.0753 -0.4471  0.1862
   7723SM  C14F10226   7.264   1.077   7.117  0.2402 -0.0267 -0.2037
   7723SM  H14F10227   7.165   1.115   7.084 -0.3348 -0.6844  0.7317
   7723SM  H14G10228   7.254   0.967   7.126  2.0752 -0.1453  0.7249
   7723SM  C15F10229   7.355   1.109   7.000 -0.5099  0.2846  0.4163
   7723SM  H15F10230   7.450   1.067   7.040 -1.3658  0.1190  2.4172
   7723SM  H15G10231   7.362   1.219   6.988 -1.4334  0.2223 -0.9224
   7723SM  C16F10232   7.302   1.046   6.865 -0.1671 -0.4224 -0.4174
   7723SM  H16F10233   7.206   1.094   6.838 -0.3998 -0.3946  0.4230
   7723SM  H16G10234   7.284   0.938   6.882  0.4630 -0.4758 -0.0483
   7723SM  C17F10235   7.398   1.067   6.745 -0.4222  0.2020  0.0255
   7723SM  H17F10236   7.406   1.174   6.716  1.0952  0.1085  0.0598
   7723SM  H17G10237   7.351   1.028   6.652  1.1760 -1.3693 -0.1721
   7723SM  C18F10238   7.531   1.005   6.751  0.3914 -0.2250  0.4429
   7723SM  H18F10239   7.524   0.895   6.765 -0.6803 -0.0667  1.2838
   7723SM  H18G10240   7.593   1.047   6.833  0.6460  0.8166 -0.2707
   7723SM  C19F10241   7.614   1.042   6.628  0.9590 -0.0853  0.0062
   7723SM  H19F10242   7.644   1.149   6.623 -1.6007  0.6465 -1.5828
   7723SM  H19G10243   7.559   1.017   6.534 -0.6013 -0.2498  0.9290
   7723SM  C20F10244   7.741   0.961   6.616  0.4921 -0.6549 -0.1694
   7723SM  H20F10245   7.714   0.854   6.602  0.7068 -0.8214  0.6298
   7723SM  H20G10246   7.781   0.974   6.720 -1.4578  0.3859  0.4944
   7723SM  C21F10247   7.814   0.997   6.489 -0.2223  0.0573 -0.1497
   7723SM  H21F10248   7.820   1.108   6.491 -1.2329  0.1749 -1.7831
   7723SM  H21G10249   7.752   0.961   6.405  0.1871 -1.0877  0.0236
   7723SM  C22F10250   7.957   0.939   6.486  0.0527  0.9402  0.2240
   7723SM  H22F10251   8.008   0.961   6.583  1.3021  1.1650 -0.4640
   7723SM  H22G10252   8.011   0.990   6.404 -0.0161  0.5264 -0.0796
   7723SM  C23F10253   7.955   0.790   6.451 -0.4343  0.3905 -0.3652
   7723SM  H23F10254   7.921   0.730   6.539  2.5284  0.0549  0.6367
   7723SM  H23G10255   8.060   0.755   6.443 -0.1718  0.7206  1.2429
   7723SM  H23H10256   7.897   0.751   6.365  1.9785 -1.3493 -1.3060
   7823SM     N10257   1.331   5.782   9.021 -0.1285 -0.5094  0.1136
   7823SM   C1510258   1.438   5.690   8.983  0.3821  0.1123  0.0012
   7823SM  H15A10259   1.465   5.710   8.880 -2.5464  1.9577 -0.5259
   7823SM  H15B10260   1.394   5.591   8.979 -0.2551  0.3739  0.3859
   7823SM  H15C10261   1.519   5.686   9.054  0.4471 -3.2672 -0.0702
   7823SM   C1410262   1.211   5.758   8.944  0.4610 -0.2112 -0.4510
   7823SM  H14A10263   1.150   5.844   8.969  0.6437 -0.7721  2.2620
   7823SM  H14B10264   1.164   5.667   8.978  0.6457 -0.1676 -0.0651
   7823SM  H14C10265   1.230   5.761   8.838 -1.8830 -0.8978 -0.9354
   7823SM   C1310266   1.307   5.775   9.168  0.6959 -0.4662  0.2981
   7823SM  H13A10267   1.388   5.809   9.230  1.6713 -1.8758 -0.1619
   7823SM  H13B10268   1.276   5.677   9.203 -0.3165 -0.7122 -1.1767
   7823SM  H13C10269   1.226   5.838   9.202  0.1597 -1.1604  0.3218
   7823SM   C1210270   1.377   5.919   8.984  0.6042  0.3444  0.5292
   7823SM  H12A10271   1.464   5.946   9.042  0.9306  2.0303 -0.6649
   7823SM  H12B10272   1.305   5.988   9.024 -0.3480 -0.6158  0.5126
   7823SM   C1110273   1.393   5.961   8.834  0.5124 -0.8532 -0.1281
   7823SM  H11A10274   1.422   6.068   8.841  1.7862 -1.1902  0.0193
   7823SM  H11B10275   1.293   5.955   8.786  0.5227 -0.2137 -0.2444
   7823SM     P10276   1.635   5.937   8.732  0.3305  0.0034  0.4508
   7823SM   O1310277   1.687   6.029   8.835 -0.2754 -0.6464 -0.2190
   7823SM   O1410278   1.722   5.821   8.700  0.0185 -0.5021 -0.1935
   7823SM   O1110279   1.599   6.012   8.598 -0.2955 -0.3659 -0.7103
   7823SM   O1210280   1.494   5.882   8.774  0.0002  0.4953 -0.5688
   7823SM   C1S10281   1.549   5.953   8.478 -0.0014  0.4575 -0.6870
   7823SM   H1S10282   1.438   5.955   8.478 -0.1183 -1.9904 -1.3580
   7823SM   H1T10283   1.565   5.843   8.470 -1.0950 -0.0995  2.7211
   7823SM    NF10284   1.545   5.969   8.239 -0.2971  0.0965  0.1282
   7823SM   HNF10285   1.606   5.903   8.195  1.4786  1.5106  0.3364
   7823SM   C2S10286   1.605   6.029   8.356 -0.5892 -0.7726 -0.0362
   7823SM   H2S10287   1.571   6.135   8.360 -0.2050 -0.6401 -0.2898
   7823SM   C3S10288   1.757   6.025   8.356 -1.0189  0.0997  0.4730
   7823SM   H3S10289   1.800   5.922   8.356 -2.4168 -0.5218  1.0708
   7823SM    O310290   1.805   6.096   8.465 -0.2570 -0.2200 -0.1256
   7823SM   HO310291   1.732   6.086   8.527  0.4653  0.2266  0.8190
   7823SM   C4S10292   1.815   6.092   8.227  0.5505  0.0744  0.0110
   7823SM   H4S10293   1.832   6.200   8.227  1.2060 -0.0047 -1.9352
   7823SM   C5S10294   1.875   6.035   8.123  0.2150 -0.0682 -0.0850
   7823SM   H5S10295   1.877   5.926   8.109  2.2371 -0.0294 -0.3353
   7823SM   C6S10296   1.936   6.111   8.013  0.4286  0.0256  0.6798
   7823SM   H6S10297   2.046   6.095   8.019  0.4843  0.7204  1.8229
   7823SM   H6T10298   1.929   6.221   8.000  1.8508 -0.1160 -1.8056
   7823SM   C7S10299   1.882   6.070   7.876  0.2529 -0.1499  0.2876
   7823SM   H7S10300   1.776   6.095   7.854  1.1437  3.2199 -0.6573
   7823SM   H7T10301   1.892   5.960   7.867  2.1941 -0.1461  1.8136
   7823SM   C8S10302   1.963   6.125   7.760 -0.5531 -0.2414 -0.0158
   7823SM   H8S10303   2.071   6.120   7.786 -0.2593  0.8553 -0.9269
   7823SM   H8T10304   1.939   6.232   7.744 -0.2218 -0.1278  0.2393
   7823SM   C9S10305   1.931   6.064   7.615 -0.4430 -0.2298 -0.1932
   7823SM   H9S10306   1.821   6.050   7.601 -0.2933 -0.9985 -0.6407
   7823SM   H9T10307   1.979   5.964   7.609  1.8894  0.9117 -2.2297
   7823SM  C10S10308   1.988   6.150   7.496  0.0623 -0.7148 -0.2986
   7823SM  H10S10309   2.099   6.157   7.501 -0.0637  0.6743  1.2754
   7823SM  H10T10310   1.939   6.249   7.494 -2.7138 -1.9513  0.9919
   7823SM  C11S10311   1.956   6.088   7.360  0.0085 -0.0749  0.4632
   7823SM  H11S10312   1.847   6.106   7.347  0.1506  1.5339  1.2651
   7823SM  H11T10313   1.959   5.977   7.360 -0.4194 -0.1001  1.7119
   7823SM  C12S10314   2.037   6.159   7.245  0.4045  0.1077  0.3345
   7823SM  H12S10315   2.140   6.117   7.243  0.0689 -0.7923  1.0325
   7823SM  H12T10316   2.046   6.269   7.261 -0.9120  0.1043  1.2756
   7823SM  C13S10317   1.963   6.135   7.105 -0.0588 -0.0688 -0.3037
   7823SM  H13S10318   1.866   6.188   7.116  0.2030  0.0012  2.5998
   7823SM  H13T10319   1.940   6.027   7.097  0.8688 -0.2351 -0.7635
   7823SM  C14S10320   2.028   6.201   6.980 -0.4254 -0.1569  0.0502
   7823SM  H14S10321   2.115   6.134   6.959  1.1206  1.8610 -0.2672
   7823SM  H14T10322   2.053   6.305   7.008 -0.0051 -0.4680  0.8575
   7823SM  C15S10323   1.938   6.206   6.850  0.3327  0.2098 -0.4401
   7823SM  H15S10324   1.984   6.280   6.781  0.3461 -0.6733 -1.3948
   7823SM  H15T10325   1.834   6.239   6.870  0.6307  0.4119  0.8864
   7823SM  C16S10326   1.934   6.069   6.794  0.4229  0.4961 -0.2716
   7823SM  H16S10327   1.896   6.003   6.876  2.0012 -0.1124  0.0001
   7823SM  H16T10328   2.030   6.029   6.755 -0.3119 -0.7623 -0.8459
   7823SM  C17S10329   1.834   6.059   6.672  0.4303 -0.8680 -0.1247
   7823SM  H17S10330   1.871   6.120   6.588 -0.8019  1.4798  0.9369
   7823SM  H17T10331   1.735   6.100   6.701  0.9853  0.4113 -0.0017
   7823SM  C18S10332   1.819   5.917   6.615  0.3344 -0.1421 -0.6003
   7823SM  H18S10333   1.719   5.891   6.574 -0.7558 -0.1973  1.9014
   7823SM  H18T10334   1.837   5.837   6.691 -0.0135 -0.1921 -0.5674
   7823SM  H18U10335   1.892   5.897   6.533  0.2185 -0.3877 -0.6473
   7823SM   C1F10336   1.418   5.976   8.195 -0.0113 -0.3569  0.8428
   7823SM    OF10337   1.335   6.029   8.268  0.0254 -0.0683  0.3314
   7823SM   C2F10338   1.390   5.912   8.061  0.5432 -0.1765 -0.9578
   7823SM   H2F10339   1.295   5.855   8.068  0.6318 -0.2014  0.3005
   7823SM   H2G10340   1.471   5.837   8.048  0.8203 -0.2238  0.7952
   7823SM   C3F10341   1.410   6.015   7.946  0.2912 -0.5974 -0.3673
   7823SM   H3F10342   1.504   6.073   7.954  0.4186 -0.7453 -0.7755
   7823SM   H3G10343   1.326   6.087   7.942  0.7341 -0.1090 -1.2618
   7823SM   C4F10344   1.417   5.943   7.812 -0.2067 -0.6006 -0.5332
   7823SM   H4F10345   1.319   5.903   7.781 -0.2962 -0.2590 -0.6992
   7823SM   H4G10346   1.485   5.855   7.814 -1.8882 -1.9489  1.6756
   7823SM   C5F10347   1.455   6.034   7.697 -0.1287  0.2502 -0.0009
   7823SM   H5F10348   1.552   6.080   7.725 -0.5537  0.0635  1.8516
   7823SM   H5G10349   1.381   6.114   7.675  1.5609  2.1577  0.9202
   7823SM   C6F10350   1.489   5.953   7.572  0.0497  0.1457 -0.2595
   7823SM   H6F10351   1.405   5.883   7.548  0.4318 -1.4814  2.6571
   7823SM   H6G10352   1.578   5.888   7.583  0.7363  0.4115 -3.2378
   7823SM   C7F10353   1.521   6.047   7.457  0.5792  0.1533  0.8085
   7823SM   H7F10354   1.609   6.112   7.476  1.0733 -0.4320  0.5364
   7823SM   H7G10355   1.433   6.105   7.422  0.9795  0.2518 -0.0685
   7823SM   C8F10356   1.557   5.968   7.323 -0.9820 -0.3746  0.1439
   7823SM   H8F10357   1.481   5.890   7.302 -1.5651  0.0622  0.5703
   7823SM   H8G10358   1.658   5.926   7.341 -1.1537 -0.5284  0.7752
   7823SM   C9F10359   1.570   6.051   7.196  0.7731  0.3944 -0.3861
   7823SM   H9F10360   1.631   6.139   7.228 -0.1719  1.1891 -0.7385
   7823SM   H9G10361   1.468   6.082   7.166  0.0226 -1.5307  0.0430
   7823SM  C10F10362   1.638   5.989   7.075 -0.3365 -0.2163  0.4145
   7823SM  H10F10363   1.730   5.932   7.096  0.3731  0.9164  0.4970
   7823SM  H10G10364   1.656   6.068   6.998 -1.1069  1.1414  1.5703
   7823SM  C11F10365   1.542   5.888   7.014 -1.1330 -0.2638 -0.0789
   7823SM  H11F10366   1.440   5.930   7.019  0.1075  2.9546  1.0304
   7823SM  H11G10367   1.544   5.796   7.077  0.2719 -1.1407 -1.3393
   7823SM  C12F10368   1.583   5.844   6.876  0.1282  0.0086 -0.0015
   7823SM  H12F10369   1.676   5.783   6.872  0.5869  0.6465  0.7387
   7823SM  H12G10370   1.607   5.937   6.821  0.0715  0.0956  0.1224
   7823SM  C13F10371   1.475   5.764   6.791 -0.0890  0.3917 -0.1203
   7823SM  H13F10372   1.446   5.812   6.695  0.5955  1.3677  0.1546
   7823SM  H13G10373   1.382   5.769   6.852  1.1077  2.0174  1.6840
   7823SM  C14F10374   1.514   5.611   6.762 -0.8564 -0.2521 -0.0146
   7823SM  H14F10375   1.439   5.537   6.727 -1.2076 -0.7783  1.7228
   7823SM  H14G10376   1.544   5.573   6.862  0.3245  0.1247 -0.2140
   7823SM  C15F10377   1.626   5.608   6.650 -0.3795  0.3142  0.2893
   7823SM  H15F10378   1.714   5.672   6.673 -0.5017  0.8657 -0.7096
   7823SM  H15G10379   1.586   5.658   6.559  1.4236 -1.2487 -1.4453
   7823SM  C16F10380   1.668   5.465   6.613 -0.1604  0.4202 -0.1325
   7823SM  H16F10381   1.576   5.415   6.578 -0.7324  0.4765  1.2151
   7823SM  H16G10382   1.715   5.417   6.703 -0.8363  1.2421  0.6726
   7823SM  C17F10383   1.776   5.470   6.499 -0.9507  0.3025  0.2480
   7823SM  H17F10384   1.850   5.545   6.532  0.3602 -1.1525  0.7599
   7823SM  H17G10385   1.720   5.514   6.413 -0.5726  1.9749  0.8278
   7823SM  C18F10386   1.838   5.334   6.473 -0.3777  0.5681  0.6694
   7823SM  H18F10387   1.760   5.267   6.433  0.2640  0.2692 -0.1204
   7823SM  H18G10388   1.883   5.283   6.561 -0.5913 -0.2562  0.3055
   7823SM  C19F10389   1.933   5.355   6.358  0.1495  0.6711  0.4126
   7823SM  H19F10390   1.998   5.437   6.396 -0.6563  1.0960  0.8998
   7823SM  H19G10391   1.870   5.379   6.270  0.0813 -0.7503  0.0644
   7823SM  C20F10392   2.023   5.233   6.334  0.2176 -0.9668  0.6033
   7823SM  H20F10393   1.962   5.143   6.309 -1.2480  0.0450  0.4159
   7823SM  H20G10394   2.080   5.209   6.426 -1.9029  0.1171  2.2862
   7823SM  C21F10395   2.123   5.265   6.223 -0.5581 -0.2644  0.2778
   7823SM  H21F10396   2.149   5.373   6.227 -1.4181  0.0512 -1.7678
   7823SM  H21G10397   2.080   5.239   6.124 -0.1677 -1.1470  0.3304
   7823SM  C22F10398   2.257   5.187   6.242 -0.0047 -0.3812 -0.4713
   7823SM  H22F10399   2.293   5.202   6.346  0.3805 -0.0157 -0.6536
   7823SM  H22G10400   2.336   5.233   6.178  0.6987 -1.7051 -0.5913
   7823SM  C23F10401   2.254   5.038   6.218 -0.1170  0.0395 -0.1030
   7823SM  H23F10402   2.186   4.986   6.289 -2.0090  0.6530 -1.3865
   7823SM  H23G10403   2.355   4.998   6.242  0.5472  1.5396 -0.2929
   7823SM  H23H10404   2.234   5.018   6.111 -1.5101  1.7278 -0.1919
   7923SM     N10405   6.479   0.175   9.281  0.5518 -0.0556  0.0139
   7923SM   C1510406   6.402   0.264   9.200  0.8146 -0.6488  0.2498
   7923SM  H15A10407   6.421   0.257   9.094  1.4161  0.5137  0.2685
   7923SM  H15B10408   6.433   0.363   9.229  0.5620 -0.7194  0.7705
   7923SM  H15C10409   6.297   0.260   9.226  1.1524 -1.1243  1.6761
   7923SM   C1410410   6.437   0.201   9.423 -0.5710 -0.2365 -0.1105
   7923SM  H14A10411   6.493   0.139   9.492  1.2208 -1.0060 -2.1439
   7923SM  H14B10412   6.330   0.198   9.437 -0.3292  0.7129  2.4768
   7923SM  H14C10413   6.469   0.299   9.453 -3.0925  1.2765 -1.9398
   7923SM   C1310414   6.446   0.029   9.264  0.2922 -0.3339  0.8540
   7923SM  H13A10415   6.484  -0.031   9.346  0.4449 -2.0894 -0.4518
   7923SM  H13B10416   6.484  -0.018   9.175 -2.0110 -1.7359  0.5316
   7923SM  H13C10417   6.341   0.009   9.252 -0.0232  0.8033  1.5273
   7923SM   C1210418   6.629   0.183   9.269  0.3396  0.6105 -0.3255
   7923SM  H12A10419   6.663   0.159   9.169 -0.2727 -1.8663  0.0025
   7923SM  H12B10420   6.670   0.107   9.334 -0.7912 -0.6312 -1.0088
   7923SM   C1110421   6.689   0.317   9.309 -0.5228 -0.0844  0.4055
   7923SM  H11A10422   6.795   0.292   9.335 -0.7280 -0.8827  0.4943
   7923SM  H11B10423   6.638   0.362   9.397 -1.1926 -0.5985  0.2859
   7923SM     P10424   6.778   0.443   9.093 -0.2644  0.1259  0.3749
   7923SM   O1310425   6.762   0.585   9.052  0.5651 -0.3779 -0.4265
   7923SM   O1410426   6.910   0.407   9.145 -0.0778  0.3374 -0.5029
   7923SM   O1110427   6.747   0.336   8.978 -0.5425  0.1208 -0.1654
   7923SM   O1210428   6.667   0.414   9.199  0.5484 -0.1886 -0.3716
   7923SM   C1S10429   6.652   0.379   8.875  0.4405  0.2676 -0.4270
   7923SM   H1S10430   6.701   0.458   8.815  1.2275  0.0239 -0.1157
   7923SM   H1T10431   6.557   0.421   8.915  1.5588  1.2980  1.2782
   7923SM    NF10432   6.520   0.306   8.679 -0.9013 -0.5632  0.8171
   7923SM   HNF10433   6.427   0.271   8.686 -1.2633  0.5225  1.6946
   7923SM   C2S10434   6.611   0.266   8.779  0.7538  0.2324 -1.0605
   7923SM   H2S10435   6.696   0.229   8.718  0.6950  0.6367 -1.3942
   7923SM   C3S10436   6.547   0.153   8.874 -0.3681 -0.0574  0.4516
   7923SM   H3S10437   6.458   0.197   8.924 -0.6968 -0.4706  0.2406
   7923SM    O310438   6.630   0.115   8.977  0.1185  0.0228 -0.4958
   7923SM   HO310439   6.679   0.196   8.988  0.0879 -0.0503  0.2462
   7923SM   C4S10440   6.492   0.033   8.796 -0.9418  0.5868  0.7823
   7923SM   H4S10441   6.390   0.049   8.758 -0.4740  0.5707 -0.5191
   7923SM   C5S10442   6.562  -0.083   8.769 -0.7888 -0.3423  0.3220
   7923SM   H5S10443   6.653  -0.099   8.827 -0.7282  2.0417  0.9740
   7923SM   C6S10444   6.519  -0.183   8.671 -0.0494  0.0121 -0.3068
   7923SM   H6S10445   6.489  -0.278   8.719  0.0539 -0.8861 -1.9349
   7923SM   H6T10446   6.608  -0.201   8.607  1.9474  1.8689  1.8035
   7923SM   C7S10447   6.406  -0.147   8.574 -0.1691  0.8202 -0.2044
   7923SM   H7S10448   6.323  -0.106   8.634 -0.6927 -0.1032 -0.2754
   7923SM   H7T10449   6.380  -0.239   8.518 -0.9825  1.5030 -0.9716
   7923SM   C8S10450   6.450  -0.042   8.477 -0.0367  0.2118  0.0996
   7923SM   H8S10451   6.538  -0.085   8.425  0.0283  3.0883 -2.4199
   7923SM   H8T10452   6.480   0.052   8.528 -0.1731  1.4364 -1.9901
   7923SM   C9S10453   6.343  -0.008   8.376  0.6152 -0.1522 -0.0915
   7923SM   H9S10454   6.390   0.032   8.284 -0.3046  2.1439  0.3430
   7923SM   H9T10455   6.266   0.060   8.419  1.6849  1.2908 -0.3904
   7923SM  C10S10456   6.261  -0.123   8.325  0.6259  0.1948 -0.1474
   7923SM  H10S10457   6.206  -0.173   8.408 -1.4725  1.4065 -0.7587
   7923SM  H10T10458   6.331  -0.194   8.276  1.3323  1.4380 -0.9915
   7923SM  C11S10459   6.162  -0.086   8.225 -0.1102  0.7401 -0.2220
   7923SM  H11S10460   6.091  -0.009   8.262  0.1337 -0.4975  3.2002
   7923SM  H11T10461   6.113  -0.185   8.214  2.1303 -0.3333 -1.1444
   7923SM  C12S10462   6.211  -0.039   8.091 -0.8540  0.4080  0.2686
   7923SM  H12S10463   6.284   0.043   8.106  0.3971 -0.5408 -0.4549
   7923SM  H12T10464   6.126   0.016   8.045 -0.2116  0.6082 -0.6901
   7923SM  C13S10465   6.255  -0.146   7.998  0.3537 -0.3535  0.2050
   7923SM  H13S10466   6.164  -0.209   7.997  0.0924 -0.0361  1.6867
   7923SM  H13T10467   6.337  -0.208   8.041  1.8831  1.7261  0.4715
   7923SM  C14S10468   6.285  -0.076   7.863  0.1076  0.4051 -0.3190
   7923SM  H14S10469   6.393  -0.051   7.857  0.0237  0.7028 -0.5457
   7923SM  H14T10470   6.221   0.014   7.860  0.3629  0.6593  1.1701
   7923SM  C15S10471   6.254  -0.170   7.743  0.7237 -0.2255 -0.0599
   7923SM  H15S10472   6.154  -0.217   7.744  0.8361 -0.4574  0.2404
   7923SM  H15T10473   6.324  -0.255   7.757 -0.0928 -0.6851  1.4600
   7923SM  C16S10474   6.283  -0.098   7.609  0.6317 -0.2943  0.4000
   7923SM  H16S10475   6.388  -0.065   7.620  1.4152 -2.4868 -0.0363
   7923SM  H16T10476   6.218  -0.010   7.590  0.8630 -0.2091 -0.0196
   7923SM  C17S10477   6.277  -0.193   7.486 -0.0272  0.6179  0.5157
   7923SM  H17S10478   6.173  -0.232   7.486 -0.9640  2.7998 -1.5148
   7923SM  H17T10479   6.353  -0.273   7.498 -0.6137  0.1381  1.0585
   7923SM  C18S10480   6.286  -0.109   7.360  0.8800 -0.4920 -0.0911
   7923SM  H18S10481   6.207  -0.032   7.351 -0.0449 -1.5975 -2.0481
   7923SM  H18T10482   6.265  -0.179   7.277 -2.9595 -3.1254  2.7366
   7923SM  H18U10483   6.382  -0.054   7.357  0.1026  0.9116  0.1955
   7923SM   C1F10484   6.548   0.389   8.583  0.1919 -0.4058  0.5199
   7923SM    OF10485   6.639   0.474   8.583 -0.0345 -0.2736 -0.2836
   7923SM   C2F10486   6.452   0.390   8.468 -0.0692  0.4325 -0.2597
   7923SM   H2F10487   6.425   0.497   8.458  0.5244  0.6787  0.6620
   7923SM   H2G10488   6.362   0.326   8.481  1.1825 -1.2317  0.6318
   7923SM   C3F10489   6.523   0.347   8.336 -0.2768 -0.3037 -0.2845
   7923SM   H3F10490   6.586   0.257   8.353 -0.1698 -0.1127  0.3604
   7923SM   H3G10491   6.601   0.423   8.312 -0.9801  0.0078 -1.7051
   7923SM   C4F10492   6.429   0.322   8.217  0.7614  0.1486 -0.3535
   7923SM   H4F10493   6.377   0.417   8.192 -2.2484 -1.0462  0.8887
   7923SM   H4G10494   6.352   0.248   8.248  0.6640  0.1775 -0.5281
   7923SM   C5F10495   6.498   0.277   8.088  0.8997  0.7057  0.2721
   7923SM   H5F10496   6.534   0.173   8.103 -0.5317  0.3024  1.1596
   7923SM   H5G10497   6.584   0.345   8.075  0.1176  1.6744  0.0593
   7923SM   C6F10498   6.422   0.277   7.949  0.3645  0.2779 -0.0792
   7923SM   H6F10499   6.356   0.366   7.941 -1.6682 -1.1123  0.3847
   7923SM   H6G10500   6.346   0.196   7.955 -0.9563  1.4947  0.0297
   7923SM   C7F10501   6.523   0.245   7.835 -0.4684 -0.5906  0.3698
   7923SM   H7F10502   6.561   0.141   7.832 -0.6050 -0.6542  0.7767
   7923SM   H7G10503   6.601   0.323   7.846 -1.0983  0.0302  0.5183
   7923SM   C8F10504   6.445   0.260   7.697  0.4454 -0.1695  0.1379
   7923SM   H8F10505   6.410   0.365   7.684  1.1012 -0.0377 -0.7274
   7923SM   H8G10506   6.360   0.189   7.688 -0.2171  0.5844  0.2781
   7923SM   C9F10507   6.531   0.234   7.576 -0.0728 -0.2428 -0.3736
   7923SM   H9F10508   6.590   0.140   7.586  3.1450  1.6565 -0.2481
   7923SM   H9G10509   6.612   0.308   7.559  0.7037 -1.1008 -0.5322
   7923SM  C10F10510   6.458   0.217   7.447 -0.1822 -0.1571  0.6775
   7923SM  H10F10511   6.383   0.298   7.441 -1.1425 -1.0924 -0.3148
   7923SM  H10G10512   6.407   0.119   7.449  2.3329 -1.5586  1.5125
   7923SM  C11F10513   6.550   0.223   7.323  0.1858  0.7175 -0.2833
   7923SM  H11F10514   6.618   0.135   7.327 -1.8981 -1.0172 -0.9202
   7923SM  H11G10515   6.605   0.319   7.327  0.0995  0.7250  1.2933
   7923SM  C12F10516   6.460   0.214   7.200  0.5819  0.1966 -0.0937
   7923SM  H12F10517   6.397   0.306   7.200  0.9746  0.4722  0.1608
   7923SM  H12G10518   6.403   0.120   7.218  2.6973 -0.9124  1.2030
   7923SM  C13F10519   6.533   0.188   7.067  0.1600  0.1776 -0.0580
   7923SM  H13F10520   6.574   0.086   7.059  2.0387  0.7416  1.5456
   7923SM  H13G10521   6.628   0.246   7.069  0.3212 -0.0805 -0.2207
   7923SM  C14F10522   6.453   0.223   6.943  0.1168 -1.0137  0.0627
   7923SM  H14F10523   6.524   0.199   6.862  0.5573  0.8589 -0.1443
   7923SM  H14G10524   6.433   0.332   6.958 -1.7538 -1.7057  4.0015
   7923SM  C15F10525   6.321   0.144   6.921  0.1264 -1.1129  0.0693
   7923SM  H15F10526   6.246   0.161   7.002  0.6049  3.1367 -0.1545
   7923SM  H15G10527   6.364   0.042   6.922  2.4003 -0.2286 -0.6354
   7923SM  C16F10528   6.255   0.164   6.785 -0.4730  0.0787  0.0935
   7923SM  H16F10529   6.240   0.272   6.766  2.3859  0.1056 -2.9850
   7923SM  H16G10530   6.156   0.113   6.778 -0.1921 -0.2760 -1.9613
   7923SM  C17F10531   6.333   0.121   6.665 -0.6481  0.0041 -0.4205
   7923SM  H17F10532   6.375   0.020   6.683 -0.7410  0.0485  0.0769
   7923SM  H17G10533   6.413   0.196   6.643  0.1370 -0.2241  1.4443
   7923SM  C18F10534   6.234   0.107   6.548  0.0810 -0.1054 -0.4925
   7923SM  H18F10535   6.176   0.200   6.531 -1.1602 -1.1219 -2.0905
   7923SM  H18G10536   6.165   0.023   6.570  3.3876 -2.8405  0.2541
   7923SM  C19F10537   6.304   0.098   6.407 -0.3649 -0.3841  0.6446
   7923SM  H19F10538   6.361   0.002   6.403  0.9732  0.3830 -3.4078
   7923SM  H19G10539   6.384   0.174   6.391 -1.8675  1.2982  0.9231
   7923SM  C20F10540   6.217   0.114   6.278  0.2099 -0.0392  0.2479
   7923SM  H20F10541   6.281   0.155   6.197  1.5151 -2.2742  0.0429
   7923SM  H20G10542   6.139   0.193   6.287  2.1117  1.8881  0.4911
   7923SM  C21F10543   6.163  -0.021   6.231 -0.5656 -0.6480 -0.6299
   7923SM  H21F10544   6.081  -0.051   6.300  0.5286 -1.6124  0.3047
   7923SM  H21G10545   6.236  -0.104   6.219  0.6865  0.1343  1.0286
   7923SM  C22F10546   6.088  -0.014   6.098  0.6619 -0.1248 -0.3019
   7923SM  H22F10547   6.166   0.007   6.022  1.2421  0.9246  0.5388
   7923SM  H22G10548   6.010   0.063   6.114 -1.7086 -2.4419  0.0672
   7923SM  C23F10549   6.008  -0.143   6.063 -0.2379 -0.5586  0.1719
   7923SM  H23F10550   5.950  -0.137   5.968 -0.3283 -1.6857  0.1357
   7923SM  H23G10551   5.938  -0.172   6.144 -2.0748  1.9876 -0.3786
   7923SM  H23H10552   6.078  -0.227   6.044 -1.9360 -2.2186  0.8930
   8023SM     N10553   0.831   6.283   9.097 -0.2401  0.3782 -0.4995
   8023SM   C1510554   0.907   6.333   8.979  0.3579 -0.5522 -0.4015
   8023SM  H15A10555   0.961   6.422   9.007  0.4678 -1.0126  0.9066
   8023SM  H15B10556   0.836   6.373   8.908  0.2167  1.5827  0.8652
   8023SM  H15C10557   0.973   6.266   8.924  1.9393  1.2036 -0.7570
   8023SM   C1410558   0.922   6.244   9.215 -0.3775  0.2192 -0.0189
   8023SM  H14A10559   0.990   6.163   9.193 -1.2829 -1.3498  2.5457
   8023SM  H14B10560   0.864   6.211   9.300  0.9814 -0.5577  0.6423
   8023SM  H14C10561   0.982   6.327   9.250 -0.0888 -0.2229  0.5520
   8023SM   C1310562   0.739   6.387   9.146 -0.6338 -0.0651  0.3168
   8023SM  H13A10563   0.673   6.430   9.072 -1.3679 -0.4544  0.7318
   8023SM  H13B10564   0.804   6.462   9.188  0.1968 -0.8799  0.5243
   8023SM  H13C10565   0.674   6.348   9.222 -0.4308 -0.9439  0.0519
   8023SM   C1210566   0.742   6.163   9.051  0.5685 -0.5854 -0.3219
   8023SM  H12A10567   0.691   6.193   8.961  0.2191  1.5671  0.5161
   8023SM  H12B10568   0.673   6.150   9.133  5.3413  0.1320  4.3779
   8023SM   C1110569   0.815   6.028   9.035  0.1923  0.0074  0.5242
   8023SM  H11A10570   0.743   5.954   8.994  1.8344 -0.7209 -1.2183
   8023SM  H11B10571   0.850   5.996   9.135  0.7069 -0.2684  0.2634
   8023SM     P10572   0.934   5.940   8.816 -0.0947 -0.0370  0.0180
   8023SM   O1310573   1.055   5.971   8.738 -0.2117  0.2852 -0.0888
   8023SM   O1410574   0.923   5.798   8.857 -0.8746  0.2042  0.1683
   8023SM   O1110575   0.803   5.989   8.734  0.1091 -0.0744 -0.3935
   8023SM   O1210576   0.927   6.034   8.943 -0.2112  0.1377  0.2931
   8023SM   C1S10577   0.785   6.117   8.684  0.0421  0.2012  0.3180
   8023SM   H1S10578   0.849   6.186   8.744  1.5288 -1.2879  0.5070
   8023SM   H1T10579   0.675   6.135   8.692  0.1815  0.7972  1.0160
   8023SM    NF10580   0.802   6.268   8.494 -0.2645 -0.1560 -0.5427
   8023SM   HNF10581   0.737   6.276   8.419  0.1256  0.4058 -0.8293
   8023SM   C2S10582   0.831   6.136   8.543 -0.3000  0.1991  0.3347
   8023SM   H2S10583   0.942   6.126   8.532 -0.2400  0.2414  0.8954
   8023SM   C3S10584   0.778   6.016   8.448 -0.0384 -0.2052 -0.0491
   8023SM   H3S10585   0.667   6.016   8.446 -0.1264 -3.1825 -0.7312
   8023SM    O310586   0.821   5.884   8.481  0.4542 -0.0858 -0.7718
   8023SM   HO310587   0.846   5.882   8.574  1.7189 -0.5500 -1.0882
   8023SM   C4S10588   0.821   6.048   8.309 -0.8149  0.8822  0.9540
   8023SM   H4S10589   0.735   6.071   8.243  0.2186 -0.7900 -1.1205
   8023SM   C5S10590   0.943   6.053   8.258  0.8432 -0.5435  0.0280
   8023SM   H5S10591   1.032   6.039   8.322  0.4513  1.2758  1.0551
   8023SM   C6S10592   0.988   6.086   8.118  0.5560 -1.2361 -0.2448
   8023SM   H6S10593   1.059   6.008   8.083  1.8369  0.3089 -1.2614
   8023SM   H6T10594   1.057   6.173   8.127 -0.5265 -0.0802 -2.3263
   8023SM   C7S10595   0.879   6.107   8.015  0.0568 -0.3006  0.4520
   8023SM   H7S10596   0.814   6.194   8.038  1.0994  1.3400 -2.2905
   8023SM   H7T10597   0.824   6.011   8.000  0.2969 -0.2875 -0.6331
   8023SM   C8S10598   0.945   6.125   7.872  0.3215 -0.7898  0.2362
   8023SM   H8S10599   1.029   6.053   7.861  1.5751  0.6741 -0.1679
   8023SM   H8T10600   0.982   6.230   7.873 -3.3149  0.6427 -0.4917
   8023SM   C9S10601   0.850   6.113   7.753  0.5523  0.2072  0.2220
   8023SM   H9S10602   0.787   6.203   7.733  1.8531  1.3202  1.0142
   8023SM   H9T10603   0.787   6.023   7.770  0.9140 -0.1726 -0.4160
   8023SM  C10S10604   0.914   6.078   7.622  0.4619  0.3705 -0.3293
   8023SM  H10S10605   0.849   6.086   7.532  1.8893 -0.3738 -1.4618
   8023SM  H10T10606   0.941   5.971   7.610 -2.1267 -0.3347 -0.5409
   8023SM  C11S10607   1.043   6.159   7.597  0.0015  0.2437 -0.4482
   8023SM  H11S10608   1.124   6.097   7.641 -0.6394 -0.0855  0.3013
   8023SM  H11T10609   1.037   6.256   7.651  1.4585  1.1389 -1.8062
   8023SM  C12S10610   1.064   6.177   7.441  0.0539  0.3383 -0.1562
   8023SM  H12S10611   1.152   6.245   7.434  1.3338 -1.3928 -1.7241
   8023SM  H12T10612   0.976   6.237   7.408 -0.5783 -0.6608 -0.3185
   8023SM  C13S10613   1.095   6.046   7.365 -0.5840  0.3980 -0.0667
   8023SM  H13S10614   1.004   5.992   7.332 -0.7066 -0.1126  1.0562
   8023SM  H13T10615   1.163   5.982   7.424  1.2282  1.0376 -1.3594
   8023SM  C14S10616   1.187   6.081   7.252 -0.0278  0.2698 -0.6672
   8023SM  H14S10617   1.217   5.990   7.195  1.4520 -1.2050  2.2751
   8023SM  H14T10618   1.285   6.117   7.288 -0.6774  0.7442  0.7109
   8023SM  C15S10619   1.110   6.181   7.164 -0.6190 -0.1323 -0.0178
   8023SM  H15S10620   1.087   6.276   7.217 -1.0851  0.0195 -0.4786
   8023SM  H15T10621   1.012   6.140   7.134 -0.4815 -0.3409 -0.1832
   8023SM  C16S10622   1.198   6.220   7.044  0.7162 -0.7211  0.0462
   8023SM  H16S10623   1.303   6.242   7.073  0.3184  0.5738  0.6077
   8023SM  H16T10624   1.174   6.321   7.003 -0.0363 -1.3311 -1.0904
   8023SM  C17S10625   1.200   6.126   6.924  0.2946  0.2670  0.7696
   8023SM  H17S10626   1.106   6.126   6.865  1.1985  2.7314 -0.8226
   8023SM  H17T10627   1.209   6.027   6.973  0.0315  0.3827  1.0553
   8023SM  C18S10628   1.324   6.150   6.834 -0.2234 -0.4650 -0.6398
   8023SM  H18S10629   1.415   6.151   6.899 -1.5670 -2.8459  1.4647
   8023SM  H18T10630   1.324   6.242   6.772  2.3460 -0.5507 -0.8807
   8023SM  H18U10631   1.336   6.063   6.766 -0.1897  0.4045 -1.7618
   8023SM   C1F10632   0.854   6.385   8.543  0.2430 -0.1974  0.0816
   8023SM    OF10633   0.920   6.397   8.646 -0.0849  0.4174 -0.1462
   8023SM   C2F10634   0.824   6.510   8.462 -0.2365  0.5868  0.7670
   8023SM   H2F10635   0.862   6.599   8.517  1.1482  0.1193  0.6089
   8023SM   H2G10636   0.715   6.525   8.449 -0.0378  3.5715  1.6792
   8023SM   C3F10637   0.890   6.497   8.319 -0.5770 -0.7181 -0.0920
   8023SM   H3F10638   0.866   6.407   8.258  2.0336 -1.5171 -0.0792
   8023SM   H3G10639   0.999   6.491   8.339 -0.5994 -1.2920 -0.1114
   8023SM   C4F10640   0.857   6.617   8.224  0.5533 -0.7414 -0.2739
   8023SM   H4F10641   0.887   6.710   8.278 -0.0804 -1.2824  1.0731
   8023SM   H4G10642   0.746   6.615   8.220  0.6001 -2.3409 -2.4506
   8023SM   C5F10643   0.933   6.606   8.091  0.6004  0.1964 -0.1320
   8023SM   H5F10644   0.932   6.498   8.063  5.3567 -0.1934  0.3899
   8023SM   H5G10645   1.037   6.644   8.103  0.6938  0.6671 -2.0259
   8023SM   C6F10646   0.884   6.669   7.958 -0.2988  0.0659 -0.3237
   8023SM   H6F10647   0.917   6.775   7.954 -1.7675  0.6172  1.2774
   8023SM   H6G10648   0.773   6.675   7.960 -0.2252  3.9393  2.0079
   8023SM   C7F10649   0.944   6.603   7.837  0.5472 -0.0029 -0.1264
   8023SM   H7F10650   0.914   6.496   7.840 -1.0083  0.4152  0.1527
   8023SM   H7G10651   1.055   6.606   7.828  0.4507  0.1981 -1.6402
   8023SM   C8F10652   0.890   6.664   7.706  0.1734  1.0843  0.4313
   8023SM   H8F10653   0.911   6.773   7.718  2.2926  0.8960 -1.0252
   8023SM   H8G10654   0.780   6.657   7.696  0.2414  1.4566 -0.7406
   8023SM   C9F10655   0.961   6.604   7.585 -0.7098  0.4401  0.0748
   8023SM   H9F10656   0.940   6.498   7.608 -0.5320  0.2045 -0.8159
   8023SM   H9G10657   1.071   6.619   7.594 -0.5712 -1.0129  1.2023
   8023SM  C10F10658   0.916   6.647   7.451 -0.0912 -0.1974  0.5744
   8023SM  H10F10659   0.942   6.755   7.445 -2.3266  0.4399  1.3105
   8023SM  H10G10660   0.806   6.640   7.442 -0.0001 -2.2929  0.7254
   8023SM  C11F10661   0.970   6.569   7.332  1.0530 -0.0839  0.8690
   8023SM  H11F10662   0.932   6.465   7.337  0.9295 -0.0686  0.3058
   8023SM  H11G10663   1.081   6.567   7.335  1.2145  0.8022 -1.8105
   8023SM  C12F10664   0.927   6.632   7.198  0.5244  0.2723  0.1014
   8023SM  H12F10665   0.938   6.742   7.206  0.3693  0.1813  2.0190
   8023SM  H12G10666   0.827   6.595   7.168 -0.2024  3.2411 -1.5577
   8023SM  C13F10667   1.022   6.594   7.080  0.0869 -0.5157  0.0287
   8023SM  H13F10668   1.040   6.485   7.094  0.2746 -0.4695  0.1553
   8023SM  H13G10669   1.120   6.647   7.076  0.1108 -0.6300 -2.6466
   8023SM  C14F10670   0.960   6.604   6.938  0.0564 -0.2868  0.8171
   8023SM  H14F10671   0.950   6.711   6.910  1.1437  0.6322  3.6209
   8023SM  H14G10672   0.860   6.558   6.926  0.0926  0.3109 -3.6486
   8023SM  C15F10673   1.051   6.524   6.835  0.5220 -0.0654 -0.2576
   8023SM  H15F10674   1.067   6.422   6.876  0.2837 -0.6816 -1.6325
   8023SM  H15G10675   1.145   6.583   6.838 -0.7940  2.1585 -0.4981
   8023SM  C16F10676   0.985   6.533   6.698  0.2537 -0.2924  0.2364
   8023SM  H16F10677   0.944   6.633   6.675 -0.9169 -0.8276 -0.1220
   8023SM  H16G10678   0.906   6.455   6.683  0.1670 -0.0700 -0.5109
   8023SM  C17F10679   1.100   6.513   6.597 -0.3088  0.2107 -0.8888
   8023SM  H17F10680   1.094   6.414   6.547  0.3881 -0.0390 -0.4972
   8023SM  H17G10681   1.200   6.523   6.645 -1.3560 -2.3934  2.2310
   8023SM  C18F10682   1.085   6.612   6.478  0.4131  0.4532 -0.5692
   8023SM  H18F10683   1.126   6.709   6.512  0.4775  0.4459 -0.6260
   8023SM  H18G10684   0.984   6.632   6.438 -0.2688  0.1453  0.9454
   8023SM  C19F10685   1.170   6.559   6.356  0.6284  0.4965  0.2857
   8023SM  H19F10686   1.114   6.469   6.324 -1.0854  1.5275  0.2653
   8023SM  H19G10687   1.271   6.522   6.385 -0.0578  0.3527  2.7216
   8023SM  C20F10688   1.181   6.649   6.234 -0.1531 -0.1324  0.4000
   8023SM  H20F10689   1.178   6.759   6.251  1.7601  0.2193 -1.1221
   8023SM  H20G10690   1.096   6.619   6.168 -0.3134 -1.9733  1.3764
   8023SM  C21F10691   1.307   6.630   6.145  0.2699 -0.1614 -0.4659
   8023SM  H21F10692   1.296   6.536   6.087 -1.4665 -0.4540  0.2816
   8023SM  H21G10693   1.391   6.618   6.217  0.5021 -0.1423 -0.7313
   8023SM  C22F10694   1.347   6.752   6.059  0.2263  0.9659 -0.9962
   8023SM  H22F10695   1.388   6.837   6.117  0.0689  0.0905  0.4376
   8023SM  H22G10696   1.251   6.778   6.008 -0.2810  0.2710 -0.4018
   8023SM  C23F10697   1.452   6.715   5.956  0.0443 -0.6646  0.2348
   8023SM  H23F10698   1.547   6.703   6.013 -0.2053  1.2431  1.1186
   8023SM  H23G10699   1.449   6.791   5.876 -0.5427 -0.7174  0.2055
   8023SM  H23H10700   1.415   6.624   5.904 -0.6558 -0.3844  0.2348
   8123SM     N10701   2.592   3.481   3.588 -0.3475 -0.3473 -0.3542
   8123SM   C1510702   2.687   3.367   3.548 -0.2063  0.0417  0.7071
   8123SM  H15A10703   2.681   3.340   3.443 -0.2761  0.9158  0.4737
   8123SM  H15B10704   2.661   3.278   3.603 -0.1140  0.0753  0.8050
   8123SM  H15C10705   2.790   3.392   3.568 -0.0700 -0.4108  0.5798
   8123SM   C1410706   2.633   3.607   3.518 -0.1105 -0.3166  0.0292
   8123SM  H14A10707   2.612   3.603   3.412 -0.6295 -3.1252  0.1660
   8123SM  H14B10708   2.740   3.624   3.525 -0.3315  3.7161 -2.6913
   8123SM  H14C10709   2.587   3.694   3.562  1.6821  0.3160  0.7742
   8123SM   C1310710   2.448   3.450   3.550  0.4717  0.1543 -0.1376
   8123SM  H13A10711   2.406   3.367   3.603 -0.3011 -0.6438 -1.9033
   8123SM  H13B10712   2.439   3.430   3.444  0.7329  2.2306 -0.6018
   8123SM  H13C10713   2.373   3.522   3.577  1.1366  0.4717  0.9187
   8123SM   C1210714   2.607   3.511   3.740 -0.5118  0.8249 -0.4267
   8123SM  H12A10715   2.545   3.599   3.754 -1.1320  0.3629 -0.1854
   8123SM  H12B10716   2.711   3.529   3.763  0.1400 -0.6655 -2.0302
   8123SM   C1110717   2.562   3.405   3.840  0.4648  0.1189  0.6588
   8123SM  H11A10718   2.466   3.367   3.799  1.7454 -0.9998 -1.5201
   8123SM  H11B10719   2.554   3.455   3.939  0.4820  2.9712 -0.6932
   8123SM     P10720   2.789   3.306   3.925  0.0435 -0.2590 -0.6744
   8123SM   O1310721   2.875   3.192   3.887 -0.4218 -0.8127  0.4841
   8123SM   O1410722   2.853   3.439   3.906 -0.2435  0.4726 -0.0408
   8123SM   O1110723   2.750   3.288   4.075 -0.4460  0.1357 -0.4688
   8123SM   O1210724   2.648   3.294   3.840  0.3488  0.9350 -0.3756
   8123SM   C1S10725   2.668   3.183   4.122  0.6282  0.1240  0.0155
   8123SM   H1S10726   2.670   3.099   4.049  3.7808  0.1998 -0.1108
   8123SM   H1T10727   2.565   3.215   4.149  0.5031 -0.5055  0.3215
   8123SM    NF10728   2.641   3.015   4.311  0.7081 -0.5696  0.0491
   8123SM   HNF10729   2.572   3.047   4.375  1.8619  0.6069  0.7606
   8123SM   C2S10730   2.731   3.117   4.252 -0.4904 -0.3147  0.4178
   8123SM   H2S10731   2.823   3.070   4.212 -2.1428 -2.0611 -1.6176
   8123SM   C3S10732   2.779   3.223   4.356 -0.2136 -0.3859 -0.3484
   8123SM   H3S10733   2.692   3.286   4.382 -0.9213 -2.2033  2.1060
   8123SM    O310734   2.886   3.306   4.313  0.5326 -0.0099 -0.6612
   8123SM   HO310735   2.877   3.291   4.218  1.7698 -2.8714 -0.4425
   8123SM   C4S10736   2.837   3.159   4.484 -0.4217  0.5557  0.5739
   8123SM   H4S10737   2.913   3.081   4.470  1.2116  1.9328  1.3381
   8123SM   C5S10738   2.784   3.177   4.606  0.5137 -0.1730 -0.6814
   8123SM   H5S10739   2.697   3.239   4.633  0.7699  0.0808 -0.4317
   8123SM   C6S10740   2.825   3.089   4.723  0.2819  0.0241 -0.3108
   8123SM   H6S10741   2.900   3.142   4.785 -1.4395  2.9134 -0.5312
   8123SM   H6T10742   2.875   2.994   4.694 -0.2358 -0.6846  0.9843
   8123SM   C7S10743   2.713   3.057   4.820  0.7035  0.8719  0.1874
   8123SM   H7S10744   2.638   2.990   4.771  1.0475  1.0285 -0.5625
   8123SM   H7T10745   2.656   3.150   4.841 -0.8625 -0.2636  1.2389
   8123SM   C8S10746   2.751   2.997   4.955 -0.8683  0.4548  0.1243
   8123SM   H8S10747   2.824   3.065   5.004  1.3714 -1.3488 -0.5226
   8123SM   H8T10748   2.799   2.897   4.943  1.5189  1.5970 -0.6618
   8123SM   C9S10749   2.636   2.993   5.055 -0.4228  0.5799 -0.7944
   8123SM   H9S10750   2.570   2.904   5.040  0.8914 -0.6752  0.4680
   8123SM   H9T10751   2.570   3.081   5.044  1.2485  1.7129 -2.2057
   8123SM  C10S10752   2.691   2.959   5.197  0.0951 -0.1781  0.0994
   8123SM  H10S10753   2.800   2.981   5.198  0.1960 -0.4472 -1.5088
   8123SM  H10T10754   2.693   2.852   5.227  2.4650  0.3414  2.1359
   8123SM  C11S10755   2.619   3.050   5.300  0.1981 -0.0719  0.6189
   8123SM  H11S10756   2.517   3.006   5.288  0.6113 -0.8632 -0.1639
   8123SM  H11T10757   2.620   3.152   5.258 -0.9567 -1.4402 -3.1119
   8123SM  C12S10758   2.675   3.040   5.444 -0.1478 -0.0080 -0.3349
   8123SM  H12S10759   2.600   3.091   5.509  2.7582  1.1890  2.3488
   8123SM  H12T10760   2.775   3.088   5.449  0.2254 -0.8629  0.7379
   8123SM  C13S10761   2.681   2.892   5.506 -0.3762  0.4190 -0.4034
   8123SM  H13S10762   2.771   2.851   5.455  0.2541  1.8829 -0.5052
   8123SM  H13T10763   2.605   2.812   5.490 -0.1016 -0.1689  1.0420
   8123SM  C14S10764   2.726   2.897   5.650  0.3360  0.0327  0.6998
   8123SM  H14S10765   2.775   2.991   5.680 -0.1105 -0.4914  3.3315
   8123SM  H14T10766   2.802   2.818   5.666  0.8549  0.3475 -0.1485
   8123SM  C15S10767   2.607   2.867   5.751  0.0341 -0.2348  0.4225
   8123SM  H15S10768   2.567   2.768   5.718 -0.5439 -0.2401  1.1106
   8123SM  H15T10769   2.533   2.949   5.749  0.4319  0.1974  2.1638
   8123SM  C16S10770   2.663   2.856   5.897  0.1056  0.3835 -0.5309
   8123SM  H16S10771   2.725   2.944   5.925  2.5504 -1.2645 -0.4243
   8123SM  H16T10772   2.736   2.774   5.886  0.5854  0.7486 -0.1311
   8123SM  C17S10773   2.555   2.822   6.003 -0.1958 -0.7085 -0.5105
   8123SM  H17S10774   2.607   2.780   6.092  0.0540 -0.7494 -0.6744
   8123SM  H17T10775   2.486   2.750   5.954 -1.0237  1.1140 -2.1894
   8123SM  C18S10776   2.471   2.952   6.043  0.1767  0.2960  0.0525
   8123SM  H18S10777   2.410   2.923   6.131  0.3297  2.4519  0.9124
   8123SM  H18T10778   2.405   2.981   5.958 -2.4884 -0.2135  1.8282
   8123SM  H18U10779   2.541   3.036   6.062  0.3065  0.3714 -0.7326
   8123SM   C1F10780   2.616   2.899   4.258 -0.0054  0.2402 -0.6829
   8123SM    OF10781   2.666   2.869   4.150 -0.4734 -0.1419 -0.3458
   8123SM   C2F10782   2.512   2.805   4.322 -0.9138  0.5632 -0.0489
   8123SM   H2F10783   2.463   2.752   4.238 -0.4805 -2.6312  1.5554
   8123SM   H2G10784   2.433   2.851   4.385  0.4865 -1.5174  3.5462
   8123SM   C3F10785   2.582   2.680   4.392 -0.1302  0.5120 -0.2827
   8123SM   H3F10786   2.653   2.725   4.466  0.4737  0.6915 -0.9507
   8123SM   H3G10787   2.643   2.611   4.330 -1.3819  0.1475 -1.1209
   8123SM   C4F10788   2.468   2.608   4.475  0.0620  0.1093  0.1383
   8123SM   H4F10789   2.395   2.566   4.403 -1.5244  1.1339  1.0454
   8123SM   H4G10790   2.408   2.683   4.533  0.9532  2.3237 -1.6433
   8123SM   C5F10791   2.520   2.502   4.567 -0.2766  0.5529  0.1877
   8123SM   H5F10792   2.577   2.440   4.494  0.0914 -1.3817  2.0100
   8123SM   H5G10793   2.441   2.432   4.603  1.0655 -1.0846  0.1056
   8123SM   C6F10794   2.594   2.549   4.690 -0.7153  0.5793 -0.1529
   8123SM   H6F10795   2.661   2.636   4.671  1.3080 -1.1857 -1.6066
   8123SM   H6G10796   2.652   2.470   4.743 -1.4064  1.1820  1.5667
   8123SM   C7F10797   2.488   2.594   4.788  0.2376  0.2522 -0.5851
   8123SM   H7F10798   2.427   2.501   4.798 -1.5935  1.3067 -1.3947
   8123SM   H7G10799   2.418   2.675   4.759  0.5814  0.6065 -0.4212
   8123SM   C8F10800   2.529   2.625   4.939  0.3458 -0.6384  0.7339
   8123SM   H8F10801   2.591   2.717   4.931  0.3957 -0.7423 -0.2165
   8123SM   H8G10802   2.603   2.548   4.968  1.6465 -0.1324 -1.0497
   8123SM   C9F10803   2.411   2.640   5.033  0.3334 -0.5653 -1.0169
   8123SM   H9F10804   2.360   2.541   5.019 -0.3571 -0.6299  1.5525
   8123SM   H9G10805   2.336   2.717   5.004 -0.9172 -1.3233  0.0794
   8123SM  C10F10806   2.458   2.648   5.182  0.5247 -0.3649  0.7333
   8123SM  H10F10807   2.496   2.752   5.195  1.6027 -0.9429  2.6925
   8123SM  H10G10808   2.539   2.575   5.204  1.9903  0.6263 -1.1306
   8123SM  C11F10809   2.340   2.632   5.279 -0.3803 -0.9849 -0.3375
   8123SM  H11F10810   2.303   2.528   5.289 -1.3076 -0.6938 -0.6749
   8123SM  H11G10811   2.258   2.689   5.231  0.5946 -0.2757 -1.2217
   8123SM  C12F10812   2.370   2.693   5.424  0.5461 -0.2023  0.4133
   8123SM  H12F10813   2.400   2.801   5.419  0.4617 -0.2131 -0.8723
   8123SM  H12G10814   2.450   2.631   5.470 -0.3319  0.0641  2.3602
   8123SM  C13F10815   2.247   2.687   5.507  0.5951 -0.0443 -0.2503
   8123SM  H13F10816   2.211   2.582   5.512  2.5180 -0.7723 -0.9788
   8123SM  H13G10817   2.170   2.745   5.452 -0.3993  0.2510  1.3576
   8123SM  C14F10818   2.286   2.739   5.651  0.6777  0.6138 -0.2504
   8123SM  H14F10819   2.355   2.824   5.635  2.1585 -0.3212  0.8143
   8123SM  H14G10820   2.338   2.662   5.712  0.4399 -0.4091 -1.3116
   8123SM  C15F10821   2.157   2.766   5.720 -0.6607  0.0510 -0.3829
   8123SM  H15F10822   2.106   2.674   5.755 -0.3510 -0.1187 -0.3716
   8123SM  H15G10823   2.085   2.825   5.659 -0.9471 -0.0067 -0.1032
   8123SM  C16F10824   2.174   2.860   5.845 -0.4364  0.2088 -0.0775
   8123SM  H16F10825   2.220   2.955   5.812 -0.4409  0.1594 -0.2269
   8123SM  H16G10826   2.250   2.806   5.906 -0.8276 -1.2274 -0.8023
   8123SM  C17F10827   2.050   2.903   5.925 -0.0273  0.0553 -0.3605
   8123SM  H17F10828   1.957   2.933   5.873 -0.2128  2.2757  1.1295
   8123SM  H17G10829   2.073   2.993   5.987 -1.8886 -0.0971  0.6174
   8123SM  C18F10830   2.009   2.800   6.034  0.3337 -0.2226 -0.4688
   8123SM  H18F10831   2.094   2.785   6.104 -0.3294 -1.1155  0.1753
   8123SM  H18G10832   1.992   2.699   5.991 -2.1633 -0.1065  0.0430
   8123SM  C19F10833   1.886   2.849   6.113 -0.5126  0.4820  0.1794
   8123SM  H19F10834   1.794   2.864   6.052  0.4119  0.7433 -1.1857
   8123SM  H19G10835   1.913   2.952   6.146 -1.6517  0.0199  2.8497
   8123SM  C20F10836   1.862   2.761   6.241 -0.3092  0.3960 -0.0554
   8123SM  H20F10837   1.795   2.830   6.297 -3.3190 -0.8731 -1.8882
   8123SM  H20G10838   1.962   2.759   6.291 -0.1599  0.2611 -0.3570
   8123SM  C21F10839   1.795   2.632   6.219 -0.1227 -0.0548  0.3818
   8123SM  H21F10840   1.812   2.574   6.125 -1.1841  0.3630 -0.0972
   8123SM  H21G10841   1.687   2.657   6.204  0.2470  2.1708  1.1108
   8123SM  C22F10842   1.798   2.540   6.337 -0.4339  0.3749  0.5155
   8123SM  H22F10843   1.883   2.468   6.344 -2.2180 -1.9822 -0.4450
   8123SM  H22G10844   1.711   2.473   6.319 -0.2500  0.5947 -1.3669
   8123SM  C23F10845   1.774   2.617   6.468 -0.4578 -0.2401 -0.3203
   8123SM  H23F10846   1.832   2.710   6.481 -1.3690  0.0931  1.9230
   8123SM  H23G10847   1.791   2.552   6.557  1.6066  1.9584  0.9988
   8123SM  H23H10848   1.670   2.654   6.478 -0.7251 -0.6093 -1.5620
   8223SM     N10849   3.530   3.151   3.638 -0.5888 -0.4065 -0.6481
   8223SM   C1510850   3.385   3.133   3.618 -0.1252 -0.8854 -0.2401
   8223SM  H15A10851   3.370   3.038   3.569 -0.2304 -1.2559  0.5001
   8223SM  H15B10852   3.352   3.215   3.555  1.4863 -0.0944 -0.1180
   8223SM  H15C10853   3.333   3.145   3.712  0.6396 -2.1624  0.3612
   8223SM   C1410854   3.573   3.062   3.745  1.0529 -0.5144 -0.0287
   8223SM  H14A10855   3.521   3.082   3.837  1.4495  2.1161 -0.3024
   8223SM  H14B10856   3.678   3.066   3.770  0.5826 -1.0812  2.2067
   8223SM  H14C10857   3.554   2.958   3.723  1.1003 -0.2330 -1.5332
   8223SM   C1310858   3.605   3.128   3.511  0.1856 -0.4527 -0.2127
   8223SM  H13A10859   3.601   3.210   3.441  0.3319 -1.1575 -1.0629
   8223SM  H13B10860   3.558   3.049   3.455 -1.9165  1.0453 -0.6929
   8223SM  H13C10861   3.708   3.101   3.529  0.5492  1.4632  0.8342
   8223SM   C1210862   3.562   3.294   3.683  0.3440  0.3243  0.4158
   8223SM  H12A10863   3.521   3.360   3.609 -2.1868 -2.9948 -1.4503
   8223SM  H12B10864   3.668   3.308   3.694  0.5518 -0.3514 -0.6373
   8223SM   C1110865   3.500   3.336   3.820  0.2708  0.1889 -0.1522
   8223SM  H11A10866   3.539   3.437   3.848 -1.7767  0.6143  1.3685
   8223SM  H11B10867   3.534   3.265   3.898 -0.1138 -1.6108 -1.5599
   8223SM     P10868   3.282   3.456   3.757 -0.3355 -0.2077  0.4738
   8223SM   O1310869   3.367   3.551   3.674  0.0306 -0.1228 -0.3698
   8223SM   O1410870   3.165   3.403   3.682  0.3460  0.5215 -0.2164
   8223SM   O1110871   3.219   3.530   3.886  0.8646 -1.0873  0.4334
   8223SM   O1210872   3.358   3.330   3.814  0.5612 -0.1596 -0.1284
   8223SM   C1S10873   3.183   3.452   4.001  0.2385 -0.4184 -0.6133
   8223SM   H1S10874   3.167   3.345   3.976  1.5695 -0.8939  0.4493
   8223SM   H1T10875   3.083   3.486   4.037 -0.1651 -1.0355 -1.1283
   8223SM    NF10876   3.257   3.394   4.238 -1.0734 -0.1873  0.0246
   8223SM   HNF10877   3.252   3.447   4.322 -1.7945 -1.1561  0.6191
   8223SM   C2S10878   3.287   3.469   4.110 -0.0136  0.5712 -1.3288
   8223SM   H2S10879   3.379   3.418   4.074 -0.5267 -1.4843  0.0993
   8223SM   C3S10880   3.327   3.621   4.144  0.2364  0.3754  0.8283
   8223SM   H3S10881   3.241   3.681   4.181  0.1888  1.0063 -0.2663
   8223SM    O310882   3.367   3.698   4.032 -0.4876 -0.4748 -0.0105
   8223SM   HO310883   3.316   3.648   3.968 -0.7073 -0.3817  0.0916
   8223SM   C4S10884   3.436   3.622   4.255 -0.3121 -0.7326 -0.1625
   8223SM   H4S10885   3.380   3.645   4.347 -0.0558 -1.8953  0.2942
   8223SM   C5S10886   3.575   3.610   4.244  0.2803 -0.3168  0.1729
   8223SM   H5S10887   3.616   3.582   4.145 -0.6378 -0.6050 -0.1371
   8223SM   C6S10888   3.683   3.616   4.352  0.1583 -0.0254 -0.0772
   8223SM   H6S10889   3.743   3.710   4.348  0.1680 -0.0121  0.3457
   8223SM   H6T10890   3.758   3.535   4.353  1.4369  1.1206  0.9499
   8223SM   C7S10891   3.620   3.633   4.489  0.1864  0.0812  0.7976
   8223SM   H7S10892   3.539   3.557   4.494  0.0404  0.1166 -0.6634
   8223SM   H7T10893   3.570   3.732   4.493 -0.7592 -0.4135  1.6870
   8223SM   C8S10894   3.717   3.617   4.606 -0.0023 -0.3637  0.4489
   8223SM   H8S10895   3.787   3.704   4.607  0.6555 -0.8872  1.4118
   8223SM   H8T10896   3.779   3.525   4.596  0.3705 -0.2744  1.8573
   8223SM   C9S10897   3.651   3.613   4.739 -0.3674  0.3227 -0.8640
   8223SM   H9S10898   3.609   3.510   4.736  0.0813  0.0615  0.7086
   8223SM   H9T10899   3.564   3.682   4.747  0.0292  0.9798 -1.9668
   8223SM  C10S10900   3.746   3.618   4.865 -0.5470 -0.0335  0.1823
   8223SM  H10S10901   3.799   3.716   4.870  1.9108 -1.2946  0.5526
   8223SM  H10T10902   3.820   3.536   4.852  0.0225  0.6890 -1.4775
   8223SM  C11S10903   3.662   3.603   4.993 -0.2205 -0.2827 -0.2894
   8223SM  H11S10904   3.624   3.501   5.015 -1.0474 -0.0711 -0.6863
   8223SM  H11T10905   3.576   3.671   4.976 -0.9667 -1.5439 -1.8130
   8223SM  C12S10906   3.743   3.650   5.117 -0.4684 -0.6824 -0.5940
   8223SM  H12S10907   3.786   3.750   5.095  0.7161 -1.0446 -0.0289
   8223SM  H12T10908   3.828   3.582   5.140  0.1141 -0.7268 -2.6594
   8223SM  C13S10909   3.658   3.656   5.241 -0.0103 -0.1233 -0.0757
   8223SM  H13S10910   3.648   3.552   5.277 -0.8665  0.5532  1.8119
   8223SM  H13T10911   3.561   3.707   5.221  0.2275 -0.0656 -1.1477
   8223SM  C14S10912   3.730   3.727   5.360 -0.4407  0.3843 -0.2120
   8223SM  H14S10913   3.769   3.826   5.330  2.9834 -0.1185  2.0431
   8223SM  H14T10914   3.826   3.673   5.372  0.7833  2.8671  2.2348
   8223SM  C15S10915   3.650   3.749   5.491  1.0182  0.5560 -0.1899
   8223SM  H15S10916   3.578   3.667   5.513  0.3326  1.6787  1.9777
   8223SM  H15T10917   3.590   3.842   5.486  0.6726  0.2596 -2.5153
   8223SM  C16S10918   3.743   3.762   5.613  0.0751  0.2285 -0.1019
   8223SM  H16S10919   3.816   3.842   5.589  0.6585  0.0399  0.9741
   8223SM  H16T10920   3.798   3.665   5.619 -1.5519 -0.6410  2.1010
   8223SM  C17S10921   3.685   3.779   5.748  0.6540 -0.2352 -0.0966
   8223SM  H17S10922   3.605   3.857   5.740 -0.2932 -0.8315  2.5907
   8223SM  H17T10923   3.755   3.816   5.826 -0.5949 -2.3836  2.1610
   8223SM  C18S10924   3.638   3.649   5.806  0.1464 -0.2776  0.3395
   8223SM  H18S10925   3.553   3.614   5.743  1.0074 -4.1717  1.0841
   8223SM  H18T10926   3.617   3.657   5.914  2.6553  0.3295  0.8544
   8223SM  H18U10927   3.711   3.566   5.789  0.1606 -0.2007  0.0177
   8223SM   C1F10928   3.251   3.262   4.239  0.3265 -0.1766 -0.3606
   8223SM    OF10929   3.268   3.197   4.133  0.0822  0.5633 -0.3504
   8223SM   C2F10930   3.225   3.204   4.377  0.0840  0.7302  0.4922
   8223SM   H2F10931   3.123   3.224   4.416  0.5499  1.2272  1.5223
   8223SM   H2G10932   3.285   3.267   4.446 -1.1581  0.7645  1.5939
   8223SM   C3F10933   3.261   3.054   4.380 -0.0674  0.2341  0.6494
   8223SM   H3F10934   3.371   3.038   4.376 -0.4066 -2.0988 -0.8657
   8223SM   H3G10935   3.206   3.005   4.297 -0.7785 -1.0949  1.8547
   8223SM   C4F10936   3.207   2.980   4.501 -0.0350  0.8538  0.2724
   8223SM   H4F10937   3.241   2.875   4.490  2.3495  1.8057 -3.5895
   8223SM   H4G10938   3.097   2.995   4.502 -0.0773  0.5590  2.0339
   8223SM   C5F10939   3.278   3.028   4.631  0.2325  0.6316 -0.5952
   8223SM   H5F10940   3.290   3.139   4.629 -1.5365  0.9912  2.3559
   8223SM   H5G10941   3.376   2.978   4.626 -1.3658 -2.8350 -0.0854
   8223SM   C6F10942   3.205   2.981   4.754  0.2698  0.2307 -0.2872
   8223SM   H6F10943   3.215   2.871   4.748  1.3397  0.4088 -2.6220
   8223SM   H6G10944   3.096   3.004   4.746  0.4806  0.7651 -1.9929
   8223SM   C7F10945   3.262   3.045   4.881  0.2934  0.5997 -0.4041
   8223SM   H7F10946   3.250   3.155   4.871 -0.0993  0.4575 -1.8006
   8223SM   H7G10947   3.371   3.026   4.878  0.1093 -0.7788  0.7562
   8223SM   C8F10948   3.195   2.996   5.010  0.4113  0.1300 -0.9127
   8223SM   H8F10949   3.226   2.891   5.032 -0.3711 -0.3987 -2.1932
   8223SM   H8G10950   3.085   2.998   4.997  0.4157  1.5326 -0.8416
   8223SM   C9F10951   3.219   3.083   5.133  0.5216 -0.1261  0.5270
   8223SM   H9F10952   3.172   3.183   5.132  1.0541  0.1357  0.9757
   8223SM   H9G10953   3.329   3.096   5.144  0.6036  3.1483 -2.5644
   8223SM  C10F10954   3.157   3.011   5.258  0.1367  0.1991 -0.7621
   8223SM  H10F10955   3.167   2.901   5.256  0.8612  0.2285  0.4603
   8223SM  H10G10956   3.048   3.034   5.252  0.1529  1.6515  2.5122
   8223SM  C11F10957   3.222   3.047   5.401 -0.1394  0.5045 -0.6769
   8223SM  H11F10958   3.281   3.141   5.394  1.9789 -0.7402 -0.4428
   8223SM  H11G10959   3.303   2.971   5.406  1.6275  2.2198 -1.7047
   8223SM  C12F10960   3.113   3.037   5.507 -0.2703 -0.4187 -0.2368
   8223SM  H12F10961   3.064   2.937   5.506 -2.0735  0.2448  3.4368
   8223SM  H12G10962   3.031   3.107   5.481 -0.1967 -0.7553 -1.4362
   8223SM  C13F10963   3.161   3.088   5.642  0.1668 -0.0238 -0.1915
   8223SM  H13F10964   3.197   3.193   5.639  1.6673 -0.5219 -1.3142
   8223SM  H13G10965   3.258   3.036   5.657  0.4380  0.7755  1.0036
   8223SM  C14F10966   3.065   3.078   5.755 -0.4683 -0.5201  0.7890
   8223SM  H14F10967   3.051   2.968   5.763 -3.4284 -0.5366 -2.3408
   8223SM  H14G10968   2.966   3.124   5.734 -0.2613  0.1631  1.2782
   8223SM  C15F10969   3.117   3.142   5.884 -0.6779  0.3723  0.4392
   8223SM  H15F10970   3.039   3.158   5.962 -0.1880 -0.0582  1.0287
   8223SM  H15G10971   3.160   3.242   5.862 -2.3230  1.3297  1.4086
   8223SM  C16F10972   3.210   3.047   5.953  0.1152 -0.4744 -0.4445
   8223SM  H16F10973   3.277   2.994   5.882 -1.1284 -1.4419 -0.9304
   8223SM  H16G10974   3.139   2.968   5.986 -1.5240  0.3228 -1.8947
   8223SM  C17F10975   3.293   3.115   6.057  0.4410  1.1835 -0.1376
   8223SM  H17F10976   3.225   3.164   6.130  0.6209  0.4139  0.5719
   8223SM  H17G10977   3.354   3.197   6.013 -0.7080  2.2810  0.2563
   8223SM  C18F10978   3.387   3.023   6.137 -0.7213  0.3437  0.1426
   8223SM  H18F10979   3.487   3.033   6.092 -0.9984  0.3552 -0.4771
   8223SM  H18G10980   3.342   2.921   6.138 -1.6025  0.6867  2.3322
   8223SM  C19F10981   3.423   3.061   6.284  0.1584 -0.6864 -0.2876
   8223SM  H19F10982   3.323   3.072   6.331 -0.3863 -2.6511 -0.8943
   8223SM  H19G10983   3.475   3.159   6.283  0.8842 -1.0687 -0.8084
   8223SM  C20F10984   3.493   2.945   6.358 -0.3410 -0.3472 -0.2671
   8223SM  H20F10985   3.587   2.913   6.308 -0.7803  0.1501 -1.4433
   8223SM  H20G10986   3.424   2.858   6.352 -0.9813 -0.2319  3.4556
   8223SM  C21F10987   3.532   2.954   6.507 -0.0632 -0.0100  0.1548
   8223SM  H21F10988   3.438   2.966   6.564  0.2358 -0.5149  0.7646
   8223SM  H21G10989   3.586   3.051   6.512 -0.1386  0.2626 -2.8030
   8223SM  C22F10990   3.623   2.846   6.560  0.2473 -0.1346  0.5011
   8223SM  H22F10991   3.709   2.833   6.492 -0.2934  0.2208 -0.2654
   8223SM  H22G10992   3.563   2.752   6.560 -1.8897  1.1659 -0.0366
   8223SM  C23F10993   3.676   2.860   6.701  0.0511  0.2438  0.7485
   8223SM  H23F10994   3.730   2.956   6.707 -0.8297  0.7849  0.2615
   8223SM  H23G10995   3.750   2.781   6.726  0.2494 -0.9508 -3.0792
   8223SM  H23H10996   3.594   2.838   6.774 -0.0334 -0.6651  0.3896
   8323SM     N10997   4.258   3.003   3.312  0.0863  0.6428  0.4987
   8323SM   C1510998   4.391   2.952   3.347 -0.3554 -0.2847 -0.7745
   8323SM  H15A10999   4.389   2.844   3.342  2.1040 -0.3312 -2.6848
   8323SM  H15B11000   4.407   2.982   3.450  2.6541  1.1595 -1.5427
   8323SM  H15C11001   4.471   2.994   3.289  0.6596 -0.4583  0.4398
   8323SM   C1411002   4.224   2.993   3.164 -0.7551 -0.1780 -0.0588
   8323SM  H14A11003   4.137   3.053   3.143  0.8567  2.2710 -0.2029
   8323SM  H14B11004   4.212   2.892   3.126 -0.8147  0.7305 -2.6412
   8323SM  H14C11005   4.300   3.039   3.103 -0.0448  0.8703  1.5740
   8323SM   C1311006   4.161   2.917   3.384  0.6971 -0.2189  0.3615
   8323SM  H13A11007   4.187   2.816   3.357 -0.5237 -1.1353  2.3410
   8323SM  H13B11008   4.061   2.924   3.344 -0.0276 -2.1850  1.6679
   8323SM  H13C11009   4.169   2.928   3.492 -0.1998 -0.1193  0.4274
   8323SM   C1211010   4.251   3.144   3.365 -1.0411  0.2609  0.0107
   8323SM  H12A11011   4.157   3.188   3.337 -1.6600 -0.4993  0.8375
   8323SM  H12B11012   4.330   3.203   3.322 -0.1756  0.5195  1.8371
   8323SM   C1111013   4.254   3.171   3.520  0.1369  0.0118 -0.4291
   8323SM  H11A11014   4.269   3.277   3.547  2.2240  0.1390 -1.8406
   8323SM  H11B11015   4.349   3.124   3.553 -0.3316 -0.3025  0.5071
   8323SM     P11016   4.002   3.175   3.611  0.2486 -0.2594 -0.0620
   8323SM   O1311017   3.954   3.266   3.508  0.1288  0.2228  0.4006
   8323SM   O1411018   3.915   3.065   3.649 -0.0095  0.0684  0.0072
   8323SM   O1111019   4.025   3.256   3.745 -0.6672  0.6589  0.1299
   8323SM   O1211020   4.142   3.108   3.585 -0.4231  0.5836  0.2165
   8323SM   C1S11021   4.088   3.192   3.856 -0.3546 -0.1051  0.5614
   8323SM   H1S11022   4.189   3.237   3.867  0.2950 -1.0503 -1.1893
   8323SM   H1T11023   4.098   3.082   3.844 -0.7325 -0.0166 -0.6202
   8323SM    NF11024   4.047   3.105   4.096 -0.0721 -0.1007  0.7328
   8323SM   HNF11025   3.965   3.060   4.131 -2.3446  3.0105 -0.1904
   8323SM   C2S11026   4.014   3.204   3.996 -0.0055 -0.6503  0.4820
   8323SM   H2S11027   4.057   3.299   4.033 -2.2399  0.2691  0.9210
   8323SM   C3S11028   3.861   3.229   3.975  0.6416  0.2510 -0.5273
   8323SM   H3S11029   3.813   3.140   3.929 -1.4625  2.2102 -2.4282
   8323SM    O311030   3.819   3.335   3.883 -0.1917  0.3468  0.4717
   8323SM   HO311031   3.887   3.322   3.817 -1.6025 -0.9275 -0.8310
   8323SM   C4S11032   3.788   3.261   4.103  0.0568 -0.0246  1.2138
   8323SM   H4S11033   3.799   3.367   4.131  1.5472  0.7928 -2.0006
   8323SM   C5S11034   3.703   3.178   4.168 -0.4515  0.6433 -0.4195
   8323SM   H5S11035   3.680   3.073   4.146 -1.0225 -0.0289  2.9287
   8323SM   C6S11036   3.632   3.217   4.295  0.2191 -0.2182  0.0166
   8323SM   H6S11037   3.526   3.184   4.300  0.6510 -1.5248  1.9576
   8323SM   H6T11038   3.649   3.326   4.300  1.3402 -0.2243 -2.4381
   8323SM   C7S11039   3.701   3.166   4.421 -0.1847 -0.2937  0.5923
   8323SM   H7S11040   3.806   3.204   4.425 -0.2394  0.2880 -1.8564
   8323SM   H7T11041   3.714   3.056   4.416  0.6706 -0.2305  1.2120
   8323SM   C8S11042   3.626   3.208   4.554  0.1695 -0.7036 -0.0280
   8323SM   H8S11043   3.534   3.147   4.561 -0.3874  0.0298 -0.7709
   8323SM   H8T11044   3.602   3.313   4.528 -1.5053 -1.3116 -1.0582
   8323SM   C9S11045   3.717   3.186   4.676 -0.2634  0.4663 -0.7577
   8323SM   H9S11046   3.796   3.262   4.661  0.4755  0.7716  3.3816
   8323SM   H9T11047   3.767   3.086   4.679 -1.2127 -0.0371  2.4766
   8323SM  C10S11048   3.658   3.222   4.811  0.2065 -0.1558 -0.0878
   8323SM  H10S11049   3.578   3.147   4.834  2.8554 -2.9075  0.7983
   8323SM  H10T11050   3.616   3.325   4.807  0.1945 -0.1686 -0.3545
   8323SM  C11S11051   3.759   3.201   4.925  0.0520  0.4061  0.3635
   8323SM  H11S11052   3.832   3.284   4.913 -0.6796  1.0251  0.1273
   8323SM  H11T11053   3.809   3.103   4.909  0.6439  1.1291 -2.8709
   8323SM  C12S11054   3.692   3.206   5.057 -0.1351  0.0841 -0.0131
   8323SM  H12S11055   3.635   3.113   5.080 -1.1946  1.5772  4.4540
   8323SM  H12T11056   3.617   3.288   5.053 -0.6924 -0.4200 -0.0733
   8323SM  C13S11057   3.784   3.235   5.175 -0.3382  0.1513  0.1088
   8323SM  H13S11058   3.827   3.333   5.144  0.2011 -0.5758 -1.5638
   8323SM  H13T11059   3.864   3.160   5.160 -0.6796 -0.2888  0.4530
   8323SM  C14S11060   3.714   3.250   5.309  0.1151  0.0692  0.8776
   8323SM  H14S11061   3.679   3.146   5.329  0.5979  0.1677  2.3546
   8323SM  H14T11062   3.630   3.320   5.289  1.5122  1.5385 -0.0698
   8323SM  C15S11063   3.793   3.318   5.411  0.1500  0.6125 -0.2538
   8323SM  H15S11064   3.847   3.412   5.385  0.3353  1.6453  3.2332
   8323SM  H15T11065   3.877   3.252   5.442 -1.4180 -2.5193 -2.1533
   8323SM  C16S11066   3.716   3.363   5.534  0.3820  0.0081  0.4368
   8323SM  H16S11067   3.648   3.450   5.526 -1.6228 -1.4472  0.7655
   8323SM  H16T11068   3.787   3.369   5.619  0.2915 -1.5339  0.6630
   8323SM  C17S11069   3.622   3.251   5.588 -0.6019 -0.3322 -0.2968
   8323SM  H17S11070   3.689   3.179   5.640  0.1777 -0.7701 -1.8385
   8323SM  H17T11071   3.574   3.202   5.501 -1.0712  2.1091 -1.4866
   8323SM  C18S11072   3.508   3.300   5.679  0.0533 -0.6914  0.4519
   8323SM  H18S11073   3.551   3.366   5.757 -0.0876  0.2174 -0.2306
   8323SM  H18T11074   3.462   3.213   5.730  0.3230 -0.3737  1.2526
   8323SM  H18U11075   3.433   3.352   5.616  0.9290  0.9196  0.6743
   8323SM   C1F11076   4.164   3.075   4.146  0.2169  0.0173  0.2993
   8323SM    OF11077   4.266   3.109   4.092  0.0274  0.4914 -0.1408
   8323SM   C2F11078   4.156   2.998   4.276 -0.4740 -0.1778  0.5407
   8323SM   H2F11079   4.252   2.942   4.281 -0.2242  0.2970  1.1220
   8323SM   H2G11080   4.072   2.925   4.270  0.9660 -1.8296 -0.4914
   8323SM   C3F11081   4.156   3.091   4.390 -0.6060 -0.7040 -0.0488
   8323SM   H3F11082   4.074   3.166   4.379 -2.2028 -2.2809  0.6379
   8323SM   H3G11083   4.254   3.142   4.393 -0.9157 -0.0689 -0.3392
   8323SM   C4F11084   4.151   3.011   4.522 -0.3114  0.1900  0.3188
   8323SM   H4F11085   4.221   2.925   4.522 -1.3020 -0.6509 -0.7369
   8323SM   H4G11086   4.047   2.970   4.526 -0.9583  1.5996 -0.8999
   8323SM   C5F11087   4.177   3.098   4.646  0.3824  0.3597 -0.6275
   8323SM   H5F11088   4.106   3.183   4.646 -4.2442 -3.1147  1.2847
   8323SM   H5G11089   4.280   3.140   4.650  0.3638  0.3487  0.2036
   8323SM   C6F11090   4.122   3.022   4.769 -0.1533 -0.7208  0.1305
   8323SM   H6F11091   4.179   2.926   4.765  0.3304 -0.4297 -3.6641
   8323SM   H6G11092   4.017   2.995   4.750 -0.2462 -0.9455  0.9067
   8323SM   C7F11093   4.167   3.082   4.906 -0.1019  0.0813  0.9062
   8323SM   H7F11094   4.108   3.174   4.926  1.2682  1.0481  0.6306
   8323SM   H7G11095   4.273   3.114   4.896 -0.1020 -0.6056 -3.1733
   8323SM   C8F11096   4.129   2.991   5.022  0.1990  0.4669 -0.2899
   8323SM   H8F11097   4.178   2.891   5.013  1.2245  0.9339 -0.0698
   8323SM   H8G11098   4.021   2.973   5.002  0.2086 -0.2372  0.2616
   8323SM   C9F11099   4.161   3.059   5.158 -0.0748  0.2743  0.1376
   8323SM   H9F11100   4.136   3.167   5.157 -1.2472  0.0591  2.1548
   8323SM   H9G11101   4.272   3.057   5.166  0.0873  0.1179 -1.6460
   8323SM  C10F11102   4.087   2.993   5.275 -0.0409  0.6884 -0.2534
   8323SM  H10F11103   4.101   2.883   5.278 -0.6313  0.6006 -0.5292
   8323SM  H10G11104   3.983   3.019   5.244  0.0202  0.2423 -0.8465
   8323SM  C11F11105   4.116   3.059   5.411  0.1566 -0.2122 -0.1874
   8323SM  H11F11106   4.097   3.167   5.389 -0.1527 -0.4777 -1.2806
   8323SM  H11G11107   4.225   3.051   5.431  0.7999  2.2248 -2.2501
   8323SM  C12F11108   4.016   3.016   5.519 -0.5986  0.3907  0.0118
   8323SM  H12F11109   4.022   2.906   5.533 -0.7443  0.4636  0.6391
   8323SM  H12G11110   3.914   3.033   5.480 -0.9908  0.1227  0.9056
   8323SM  C13F11111   4.027   3.092   5.652 -0.0071  0.1286  0.4770
   8323SM  H13F11112   3.997   3.197   5.633 -0.5925  0.0523  0.9340
   8323SM  H13G11113   4.136   3.085   5.673 -0.1075  0.8753  1.3243
   8323SM  C14F11114   3.938   3.043   5.762  0.9233 -0.3281  0.3459
   8323SM  H14F11115   3.977   2.945   5.797 -1.4221 -1.1856  0.8044
   8323SM  H14G11116   3.837   3.027   5.718  0.0753  3.3649  0.6141
   8323SM  C15F11117   3.927   3.146   5.878 -0.8826  0.6312  0.2743
   8323SM  H15F11118   3.904   3.248   5.840  0.1725 -0.1386 -2.7312
   8323SM  H15G11119   4.030   3.151   5.921 -0.7847  0.3303  0.0842
   8323SM  C16F11120   3.839   3.090   5.989 -0.6165 -0.6681 -0.4826
   8323SM  H16F11121   3.868   2.987   6.019  0.6327 -0.0835  0.3561
   8323SM  H16G11122   3.740   3.067   5.943 -1.3187 -1.5826  1.3876
   8323SM  C17F11123   3.832   3.178   6.113 -0.4671  0.3518 -0.0850
   8323SM  H17F11124   3.722   3.183   6.132 -0.4817  1.5334 -0.4464
   8323SM  H17G11125   3.867   3.282   6.096  1.3802 -0.4142 -1.2675
   8323SM  C18F11126   3.911   3.126   6.232 -0.4092  0.0954 -0.5609
   8323SM  H18F11127   4.021   3.131   6.220 -0.4355  1.0168 -0.5327
   8323SM  H18G11128   3.894   3.020   6.260 -2.0840  0.6388  0.6388
   8323SM  C19F11129   3.906   3.227   6.350  0.4917  0.5629 -0.0807
   8323SM  H19F11130   3.801   3.232   6.388  0.3178  2.7518 -0.7284
   8323SM  H19G11131   3.925   3.326   6.303 -0.5855  0.0678 -1.6345
   8323SM  C20F11132   4.014   3.205   6.455 -0.1911  0.0787  0.0460
   8323SM  H20F11133   4.114   3.196   6.408  0.1443  1.5913  0.4261
   8323SM  H20G11134   3.997   3.105   6.501  1.3079 -0.7192 -1.0613
   8323SM  C21F11135   4.028   3.323   6.552  0.3754  0.4324 -0.1053
   8323SM  H21F11136   3.933   3.367   6.589  2.0250  1.7392  2.9084
   8323SM  H21G11137   4.086   3.407   6.508 -2.2440  3.1525  1.3392
   8323SM  C22F11138   4.106   3.284   6.676 -0.1125  0.2112  0.8552
   8323SM  H22F11139   4.207   3.250   6.646 -0.2028 -0.0881  0.8945
   8323SM  H22G11140   4.046   3.201   6.719 -1.4445  1.4188  1.4425
   8323SM  C23F11141   4.133   3.396   6.785 -0.2447  0.1263 -0.2032
   8323SM  H23F11142   4.168   3.489   6.736 -0.2550 -0.0185 -0.4870
   8323SM  H23G11143   4.217   3.364   6.850  1.1916 -0.5071 -2.2743
   8323SM  H23H11144   4.036   3.412   6.836  0.2194 -0.0346  0.7425
   8423SM     N11145   3.898   2.234   3.353  0.5154  0.1568 -0.0563
   8423SM   C1511146   4.023   2.311   3.370  0.4959 -0.2418 -0.0717
   8423SM  H15A11147   4.095   2.249   3.421  0.1635 -1.9807 -1.6154
   8423SM  H15B11148   4.008   2.405   3.421  0.6953  0.0427 -0.5311
   8423SM  H15C11149   4.062   2.339   3.273 -0.3022 -0.3426 -0.4301
   8423SM   C1411150   3.821   2.205   3.481 -0.3813  0.5258 -0.2613
   8423SM  H14A11151   3.885   2.138   3.536 -1.7575 -0.3379  0.3389
   8423SM  H14B11152   3.719   2.173   3.463 -0.5392  1.7853 -1.7660
   8423SM  H14C11153   3.795   2.295   3.535 -1.0548  0.9763 -1.3132
   8423SM   C1311154   3.813   2.309   3.262  0.5217  0.0504 -0.0525
   8423SM  H13A11155   3.818   2.413   3.292  1.2238  0.4057 -1.3406
   8423SM  H13B11156   3.709   2.280   3.258  0.7750 -0.7748 -1.0810
   8423SM  H13C11157   3.852   2.311   3.162  0.8844  2.6685  0.0717
   8423SM   C1211158   3.925   2.102   3.282  0.1563  0.2446 -0.2412
   8423SM  H12A11159   3.978   2.135   3.194  1.7989  0.0148  0.6158
   8423SM  H12B11160   3.830   2.054   3.265  0.4143 -0.4003  0.1005
   8423SM   C1111161   4.015   1.996   3.347  0.5087 -0.5818 -0.6878
   8423SM  H11A11162   4.110   2.041   3.382 -0.3393  1.2644 -0.6312
   8423SM  H11B11163   4.040   1.915   3.275 -1.1062 -0.4034 -1.4849
   8423SM     P11164   3.850   1.824   3.464  0.1538  0.1907  0.3708
   8423SM   O1311165   3.714   1.880   3.451 -0.3211  0.3091 -0.4544
   8423SM   O1411166   3.882   1.714   3.368 -0.4635  0.3444  0.1446
   8423SM   O1111167   3.874   1.778   3.616 -0.3699  0.1077  0.1124
   8423SM   O1211168   3.963   1.940   3.465  0.1918  0.6582  0.0400
   8423SM   C1S11169   3.833   1.639   3.640 -0.6062  0.0079 -0.6019
   8423SM   H1S11170   3.902   1.575   3.582  1.0707  1.9070 -0.8214
   8423SM   H1T11171   3.734   1.614   3.598  0.7550 -0.4665 -3.7750
   8423SM    NF11172   3.840   1.461   3.811 -0.1511 -0.0472  0.1399
   8423SM   HNF11173   3.749   1.420   3.817  0.8369 -2.6852 -1.5281
   8423SM   C2S11174   3.848   1.605   3.794  0.0380 -0.4656  0.2964
   8423SM   H2S11175   3.950   1.641   3.820 -0.7743  2.6652 -0.4204
   8423SM   C3S11176   3.746   1.688   3.876  0.6952 -0.4784  0.4624
   8423SM   H3S11177   3.648   1.688   3.823  1.5108 -1.8636 -1.1727
   8423SM    O311178   3.763   1.828   3.874 -0.1214 -0.1984 -0.2702
   8423SM   HO311179   3.816   1.842   3.796 -1.3162  0.2181 -1.0361
   8423SM   C4S11180   3.748   1.643   4.017  0.3098 -0.0267  0.0771
   8423SM   H4S11181   3.661   1.580   4.042 -0.3596 -0.6174 -3.3197
   8423SM   C5S11182   3.831   1.676   4.114 -0.6905 -0.3595  0.1058
   8423SM   H5S11183   3.918   1.742   4.101 -0.1542 -0.5861  2.1969
   8423SM   C6S11184   3.820   1.653   4.261  0.3562 -0.4686 -0.2764
   8423SM   H6S11185   3.910   1.611   4.312 -1.5647 -1.6927  2.3369
   8423SM   H6T11186   3.738   1.580   4.277 -2.2781  2.2496 -0.6554
   8423SM   C7S11187   3.776   1.774   4.352 -0.0445  0.0282 -0.2665
   8423SM   H7S11188   3.702   1.828   4.290  0.7411  1.2497 -0.1537
   8423SM   H7T11189   3.865   1.835   4.375 -0.0629  0.0307 -0.2028
   8423SM   C8S11190   3.708   1.724   4.483 -0.0310 -0.0780 -0.4827
   8423SM   H8S11191   3.786   1.695   4.557 -0.2958  1.2413  0.3647
   8423SM   H8T11192   3.639   1.642   4.457 -0.3089 -0.2164  0.6103
   8423SM   C9S11193   3.617   1.836   4.536 -0.2699 -0.0461 -0.3250
   8423SM   H9S11194   3.563   1.874   4.446 -0.3860  0.3615 -0.0851
   8423SM   H9T11195   3.677   1.918   4.581  0.9827 -0.6056 -0.9288
   8423SM  C10S11196   3.510   1.777   4.628 -0.1710  0.7388  0.6042
   8423SM  H10S11197   3.446   1.710   4.566 -2.1083  0.6672  2.5682
   8423SM  H10T11198   3.452   1.858   4.675 -0.5282  1.6682 -1.3174
   8423SM  C11S11199   3.569   1.691   4.746  0.0897 -1.0741  0.3214
   8423SM  H11S11200   3.662   1.742   4.779  0.2146  0.8086 -2.5808
   8423SM  H11T11201   3.607   1.588   4.725  0.3197 -1.2785  1.6266
   8423SM  C12S11202   3.473   1.687   4.864  0.9248  0.1068 -0.1042
   8423SM  H12S11203   3.371   1.648   4.842  0.8277  1.1433 -1.6454
   8423SM  H12T11204   3.456   1.788   4.905  1.2892  0.1709 -0.1026
   8423SM  C13S11205   3.526   1.587   4.970 -0.5249  0.0636 -0.5626
   8423SM  H13S11206   3.636   1.594   4.980 -0.5740  0.5110 -0.2479
   8423SM  H13T11207   3.518   1.480   4.942  1.8599 -0.5811  1.0055
   8423SM  C14S11208   3.451   1.595   5.104 -0.0690 -0.0338 -0.0455
   8423SM  H14S11209   3.475   1.499   5.155  1.5666  0.9982  1.1956
   8423SM  H14T11210   3.340   1.597   5.097 -0.0858  0.9394  0.3776
   8423SM  C15S11211   3.489   1.712   5.191 -0.5100 -0.3475 -0.6432
   8423SM  H15S11212   3.457   1.805   5.139  0.6481 -0.0511 -0.8697
   8423SM  H15T11213   3.600   1.718   5.198 -0.5136 -0.7134 -0.2853
   8423SM  C16S11214   3.431   1.711   5.332  0.1373  0.2557  0.1958
   8423SM  H16S11215   3.447   1.616   5.387  0.9632  0.0275 -0.4125
   8423SM  H16T11216   3.322   1.728   5.322  0.4462  1.5158 -1.5497
   8423SM  C17S11217   3.495   1.822   5.420 -0.3807  0.2995 -0.1356
   8423SM  H17S11218   3.473   1.923   5.379  0.0932  0.6659  0.4977
   8423SM  H17T11219   3.603   1.802   5.409 -0.3347 -0.4159  1.3460
   8423SM  C18S11220   3.463   1.830   5.571 -0.0791 -0.3789 -0.4812
   8423SM  H18S11221   3.356   1.811   5.594 -0.5311  0.8931 -1.4513
   8423SM  H18T11222   3.487   1.930   5.613  0.1921 -0.7375  0.2394
   8423SM  H18U11223   3.504   1.736   5.613 -0.9163 -2.0856 -3.2361
   8423SM   C1F11224   3.944   1.381   3.795  0.3274 -0.2898 -0.2311
   8423SM    OF11225   4.054   1.420   3.766  0.3053  0.3213  0.3310
   8423SM   C2F11226   3.912   1.236   3.809  0.5479  0.1247  0.3825
   8423SM   H2F11227   3.916   1.193   3.707 -2.0414  1.1518 -0.2438
   8423SM   H2G11228   3.807   1.223   3.841  1.1407 -1.1859  1.9378
   8423SM   C3F11229   3.997   1.164   3.902 -0.1662  0.3764  0.5604
   8423SM   H3F11230   4.103   1.155   3.868  0.2900  0.5574  1.8672
   8423SM   H3G11231   3.952   1.063   3.913  1.7012 -0.6468 -0.6220
   8423SM   C4F11232   4.012   1.219   4.048  0.5396 -0.1761 -0.3913
   8423SM   H4F11233   4.088   1.299   4.038  1.1797 -0.2661  2.8752
   8423SM   H4G11234   4.070   1.146   4.108  1.4941 -0.3725 -1.4999
   8423SM   C5F11235   3.886   1.252   4.127 -0.3296  0.2634 -0.2041
   8423SM   H5F11236   3.827   1.158   4.117  0.4007 -0.1194 -1.0779
   8423SM   H5G11237   3.825   1.324   4.069 -0.8256 -0.5461 -0.7038
   8423SM   C6F11238   3.907   1.293   4.279  0.5437 -0.0362  0.2062
   8423SM   H6F11239   3.812   1.333   4.318  0.4282 -2.3133  2.5831
   8423SM   H6G11240   3.979   1.377   4.286  0.0797  0.3043  1.0886
   8423SM   C7F11241   3.953   1.172   4.362  0.0698 -0.3371 -0.0175
   8423SM   H7F11242   4.038   1.120   4.313  0.6166  1.8536 -1.5274
   8423SM   H7G11243   3.869   1.100   4.373 -0.9132  0.5757 -1.2718
   8423SM   C8F11244   4.000   1.220   4.500 -0.4030  0.0510 -0.0734
   8423SM   H8F11245   4.085   1.290   4.496 -0.8690  0.6038 -0.6725
   8423SM   H8G11246   4.045   1.135   4.555  0.1553 -0.2481 -0.9800
   8423SM   C9F11247   3.887   1.279   4.589  0.1841 -0.3898 -0.6234
   8423SM   H9F11248   3.836   1.208   4.658  1.0764 -0.2765  0.1809
   8423SM   H9G11249   3.812   1.329   4.525 -0.1453  1.5438  1.1658
   8423SM  C10F11250   3.947   1.375   4.693  0.0655  0.1756 -0.1042
   8423SM  H10F11251   3.933   1.481   4.663  0.5335 -0.1686 -1.6337
   8423SM  H10G11252   4.055   1.359   4.709  0.4784  0.9918 -1.7837
   8423SM  C11F11253   3.877   1.361   4.835  0.3509  0.9860  0.5647
   8423SM  H11F11254   3.909   1.258   4.862  1.3944  1.4236  1.0559
   8423SM  H11G11255   3.767   1.356   4.819  0.3524 -0.7206  0.8857
   8423SM  C12F11256   3.940   1.456   4.937 -0.7253  0.5340  0.2562
   8423SM  H12F11257   3.920   1.561   4.907  3.0970  0.5613 -3.0175
   8423SM  H12G11258   4.051   1.453   4.933 -0.7628 -0.2753 -0.3086
   8423SM  C13F11259   3.899   1.431   5.081 -0.7511  0.1366 -0.4145
   8423SM  H13F11260   3.942   1.337   5.121  2.9236  1.3590 -1.0993
   8423SM  H13G11261   3.788   1.426   5.084 -0.8536  1.6337  2.5850
   8423SM  C14F11262   3.947   1.551   5.174  0.1216 -0.1226 -0.8061
   8423SM  H14F11263   3.911   1.651   5.140  0.4232  0.6308  0.9872
   8423SM  H14G11264   4.058   1.548   5.174  0.2267  1.7786  0.2554
   8423SM  C15F11265   3.886   1.522   5.315 -0.2525 -0.2360  0.2643
   8423SM  H15F11266   3.916   1.421   5.350 -0.5078 -0.4068 -0.0035
   8423SM  H15G11267   3.778   1.506   5.294 -0.0111 -1.1998 -0.2953
   8423SM  C16F11268   3.914   1.631   5.423  0.3802 -0.3320 -0.5543
   8423SM  H16F11269   3.862   1.723   5.390 -0.8651 -0.6616  0.4052
   8423SM  H16G11270   4.024   1.648   5.432  0.2479  0.5606 -0.5276
   8423SM  C17F11271   3.847   1.587   5.552  0.7341 -0.6826 -0.1179
   8423SM  H17F11272   3.900   1.497   5.590 -2.4986 -1.9253  1.8928
   8423SM  H17G11273   3.740   1.565   5.531  0.7155  0.8654 -1.7903
   8423SM  C18F11274   3.864   1.701   5.659  0.3143  0.4365  0.5192
   8423SM  H18F11275   3.809   1.784   5.609 -1.2917 -1.6349 -1.3742
   8423SM  H18G11276   3.969   1.724   5.686  1.1560 -0.2704 -1.9025
   8423SM  C19F11277   3.788   1.675   5.786 -0.5797 -0.0883  0.0335
   8423SM  H19F11278   3.838   1.596   5.845  2.0991  0.4994 -1.2767
   8423SM  H19G11279   3.683   1.641   5.767  0.2106 -1.2478 -2.9012
   8423SM  C20F11280   3.788   1.799   5.875  0.6499  0.2297 -0.3258
   8423SM  H20F11281   3.763   1.879   5.802 -2.3677 -2.3058 -2.3029
   8423SM  H20G11282   3.891   1.811   5.917  1.0244 -1.4665 -0.6757
   8423SM  C21F11283   3.696   1.785   5.993 -0.2377 -0.0397 -0.0672
   8423SM  H21F11284   3.707   1.874   6.058 -2.8592 -0.0883  0.5620
   8423SM  H21G11285   3.719   1.708   6.069 -2.1773 -0.1826  0.4132
   8423SM  C22F11286   3.546   1.767   5.964 -0.6741  0.0528 -0.3189
   8423SM  H22F11287   3.517   1.660   5.966  1.0436 -0.4461  1.9441
   8423SM  H22G11288   3.522   1.801   5.861  1.2502  0.0696 -0.8031
   8423SM  C23F11289   3.469   1.840   6.075 -0.3201  0.4110 -0.0072
   8423SM  H23F11290   3.527   1.810   6.165  0.3187 -0.4821 -0.6981
   8423SM  H23G11291   3.362   1.812   6.086  0.0078 -0.4489  1.3347
   8423SM  H23H11292   3.479   1.950   6.066  1.6221  0.1896 -1.1004
   8523SM     N11293   4.982   2.822   3.512 -0.6636 -0.1455 -0.3969
   8523SM   C1511294   5.038   2.887   3.633  0.6070  0.0211 -0.1462
   8523SM  H15A11295   5.106   2.961   3.593 -0.0344  1.1349  0.7750
   8523SM  H15B11296   5.083   2.827   3.711  0.9895  0.1034 -0.3022
   8523SM  H15C11297   4.969   2.958   3.676  1.2451  1.1827 -0.9871
   8523SM   C1411298   5.095   2.769   3.429 -0.1813  0.2419 -0.0283
   8523SM  H14A11299   5.144   2.693   3.488  0.3579 -0.5174 -1.4311
   8523SM  H14B11300   5.167   2.846   3.407  2.4924 -1.6482  1.5018
   8523SM  H14C11301   5.058   2.723   3.339 -3.5964  2.2899  0.1333
   8523SM   C1311302   4.900   2.712   3.566  0.0345  0.2727  0.3681
   8523SM  H13A11303   4.839   2.673   3.486  2.5266 -1.1959 -0.9557
   8523SM  H13B11304   4.836   2.750   3.644  1.0822 -0.8140  1.7962
   8523SM  H13C11305   4.965   2.629   3.586 -0.7604 -1.2512 -2.7538
   8523SM   C1211306   4.888   2.918   3.437  0.1280 -0.2609  0.4182
   8523SM  H12A11307   4.856   2.864   3.350 -1.5980 -0.7814  1.3237
   8523SM  H12B11308   4.948   2.998   3.394 -0.1255  0.5552  1.5315
   8523SM   C1111309   4.762   2.973   3.503 -1.0033  0.0914  0.0792
   8523SM  H11A11310   4.704   2.889   3.548 -0.6059  0.2412  0.8906
   8523SM  H11B11311   4.695   3.009   3.422  0.6612 -0.7956 -1.7968
   8523SM     P11312   4.788   3.223   3.554 -0.3880  0.1623  0.2171
   8523SM   O1311313   4.888   3.293   3.641  0.2872  1.1530 -0.0412
   8523SM   O1411314   4.802   3.244   3.407  0.3380 -1.0098 -0.4727
   8523SM   O1111315   4.642   3.262   3.595  0.3243 -0.5092 -0.6118
   8523SM   O1211316   4.803   3.069   3.604  0.0836 -0.3830 -0.2231
   8523SM   C1S11317   4.600   3.227   3.729  0.3612  0.7884  0.0878
   8523SM   H1S11318   4.666   3.154   3.781 -3.1652 -1.8609  1.1978
   8523SM   H1T11319   4.499   3.182   3.728  1.2112 -1.3449  1.9806
   8523SM    NF11320   4.563   3.269   3.972  0.1539  0.8867  0.0457
   8523SM   HNF11321   4.484   3.300   4.026  0.6321 -0.6826  1.7469
   8523SM   C2S11322   4.585   3.330   3.842 -0.3011  0.0570  0.3100
   8523SM   H2S11323   4.688   3.372   3.839 -0.6632  0.9248 -0.1526
   8523SM   C3S11324   4.481   3.444   3.799 -0.1700  0.8781 -0.6332
   8523SM   H3S11325   4.381   3.398   3.788 -1.0611  2.1323  1.6362
   8523SM    O311326   4.504   3.485   3.668 -0.0141  0.3943  0.0984
   8523SM   HO311327   4.576   3.436   3.627 -0.5864 -0.7252  0.4006
   8523SM   C4S11328   4.474   3.560   3.901 -0.6150 -0.0417 -0.3956
   8523SM   H4S11329   4.380   3.573   3.957  0.1179 -0.2025  0.9018
   8523SM   C5S11330   4.573   3.650   3.911 -0.1081  0.3373  0.0064
   8523SM   H5S11331   4.657   3.644   3.840  1.2795  0.8454  1.5284
   8523SM   C6S11332   4.566   3.772   3.997 -1.0012  0.6748  0.2447
   8523SM   H6S11333   4.466   3.795   4.039 -0.0980  4.2131  0.7543
   8523SM   H6T11334   4.606   3.855   3.936  1.0768 -0.6325 -0.2747
   8523SM   C7S11335   4.654   3.751   4.127  0.9971 -0.4029 -0.5607
   8523SM   H7S11336   4.763   3.757   4.106  1.6326 -0.3124  2.3581
   8523SM   H7T11337   4.635   3.651   4.169  0.5101  0.6539  1.8827
   8523SM   C8S11338   4.620   3.864   4.232  0.0021 -0.0021 -0.0545
   8523SM   H8S11339   4.511   3.858   4.254  0.2790  1.0898  1.9188
   8523SM   H8T11340   4.653   3.967   4.206 -0.9797  0.7180  1.3542
   8523SM   C9S11341   4.685   3.838   4.371 -0.7112 -0.2021 -0.2159
   8523SM   H9S11342   4.638   3.917   4.433  0.5989  1.9396 -1.7988
   8523SM   H9T11343   4.795   3.852   4.370 -0.9442  1.8389 -0.3932
   8523SM  C10S11344   4.646   3.705   4.433  0.5274  0.1542  0.0651
   8523SM  H10S11345   4.682   3.628   4.361 -0.0693  2.8622 -3.3669
   8523SM  H10T11346   4.536   3.700   4.447  0.5458 -3.0669 -0.0892
   8523SM  C11S11347   4.716   3.680   4.563  0.3648 -0.0146 -1.0403
   8523SM  H11S11348   4.826   3.678   4.544  0.7876 -1.9062  1.1803
   8523SM  H11T11349   4.709   3.574   4.596  2.6966 -0.0437 -0.4142
   8523SM  C12S11350   4.682   3.773   4.667  0.5586 -0.0630 -0.2249
   8523SM  H12S11351   4.573   3.792   4.656  0.4273  0.2792  1.3260
   8523SM  H12T11352   4.745   3.863   4.653 -1.9712  1.6358 -1.4735
   8523SM  C13S11353   4.704   3.710   4.809  0.0886 -0.5568 -0.0454
   8523SM  H13S11354   4.676   3.603   4.799 -2.1987 -0.1718  1.4739
   8523SM  H13T11355   4.640   3.754   4.889 -0.3192  0.2036 -0.7782
   8523SM  C14S11356   4.851   3.718   4.859  0.4248 -0.1253 -0.0138
   8523SM  H14S11357   4.867   3.828   4.860  1.7400 -0.2678  2.1585
   8523SM  H14T11358   4.916   3.660   4.790  0.4396  1.2903 -1.2356
   8523SM  C15S11359   4.887   3.644   4.991  0.6126  0.0931 -0.4472
   8523SM  H15S11360   4.997   3.651   5.004  0.4352 -0.4260  1.6109
   8523SM  H15T11361   4.868   3.535   4.981 -1.1166  0.3744 -0.5754
   8523SM  C16S11362   4.823   3.720   5.112  0.9185 -0.6094  0.3655
   8523SM  H16S11363   4.714   3.720   5.093  0.8752 -2.6423  0.4253
   8523SM  H16T11364   4.860   3.824   5.124  1.3857 -0.9136  1.8844
   8523SM  C17S11365   4.841   3.640   5.243 -0.3100 -0.3305 -0.3765
   8523SM  H17S11366   4.947   3.646   5.276 -0.3875  1.0134 -0.2963
   8523SM  H17T11367   4.820   3.532   5.227  1.9942 -1.0351  0.9175
   8523SM  C18S11368   4.751   3.697   5.360 -0.4017  0.5523  0.8791
   8523SM  H18S11369   4.648   3.694   5.320  0.4735 -0.4549 -1.4756
   8523SM  H18T11370   4.778   3.804   5.374  0.0207  0.7132 -0.8744
   8523SM  H18U11371   4.756   3.642   5.456 -1.7075 -1.7945 -0.3210
   8523SM   C1F11372   4.653   3.200   4.043  0.0211 -0.5645 -0.7248
   8523SM    OF11373   4.768   3.191   4.009 -0.0721  0.2436  0.2501
   8523SM   C2F11374   4.601   3.129   4.167  0.2229  0.0212 -0.0833
   8523SM   H2F11375   4.612   3.020   4.151 -2.9106 -0.0199 -2.8756
   8523SM   H2G11376   4.493   3.151   4.169 -0.1874 -1.5708 -1.7810
   8523SM   C3F11377   4.688   3.167   4.293  0.0414  0.0792 -0.1310
   8523SM   H3F11378   4.686   3.278   4.289 -0.8928  0.0935  0.4719
   8523SM   H3G11379   4.788   3.118   4.294 -1.0659 -2.2722  1.0315
   8523SM   C4F11380   4.626   3.119   4.427  0.4912 -0.4598  0.3501
   8523SM   H4F11381   4.639   3.010   4.438  0.1865 -0.5252  0.0895
   8523SM   H4G11382   4.515   3.131   4.427  0.2639 -1.7067 -2.3511
   8523SM   C5F11383   4.681   3.207   4.538 -0.4175 -0.0134  0.0727
   8523SM   H5F11384   4.680   3.308   4.492 -0.3896 -0.3244 -0.6295
   8523SM   H5G11385   4.789   3.187   4.555  0.2806  2.6836 -0.6815
   8523SM   C6F11386   4.600   3.190   4.667 -0.2156 -0.3525 -0.3312
   8523SM   H6F11387   4.593   3.081   4.687 -1.2789  0.0185  1.6597
   8523SM   H6G11388   4.498   3.219   4.633 -0.5669 -2.3230 -1.0409
   8523SM   C7F11389   4.646   3.258   4.795  0.0840  0.1941 -1.6415
   8523SM   H7F11390   4.647   3.369   4.800  2.1338  0.1799  0.4087
   8523SM   H7G11391   4.755   3.235   4.808  0.6024  3.0021 -0.2642
   8523SM   C8F11392   4.558   3.221   4.914 -0.0336  0.1961 -0.2684
   8523SM   H8F11393   4.558   3.110   4.913 -2.2218  0.1505 -0.7487
   8523SM   H8G11394   4.451   3.248   4.896 -0.1302 -0.5403 -0.8399
   8523SM   C9F11395   4.606   3.267   5.052 -0.0622 -0.7371  0.1825
   8523SM   H9F11396   4.597   3.378   5.049 -0.1654 -0.7531 -0.1834
   8523SM   H9G11397   4.708   3.234   5.081  0.1030 -0.1415  0.2976
   8523SM  C10F11398   4.514   3.218   5.161  0.1904 -0.1782  0.2354
   8523SM  H10F11399   4.502   3.107   5.159  2.1120 -0.4676  1.6888
   8523SM  H10G11400   4.419   3.275   5.159 -0.9017 -1.9079  0.3835
   8523SM  C11F11401   4.588   3.243   5.296  0.7573 -0.7163  0.7408
   8523SM  H11F11402   4.608   3.352   5.304  2.0564 -1.0782  3.6436
   8523SM  H11G11403   4.685   3.189   5.297 -0.3281 -2.8101  2.3593
   8523SM  C12F11404   4.512   3.210   5.421  0.4287  0.6843  0.3113
   8523SM  H12F11405   4.491   3.101   5.421 -1.8398  1.0774 -0.3912
   8523SM  H12G11406   4.420   3.272   5.412  0.0495 -0.1301 -1.9766
   8523SM  C13F11407   4.576   3.250   5.556 -0.7161 -1.1649 -0.0956
   8523SM  H13F11408   4.675   3.198   5.547  0.4928  1.2017 -1.5299
   8523SM  H13G11409   4.518   3.212   5.642 -0.7028 -1.2629 -0.1297
   8523SM  C14F11410   4.593   3.399   5.581  0.8646 -0.3634 -0.2047
   8523SM  H14F11411   4.499   3.454   5.560  1.5937  0.7877 -0.5432
   8523SM  H14G11412   4.666   3.437   5.506  0.3660 -1.3555 -1.2259
   8523SM  C15F11413   4.615   3.444   5.722 -0.0336  0.3744  0.2519
   8523SM  H15F11414   4.699   3.386   5.766 -0.4883  0.3383  1.1017
   8523SM  H15G11415   4.525   3.408   5.775 -1.9164  3.3429 -0.6514
   8523SM  C16F11416   4.620   3.595   5.738  0.0074  0.1133 -0.5724
   8523SM  H16F11417   4.532   3.629   5.679 -1.2323 -2.4306 -0.3587
   8523SM  H16G11418   4.714   3.633   5.694  1.1898 -2.6709 -0.6753
   8523SM  C17F11419   4.593   3.658   5.879 -0.1681 -0.5959  0.6410
   8523SM  H17F11420   4.490   3.634   5.913  1.2908 -2.1591  4.5837
   8523SM  H17G11421   4.595   3.768   5.868 -1.0108 -0.5278  1.1428
   8523SM  C18F11422   4.705   3.616   5.971 -0.7608  0.3417  1.0250
   8523SM  H18F11423   4.797   3.651   5.921  0.5076 -3.8994 -0.0281
   8523SM  H18G11424   4.704   3.506   5.987  0.1338  0.2814  0.7105
   8523SM  C19F11425   4.682   3.687   6.102 -0.3870 -0.5986 -0.4762
   8523SM  H19F11426   4.584   3.649   6.139  0.7460 -1.0581  2.2302
   8523SM  H19G11427   4.682   3.798   6.098 -0.2045 -0.6251 -3.2508
   8523SM  C20F11428   4.789   3.663   6.213  0.3532 -0.3649  0.0803
   8523SM  H20F11429   4.887   3.703   6.177  0.2918 -0.6258 -0.3864
   8523SM  H20G11430   4.799   3.554   6.231  0.5981 -0.9911 -3.2043
   8523SM  C21F11431   4.755   3.739   6.344  0.2199 -0.6951  0.6107
   8523SM  H21F11432   4.674   3.686   6.397  2.0828 -3.7659  0.5988
   8523SM  H21G11433   4.729   3.846   6.327 -2.4459 -1.0137  2.1695
   8523SM  C22F11434   4.867   3.735   6.447  0.0670 -0.4099  0.5271
   8523SM  H22F11435   4.945   3.804   6.407  1.7642 -1.6209  1.6360
   8523SM  H22G11436   4.897   3.629   6.440 -5.5618 -2.3402  0.4185
   8523SM  C23F11437   4.824   3.778   6.585 -0.5407  0.4728  0.8896
   8523SM  H23F11438   4.911   3.764   6.653 -1.3198 -0.7874  1.6656
   8523SM  H23G11439   4.741   3.710   6.614  0.6257 -2.0448 -1.2271
   8523SM  H23H11440   4.792   3.885   6.584 -1.7873  0.2118 -3.0808
   8623SM     N11441   2.239   1.686   3.450  0.1492  0.7339  0.4343
   8623SM   C1511442   2.345   1.725   3.356 -0.2242 -0.5694 -0.0763
   8623SM  H15A11443   2.430   1.660   3.365 -0.3862 -0.5563  1.9996
   8623SM  H15B11444   2.386   1.822   3.382 -1.2740 -0.2120  0.3044
   8623SM  H15C11445   2.313   1.724   3.252  0.6254 -0.4600 -0.3495
   8623SM   C1411446   2.138   1.790   3.461  0.3203 -0.4628  0.0366
   8623SM  H14A11447   2.186   1.878   3.500  0.0024 -0.5941  0.7526
   8623SM  H14B11448   2.055   1.776   3.529  0.0175 -2.1267 -0.6193
   8623SM  H14C11449   2.093   1.808   3.365  0.9039 -1.5336 -0.4555
   8623SM   C1311450   2.174   1.562   3.395  0.3057  0.2756 -0.2601
   8623SM  H13A11451   2.241   1.478   3.384 -2.2211 -1.5718 -3.9329
   8623SM  H13B11452   2.131   1.586   3.299 -0.5396  0.4885  0.1569
   8623SM  H13C11453   2.099   1.538   3.469  1.0949  0.7670  0.7223
   8623SM   C1211454   2.310   1.648   3.587 -0.6869  0.2990  0.0314
   8623SM  H12A11455   2.398   1.586   3.577  1.2257  2.8309 -0.1374
   8623SM  H12B11456   2.237   1.609   3.656  0.9338 -0.9242  1.1441
   8623SM   C1111457   2.365   1.773   3.663  0.4329  0.3083 -0.4322
   8623SM  H11A11458   2.282   1.844   3.685 -0.3636 -0.9165  0.6734
   8623SM  H11B11459   2.436   1.832   3.601 -2.6962  1.7250 -2.9359
   8623SM     P11460   2.536   1.633   3.815  0.5676  0.0293 -0.4092
   8623SM   O1311461   2.535   1.572   3.949  0.0873  0.1519 -0.6721
   8623SM   O1411462   2.574   1.557   3.697  0.3129  0.2535 -0.1255
   8623SM   O1111463   2.643   1.749   3.829 -0.3538  0.2831 -0.0575
   8623SM   O1211464   2.402   1.719   3.790  0.7782 -0.0486  0.1899
   8623SM   C1S11465   2.621   1.878   3.891 -0.3623  0.4070  0.3894
   8623SM   H1S11466   2.524   1.887   3.943 -0.5211  0.1466  0.1364
   8623SM   H1T11467   2.626   1.964   3.821  0.0783  0.1363  0.0849
   8623SM    NF11468   2.694   2.000   4.109  0.1536 -0.3568 -0.7691
   8623SM   HNF11469   2.759   2.076   4.107 -0.6674  0.3665 -1.7324
   8623SM   C2S11470   2.733   1.902   4.002  0.0962  0.2971  0.4190
   8623SM   H2S11471   2.740   1.804   4.055 -0.4191 -0.9416 -1.6848
   8623SM   C3S11472   2.871   1.932   3.940 -0.0925 -0.6603 -0.3150
   8623SM   H3S11473   2.850   2.022   3.879 -2.1227 -0.5183  0.5090
   8623SM    O311474   2.909   1.829   3.846 -0.9482 -0.3832 -0.5658
   8623SM   HO311475   2.828   1.782   3.826 -0.6736 -1.7756  1.3265
   8623SM   C4S11476   2.987   1.960   4.034 -0.1058 -0.7698 -0.5807
   8623SM   H4S11477   3.014   2.067   4.030 -1.0679 -0.2456  3.0034
   8623SM   C5S11478   3.059   1.874   4.109 -0.0565  0.2075  0.5558
   8623SM   H5S11479   3.045   1.767   4.091  1.3990 -0.1967  1.7198
   8623SM   C6S11480   3.184   1.903   4.185  0.3748 -0.8273  0.5294
   8623SM   H6S11481   3.215   2.010   4.189 -1.2078 -0.1964 -1.8330
   8623SM   H6T11482   3.260   1.836   4.138  0.4309 -1.2969  1.2800
   8623SM   C7S11483   3.169   1.868   4.334 -0.6033 -0.2049  0.3189
   8623SM   H7S11484   3.273   1.866   4.373 -0.2013 -2.3357 -0.6719
   8623SM   H7T11485   3.119   1.770   4.353  1.3884 -1.0688  1.4081
   8623SM   C8S11486   3.088   1.974   4.410  0.0561  0.0375 -0.1278
   8623SM   H8S11487   2.980   1.980   4.387 -0.0619 -0.1896  0.3596
   8623SM   H8T11488   3.125   2.077   4.389 -0.5272  0.8055  2.3300
   8623SM   C9S11489   3.100   1.948   4.560  0.3605 -0.8142  0.4215
   8623SM   H9S11490   3.068   2.040   4.614 -0.8929 -2.2975  2.3116
   8623SM   H9T11491   3.205   1.932   4.592 -0.0588 -0.9312  1.8055
   8623SM  C10S11492   3.024   1.823   4.606 -0.1297 -0.4796  0.0110
   8623SM  H10S11493   3.032   1.739   4.535  1.0984  0.0030 -0.4491
   8623SM  H10T11494   2.916   1.847   4.619 -0.0292  1.3778 -1.9224
   8623SM  C11S11495   3.081   1.780   4.743 -0.2422 -0.0458 -0.1736
   8623SM  H11S11496   3.192   1.788   4.740 -0.2425 -0.2506 -1.4447
   8623SM  H11T11497   3.059   1.675   4.772  0.9294 -0.5428 -1.0015
   8623SM  C12S11498   3.030   1.863   4.861  0.1849 -0.3354 -0.2157
   8623SM  H12S11499   2.924   1.836   4.880 -0.1284  0.6628 -0.4599
   8623SM  H12T11500   3.039   1.968   4.825  0.9670  0.3314  1.8138
   8623SM  C13S11501   3.108   1.848   4.993  0.2569 -0.6402 -0.4874
   8623SM  H13S11502   3.215   1.847   4.965  0.2528 -0.7530 -0.5006
   8623SM  H13T11503   3.093   1.751   5.046  1.3888 -0.4637  0.1922
   8623SM  C14S11504   3.081   1.972   5.088 -0.3460 -0.3173  0.1268
   8623SM  H14S11505   2.974   1.978   5.119 -0.0190  0.5236  1.1414
   8623SM  H14T11506   3.096   2.068   5.035  2.0130 -0.6520  0.0821
   8623SM  C15S11507   3.166   1.988   5.216 -0.5367 -0.5827  0.4703
   8623SM  H15S11508   3.276   1.994   5.198 -0.6757  2.0475 -0.0091
   8623SM  H15T11509   3.145   1.896   5.275 -1.1938 -1.1555 -0.6379
   8623SM  C16S11510   3.123   2.109   5.303  0.2153  0.4779 -0.3011
   8623SM  H16S11511   3.012   2.106   5.314 -0.0794  0.6384 -2.7816
   8623SM  H16T11512   3.153   2.191   5.235 -3.1365  1.4795 -0.7478
   8623SM  C17S11513   3.177   2.113   5.447 -0.7137  0.1990 -0.4866
   8623SM  H17S11514   3.151   2.208   5.499 -1.3240 -0.2765  0.1084
   8623SM  H17T11515   3.287   2.105   5.437 -0.8835 -0.5787 -1.9870
   8623SM  C18S11516   3.116   1.998   5.538  0.0544  0.0951  0.2319
   8623SM  H18S11517   3.005   2.008   5.543  0.2171  1.3564  2.8388
   8623SM  H18T11518   3.161   2.013   5.638  0.1967  2.6487 -0.1597
   8623SM  H18U11519   3.144   1.897   5.502 -0.9063 -0.8637  1.9991
   8623SM   C1F11520   2.599   1.977   4.201  0.9670  0.0502 -0.7318
   8623SM    OF11521   2.509   1.891   4.181  0.3559 -0.4880  0.5935
   8623SM   C2F11522   2.612   2.047   4.338 -0.0303  0.2970 -0.0729
   8623SM   H2F11523   2.559   2.145   4.327 -1.6684 -0.4028  1.1459
   8623SM   H2G11524   2.721   2.058   4.351  0.1377 -1.6543  0.3993
   8623SM   C3F11525   2.550   1.975   4.456 -0.0224 -0.3616 -0.0794
   8623SM   H3F11526   2.593   1.873   4.464  1.2916  0.2863  1.7913
   8623SM   H3G11527   2.441   1.977   4.436  0.3368  2.6717 -2.1989
   8623SM   C4F11528   2.579   2.049   4.588 -0.3137 -0.6551 -0.1661
   8623SM   H4F11529   2.510   2.135   4.596 -0.9186 -1.1722  0.1991
   8623SM   H4G11530   2.682   2.087   4.571 -0.5714  0.5894  0.8482
   8623SM   C5F11531   2.562   1.965   4.714  0.7548  0.0681 -0.4432
   8623SM   H5F11532   2.582   2.023   4.807  0.9204 -1.6653  0.6359
   8623SM   H5G11533   2.631   1.878   4.705 -0.7494 -1.0199 -1.9883
   8623SM   C6F11534   2.424   1.911   4.737  0.4866 -0.2638 -0.2725
   8623SM   H6F11535   2.395   1.834   4.662 -0.7208 -0.8491  0.7467
   8623SM   H6G11536   2.347   1.991   4.728  1.5374  0.7134 -0.9036
   8623SM   C7F11537   2.408   1.839   4.866 -0.1999  0.0391  0.1970
   8623SM   H7F11538   2.490   1.764   4.862  1.8082  2.1722 -0.8740
   8623SM   H7G11539   2.312   1.783   4.860 -0.5769  0.7497 -0.7361
   8623SM   C8F11540   2.438   1.906   5.004 -0.5119 -0.2843  0.4333
   8623SM   H8F11541   2.544   1.913   5.034 -1.1625  0.1395  2.9094
   8623SM   H8G11542   2.386   1.847   5.083  0.7898  0.1193  1.6376
   8623SM   C9F11543   2.368   2.040   5.016  0.6951 -0.6656 -0.5023
   8623SM   H9F11544   2.258   2.039   5.007  0.4158  0.0520  2.0471
   8623SM   H9G11545   2.413   2.106   4.939  0.0140  0.8708  0.3594
   8623SM  C10F11546   2.400   2.100   5.160  0.1521 -0.4146  0.0044
   8623SM  H10F11547   2.352   2.035   5.236 -0.3390  0.6259  0.6052
   8623SM  H10G11548   2.349   2.198   5.167 -1.7698 -1.4239  0.8596
   8623SM  C11F11549   2.542   2.127   5.199 -0.1986  0.2413 -0.1726
   8623SM  H11F11550   2.592   2.199   5.131  3.8421 -1.5456  0.6277
   8623SM  H11G11551   2.601   2.033   5.198 -0.6853 -0.1097  1.5150
   8623SM  C12F11552   2.550   2.177   5.344 -0.2337  0.1433 -0.1596
   8623SM  H12F11553   2.657   2.205   5.353  0.0503 -0.8766 -0.2277
   8623SM  H12G11554   2.532   2.098   5.420  1.3981  1.5016  1.7238
   8623SM  C13F11555   2.466   2.295   5.390  0.0342  0.0766  0.1005
   8623SM  H13F11556   2.357   2.277   5.374 -0.4172 -1.4514  3.8190
   8623SM  H13G11557   2.498   2.376   5.321  2.5926 -0.1422  0.9359
   8623SM  C14F11558   2.486   2.339   5.535  0.4245 -0.8618 -0.2715
   8623SM  H14F11559   2.488   2.249   5.599 -1.9204 -1.5075 -1.0343
   8623SM  H14G11560   2.408   2.404   5.581  0.4979 -0.1411 -1.1256
   8623SM  C15F11561   2.616   2.424   5.565 -0.0249 -0.0654  0.5056
   8623SM  H15F11562   2.619   2.518   5.506 -1.0462 -0.7922 -0.7394
   8623SM  H15G11563   2.699   2.353   5.546  1.0750  1.5141 -0.9408
   8623SM  C16F11564   2.636   2.478   5.709 -0.4513  0.8590  0.5396
   8623SM  H16F11565   2.556   2.547   5.742 -0.9004  0.7265 -0.2619
   8623SM  H16G11566   2.729   2.539   5.719 -0.2586  0.8855 -1.0883
   8623SM  C17F11567   2.645   2.373   5.819  0.7735 -0.0244 -0.3782
   8623SM  H17F11568   2.708   2.283   5.806 -4.1409 -3.9524 -0.1665
   8623SM  H17G11569   2.546   2.323   5.827  1.5163 -1.4885 -0.0252
   8623SM  C18F11570   2.673   2.438   5.957  0.2949 -0.4827 -0.2522
   8623SM  H18F11571   2.590   2.499   5.999  0.0359 -0.5090 -0.7277
   8623SM  H18G11572   2.758   2.509   5.952 -1.2086  1.5918  1.6764
   8623SM  C19F11573   2.714   2.341   6.071  0.2776  0.7390 -0.4974
   8623SM  H19F11574   2.740   2.389   6.168 -1.8738 -0.4512  0.7485
   8623SM  H19G11575   2.804   2.291   6.030  1.7175  1.4814  1.5703
   8623SM  C20F11576   2.609   2.237   6.108 -0.1840 -0.2786  0.0922
   8623SM  H20F11577   2.663   2.163   6.171 -0.2440 -0.5061 -0.1210
   8623SM  H20G11578   2.565   2.180   6.024 -1.4270 -0.1181  0.6046
   8623SM  C21F11579   2.495   2.296   6.200 -0.0087 -0.3682  0.7122
   8623SM  H21F11580   2.419   2.218   6.221 -0.4125 -0.0458  0.4553
   8623SM  H21G11581   2.446   2.374   6.139  2.5599  0.3979 -0.5285
   8623SM  C22F11582   2.541   2.347   6.338  1.0797 -0.5186 -0.9198
   8623SM  H22F11583   2.448   2.380   6.388  1.8021  1.1212 -0.5694
   8623SM  H22G11584   2.590   2.446   6.323  0.6819 -0.2778 -0.6536
   8623SM  C23F11585   2.621   2.253   6.435  0.0643  0.5424 -0.4030
   8623SM  H23F11586   2.647   2.297   6.534  1.5282 -2.2802  0.5982
   8623SM  H23G11587   2.719   2.238   6.385  1.2874  1.7143  1.4942
   8623SM  H23H11588   2.581   2.152   6.459  1.4104  0.5613  2.4021
   8723SM     N11589   3.686   1.036   3.340  0.4833 -0.1964  0.1869
   8723SM   C1511590   3.552   1.070   3.279 -0.5454 -0.1858  0.4634
   8723SM  H15A11591   3.479   0.992   3.294 -0.7978 -0.1425 -0.4702
   8723SM  H15B11592   3.552   1.106   3.177  0.3176  0.2891  0.6148
   8723SM  H15C11593   3.518   1.157   3.332 -0.9358 -2.0421  3.4899
   8723SM   C1411594   3.695   0.885   3.337  0.0436  0.0565 -0.3729
   8723SM  H14A11595   3.776   0.852   3.399  0.7938 -1.2402 -1.9444
   8723SM  H14B11596   3.713   0.853   3.235 -3.6582 -2.3165 -0.4763
   8723SM  H14C11597   3.604   0.838   3.372  0.3829 -1.7073 -1.6764
   8723SM   C1311598   3.797   1.105   3.276  0.0778 -0.0094  0.0219
   8723SM  H13A11599   3.806   1.078   3.171  0.2353  5.2779 -1.6347
   8723SM  H13B11600   3.893   1.105   3.327  0.6526  0.0601 -1.0179
   8723SM  H13C11601   3.786   1.212   3.264  0.7831  0.5055  3.1416
   8723SM   C1211602   3.675   1.080   3.488 -0.0715 -0.0817 -0.2355
   8723SM  H12A11603   3.744   1.023   3.548  0.6276  1.0855  0.0944
   8723SM  H12B11604   3.576   1.050   3.521 -1.0917  0.8119 -2.3099
   8723SM   C1111605   3.691   1.237   3.532  0.5734  0.2587 -0.0241
   8723SM  H11A11606   3.800   1.253   3.538  0.5975  0.4560 -0.8826
   8723SM  H11B11607   3.647   1.237   3.634 -0.4286 -1.9811 -0.3820
   8723SM     P11608   3.482   1.388   3.459 -0.1220 -0.1016 -0.1233
   8723SM   O1311609   3.478   1.536   3.460 -0.7826 -0.0280 -0.0318
   8723SM   O1411610   3.408   1.313   3.354  0.6133  0.0795  0.1046
   8723SM   O1111611   3.440   1.341   3.602 -0.0445 -0.3960 -0.1535
   8723SM   O1211612   3.635   1.342   3.454 -0.1208 -0.1627 -0.0084
   8723SM   C1S11613   3.322   1.406   3.659  0.1262 -0.3225  0.2765
   8723SM   H1S11614   3.231   1.362   3.613 -1.2239  0.9604  1.6296
   8723SM   H1T11615   3.316   1.516   3.646 -0.1232 -0.3242  0.3659
   8723SM    NF11616   3.187   1.458   3.862  0.3817  0.1227 -0.0188
   8723SM   HNF11617   3.189   1.557   3.858 -1.7318  0.1595 -1.3181
   8723SM   C2S11618   3.310   1.381   3.811  0.0333 -0.7702  0.0261
   8723SM   H2S11619   3.304   1.271   3.817  1.2123 -0.8529 -0.1236
   8723SM   C3S11620   3.438   1.408   3.898 -0.4778 -0.0403  0.4218
   8723SM   H3S11621   3.459   1.517   3.899 -0.4721 -0.0424  1.3457
   8723SM    O311622   3.561   1.357   3.832  0.3061  0.1854  0.0712
   8723SM   HO311623   3.536   1.340   3.741 -0.9557  2.9653 -0.2284
   8723SM   C4S11624   3.430   1.366   4.042  0.1147 -0.2066 -0.1479
   8723SM   H4S11625   3.397   1.261   4.052  2.2021 -0.8499  0.6191
   8723SM   C5S11626   3.457   1.445   4.147  0.9981  0.1903  0.2664
   8723SM   H5S11627   3.474   1.553   4.128  2.0358  0.2461  1.3764
   8723SM   C6S11628   3.435   1.416   4.292  0.2134 -0.1528  0.1374
   8723SM   H6S11629   3.536   1.427   4.337  0.1968 -0.6296  0.3050
   8723SM   H6T11630   3.392   1.315   4.311  0.2082 -0.1931 -0.0824
   8723SM   C7S11631   3.325   1.508   4.354  0.2726 -0.4917  0.3305
   8723SM   H7S11632   3.228   1.491   4.304 -0.0436  1.8572  0.0010
   8723SM   H7T11633   3.353   1.613   4.331 -2.8802 -0.2647 -3.4580
   8723SM   C8S11634   3.306   1.473   4.506  0.1363  0.0122  0.3983
   8723SM   H8S11635   3.236   1.550   4.544 -1.1844 -1.1621  0.4462
   8723SM   H8T11636   3.405   1.497   4.549 -0.1756 -0.5580  1.4680
   8723SM   C9S11637   3.258   1.328   4.525 -0.4180 -0.0309  0.4114
   8723SM   H9S11638   3.328   1.252   4.485 -1.3832 -0.3199 -0.7858
   8723SM   H9T11639   3.161   1.328   4.471 -0.3220 -1.6722  0.1957
   8723SM  C10S11640   3.242   1.287   4.672  0.2600  0.2797 -0.0233
   8723SM  H10S11641   3.343   1.269   4.716  0.2484  0.7435  0.1885
   8723SM  H10T11642   3.194   1.187   4.671 -1.7802  1.2221 -0.3736
   8723SM  C11S11643   3.160   1.378   4.763 -0.5104 -0.0285 -0.1831
   8723SM  H11S11644   3.052   1.387   4.738 -0.3314  1.1774 -0.5855
   8723SM  H11T11645   3.200   1.481   4.751 -2.3039  0.7884  0.5223
   8723SM  C12S11646   3.169   1.312   4.902 -0.5340  0.2726  0.0900
   8723SM  H12S11647   3.278   1.297   4.917 -0.4440  0.4664 -0.3858
   8723SM  H12T11648   3.119   1.214   4.921  1.3274 -0.5175  1.2214
   8723SM  C13S11649   3.120   1.406   5.018  0.0464  0.2618 -1.0689
   8723SM  H13S11650   3.010   1.404   5.009  0.0633 -0.2462 -1.1626
   8723SM  H13T11651   3.151   1.512   4.999  1.3359 -0.0519 -0.8544
   8723SM  C14S11652   3.153   1.364   5.157 -0.1615 -0.4104  0.6991
   8723SM  H14S11653   3.262   1.343   5.162 -0.5274 -2.9914 -0.5166
   8723SM  H14T11654   3.093   1.273   5.176 -0.6765 -0.5770 -1.4523
   8723SM  C15S11655   3.119   1.484   5.245 -0.0143  0.1683 -0.5871
   8723SM  H15S11656   3.009   1.496   5.252 -0.0028 -0.2773  0.5320
   8723SM  H15T11657   3.161   1.584   5.220  1.0956 -0.3097 -0.6998
   8723SM  C16S11658   3.158   1.451   5.398 -0.1566 -0.0126 -0.0165
   8723SM  H16S11659   3.266   1.472   5.415  0.1221 -0.7025 -0.8833
   8723SM  H16T11660   3.140   1.344   5.421 -0.7611  0.3353  1.2155
   8723SM  C17S11661   3.081   1.529   5.503  0.0150 -0.5515 -0.0084
   8723SM  H17S11662   2.978   1.489   5.518 -0.4183  0.8395  0.9047
   8723SM  H17T11663   3.066   1.632   5.465  1.3221 -0.5155 -0.4849
   8723SM  C18S11664   3.143   1.539   5.639 -0.0835  0.5202 -0.3349
   8723SM  H18S11665   3.076   1.594   5.709  0.1469  2.0900 -1.2902
   8723SM  H18T11666   3.233   1.604   5.637  1.1804 -1.1426  0.5665
   8723SM  H18U11667   3.170   1.439   5.677  2.9159  2.0808  2.0719
   8723SM   C1F11668   3.069   1.396   3.827 -0.0276  0.2782  0.1537
   8723SM    OF11669   3.067   1.281   3.792 -0.5561  0.5070  0.2895
   8723SM   C2F11670   2.951   1.479   3.814  0.7258  0.0715 -0.3685
   8723SM   H2F11671   2.899   1.461   3.718 -0.4016  4.2756 -0.7483
   8723SM   H2G11672   2.984   1.585   3.804 -0.1452  0.5393  1.3211
   8723SM   C3F11673   2.872   1.449   3.941 -0.0820 -0.2141  0.0960
   8723SM   H3F11674   2.828   1.347   3.931  0.6170 -0.4176 -1.0222
   8723SM   H3G11675   2.786   1.518   3.935 -0.4482 -0.6387  0.3468
   8723SM   C4F11676   2.940   1.469   4.076  0.1690  0.1826  0.3483
   8723SM   H4F11677   3.022   1.543   4.061 -0.1027  0.4653  0.2586
   8723SM   H4G11678   2.992   1.374   4.103  0.2162 -0.7841 -2.7520
   8723SM   C5F11679   2.847   1.513   4.184 -0.4902 -0.2557  0.0572
   8723SM   H5F11680   2.751   1.458   4.177 -0.7871  0.4199 -1.7504
   8723SM   H5G11681   2.810   1.616   4.168 -2.0393 -1.1171 -2.4855
   8723SM   C6F11682   2.901   1.489   4.335  0.6322  0.0553  0.5171
   8723SM   H6F11683   2.995   1.547   4.344 -0.2073  1.3471  1.1557
   8723SM   H6G11684   2.923   1.380   4.340 -0.6136 -0.1617  2.2914
   8723SM   C7F11685   2.789   1.535   4.434  0.3231  0.0418  0.1271
   8723SM   H7F11686   2.693   1.489   4.402 -0.0729  0.7570  0.2421
   8723SM   H7G11687   2.768   1.644   4.431 -4.5812 -0.6913 -0.2232
   8723SM   C8F11688   2.825   1.486   4.573 -0.1045 -0.5974 -0.0778
   8723SM   H8F11689   2.916   1.539   4.606 -1.6047  0.9385  1.8598
   8723SM   H8G11690   2.844   1.377   4.559  1.6771 -0.7787  2.9226
   8723SM   C9F11691   2.719   1.513   4.683  0.0350  0.1171 -0.0559
   8723SM   H9F11692   2.649   1.427   4.690  2.2109 -1.6243  2.3352
   8723SM   H9G11693   2.667   1.601   4.640 -1.3236 -0.2044  0.8376
   8723SM  C10F11694   2.788   1.559   4.814 -0.2118 -0.2359 -0.2986
   8723SM  H10F11695   2.815   1.665   4.791 -0.6348 -0.0308  0.1359
   8723SM  H10G11696   2.887   1.513   4.833 -0.8704 -1.0963  1.2768
   8723SM  C11F11697   2.692   1.567   4.934 -0.5279 -0.3579 -0.2123
   8723SM  H11F11698   2.682   1.466   4.979 -0.7902  0.6138  2.0332
   8723SM  H11G11699   2.594   1.599   4.892 -0.7099  0.7315  0.9765
   8723SM  C12F11700   2.744   1.665   5.045 -0.2331  0.4859  0.3301
   8723SM  H12F11701   2.755   1.772   5.017  3.1105  0.7984  2.3224
   8723SM  H12G11702   2.848   1.640   5.072  0.5182  0.6359 -2.2000
   8723SM  C13F11703   2.665   1.664   5.171  0.4281  0.1877  0.0216
   8723SM  H13F11704   2.646   1.561   5.207  0.5994  0.3251  0.5079
   8723SM  H13G11705   2.564   1.705   5.149  0.2199  0.7752  1.9034
   8723SM  C14F11706   2.733   1.748   5.273 -0.3910  0.3321  0.0955
   8723SM  H14F11707   2.751   1.845   5.222 -1.8987 -1.5128 -4.4555
   8723SM  H14G11708   2.836   1.712   5.291  0.3029  1.9670 -0.4444
   8723SM  C15F11709   2.652   1.769   5.400 -0.1333 -0.7805  1.1673
   8723SM  H15F11710   2.615   1.673   5.442 -0.0521 -0.9284  0.9059
   8723SM  H15G11711   2.566   1.836   5.381  0.1776 -0.7648 -0.3508
   8723SM  C16F11712   2.730   1.824   5.514 -0.3754  0.5527 -0.0132
   8723SM  H16F11713   2.772   1.921   5.479  0.0019 -0.0704 -1.3598
   8723SM  H16G11714   2.816   1.758   5.537 -0.7206  0.2294  0.3666
   8723SM  C17F11715   2.644   1.841   5.636  0.3467  0.4258  0.2164
   8723SM  H17F11716   2.571   1.760   5.655  1.1841 -0.3324  0.2383
   8723SM  H17G11717   2.586   1.936   5.634  0.5338  0.5938  1.5888
   8723SM  C18F11718   2.724   1.853   5.767 -0.0176 -0.4142  0.1739
   8723SM  H18F11719   2.777   1.757   5.782 -1.9331 -1.5300  0.1096
   8723SM  H18G11720   2.645   1.871   5.843 -0.4975  0.4952 -0.5153
   8723SM  C19F11721   2.810   1.979   5.771  0.1560 -0.3074  0.3239
   8723SM  H19F11722   2.742   2.067   5.779  3.5006  2.6137 -0.7870
   8723SM  H19G11723   2.867   1.983   5.676 -0.7544 -0.9733 -0.2733
   8723SM  C20F11724   2.900   1.984   5.890 -0.7095 -0.0850  1.0705
   8723SM  H20F11725   2.953   2.080   5.877  0.7165 -0.8556  0.9892
   8723SM  H20G11726   2.979   1.909   5.870  0.5321  0.8059  2.4847
   8723SM  C21F11727   2.845   1.961   6.027 -0.2425 -0.6000 -0.0570
   8723SM  H21F11728   2.821   1.855   6.045 -0.9767 -0.2207  1.3264
   8723SM  H21G11729   2.766   2.032   6.059  0.1910 -0.4224  0.6447
   8723SM  C22F11730   2.935   1.995   6.144 -0.5546 -0.4980 -0.2247
   8723SM  H22F11731   3.004   1.908   6.147  2.3024  1.5635 -0.9783
   8723SM  H22G11732   2.882   2.005   6.241  2.4510 -0.9049  1.5694
   8723SM  C23F11733   3.024   2.118   6.122  0.6941  0.6336  0.5527
   8723SM  H23F11734   3.095   2.115   6.037  0.0120  1.3687 -0.0606
   8723SM  H23G11735   3.090   2.130   6.210  1.0843  1.7157  0.1175
   8723SM  H23H11736   2.962   2.210   6.122 -3.0501 -1.6549 -0.5179
   8823SM     N11737   0.628   1.865   3.892  0.6496  0.5379 -0.2701
   8823SM   C1511738   0.612   2.014   3.903  0.5247  0.2468  0.6124
   8823SM  H15A11739   0.650   2.048   3.808  0.3959  2.5656  1.3271
   8823SM  H15B11740   0.672   2.054   3.983 -0.6661 -0.5338  1.9342
   8823SM  H15C11741   0.509   2.044   3.911  0.4082 -0.0427  0.2018
   8823SM   C1411742   0.561   1.790   4.006  0.5296 -0.3317  0.8474
   8823SM  H14A11743   0.586   1.686   3.987 -2.2461 -0.7006 -1.6328
   8823SM  H14B11744   0.455   1.807   3.993  0.5623 -1.3070 -1.1499
   8823SM  H14C11745   0.592   1.815   4.106  2.7434 -0.7270  0.3124
   8823SM   C1311746   0.560   1.817   3.769 -0.4970  0.2794  1.0980
   8823SM  H13A11747   0.564   1.891   3.690 -2.4799 -0.8527 -0.1656
   8823SM  H13B11748   0.453   1.800   3.777 -1.3950  3.0180 -2.4932
   8823SM  H13C11749   0.600   1.726   3.727 -0.7114  0.6156  0.1563
   8823SM   C1211750   0.777   1.819   3.896  0.3279 -0.1544 -0.5843
   8823SM  H12A11751   0.830   1.872   3.818  2.5414 -0.1167  0.8316
   8823SM  H12B11752   0.783   1.714   3.869  0.3794 -0.5628  0.9171
   8823SM   C1111753   0.864   1.840   4.022 -0.2670 -0.8942  0.0949
   8823SM  H11A11754   0.966   1.798   4.019  0.0613 -0.1034 -0.3405
   8823SM  H11B11755   0.819   1.780   4.104  1.4873 -1.4717  0.6785
   8823SM     P11756   0.970   2.071   3.971 -0.2859 -0.0936 -0.2160
   8823SM   O1311757   1.019   2.001   3.852  0.1585 -0.7048  0.1532
   8823SM   O1411758   0.911   2.203   3.947  0.1408  0.3947 -0.7206
   8823SM   O1111759   1.091   2.088   4.069 -0.1558  0.3145  0.3014
   8823SM   O1211760   0.873   1.980   4.060 -0.2359  0.7129 -0.0576
   8823SM   C1S11761   1.087   2.118   4.201  0.0427  0.1697  0.1149
   8823SM   H1S11762   0.995   2.177   4.221  0.4296  0.2087  1.9556
   8823SM   H1T11763   1.178   2.179   4.217 -0.3405  0.6316  0.5312
   8823SM    NF11764   1.082   2.049   4.434  0.2332 -0.3400 -0.0196
   8823SM   HNF11765   1.165   2.047   4.489 -0.3157 -1.0507  0.7989
   8823SM   C2S11766   1.087   1.995   4.301  0.6321  0.3146 -0.5929
   8823SM   H2S11767   0.993   1.942   4.276 -0.3222  1.9815 -0.6923
   8823SM   C3S11768   1.214   1.894   4.272  0.7537 -0.2087  0.7711
   8823SM   H3S11769   1.305   1.953   4.294  0.9893 -0.2742  0.0214
   8823SM    O311770   1.218   1.860   4.134 -0.2283  0.8115  0.3943
   8823SM   HO311771   1.144   1.908   4.097  0.3698  0.1383 -1.8080
   8823SM   C4S11772   1.220   1.781   4.360 -0.2349  0.0426  0.1024
   8823SM   H4S11773   1.299   1.785   4.436 -1.5089 -1.1465  1.5526
   8823SM   C5S11774   1.149   1.670   4.357  0.8067 -0.0621  0.2325
   8823SM   H5S11775   1.070   1.653   4.281  0.2173 -1.7289  1.1768
   8823SM   C6S11776   1.181   1.552   4.441 -0.0857 -0.3897 -0.5369
   8823SM   H6S11777   1.224   1.469   4.381  0.8900 -0.1824 -0.1520
   8823SM   H6T11778   1.095   1.504   4.493  1.6702 -1.3844  1.6735
   8823SM   C7S11779   1.289   1.563   4.562  0.2163  0.0524  0.0735
   8823SM   H7S11780   1.387   1.600   4.525  0.2746 -1.2198 -1.1277
   8823SM   H7T11781   1.310   1.460   4.598 -0.8478  0.5761  2.4178
   8823SM   C8S11782   1.235   1.632   4.684  0.1312  0.1574 -0.4187
   8823SM   H8S11783   1.144   1.585   4.725 -0.5119  2.4297  0.9188
   8823SM   H8T11784   1.203   1.736   4.661  0.3965  0.0883 -1.1333
   8823SM   C9S11785   1.355   1.618   4.785 -0.7185  0.2908 -0.1639
   8823SM   H9S11786   1.434   1.682   4.741  1.0891 -1.8858 -0.2764
   8823SM   H9T11787   1.375   1.509   4.796 -2.7212 -0.0883  0.0905
   8823SM  C10S11788   1.333   1.682   4.924 -0.2196  0.6582 -0.6630
   8823SM  H10S11789   1.244   1.642   4.977 -0.6101  0.9822 -1.0620
   8823SM  H10T11790   1.311   1.789   4.904 -2.1895  0.3942 -0.0754
   8823SM  C11S11791   1.464   1.667   5.014 -0.6611 -0.6617  0.0994
   8823SM  H11S11792   1.557   1.689   4.957 -0.8141 -2.0696 -0.7491
   8823SM  H11T11793   1.466   1.558   5.037 -1.1541 -0.5351  0.7548
   8823SM  C12S11794   1.454   1.748   5.140  0.2661 -0.2481 -0.4621
   8823SM  H12S11795   1.357   1.736   5.194  1.6819  0.7671  2.5079
   8823SM  H12T11796   1.464   1.856   5.118 -2.4378  0.1089 -0.2934
   8823SM  C13S11797   1.560   1.704   5.235  0.0245  0.4662 -0.6997
   8823SM  H13S11798   1.660   1.709   5.186  0.9615  1.7415  1.2270
   8823SM  H13T11799   1.545   1.600   5.272 -0.3325  0.3870 -1.0650
   8823SM  C14S11800   1.572   1.806   5.350 -0.0009  0.2822 -0.1494
   8823SM  H14S11801   1.473   1.810   5.400 -0.4639  2.5603 -1.1001
   8823SM  H14T11802   1.593   1.910   5.316  0.7985  0.1058 -0.2148
   8823SM  C15S11803   1.669   1.762   5.459 -0.1032 -0.3891  0.2655
   8823SM  H15S11804   1.773   1.760   5.418 -1.3326  0.6397 -3.2622
   8823SM  H15T11805   1.633   1.667   5.503  1.9607 -0.7630  1.3206
   8823SM  C16S11806   1.656   1.870   5.566 -0.7311 -0.1082 -0.9147
   8823SM  H16S11807   1.553   1.861   5.606 -1.0493 -3.9067 -2.1567
   8823SM  H16T11808   1.678   1.967   5.517 -0.0332  0.1538 -0.1058
   8823SM  C17S11809   1.755   1.864   5.681 -0.1705 -0.1620 -0.1684
   8823SM  H17S11810   1.858   1.855   5.640 -0.2209 -2.3340  0.0607
   8823SM  H17T11811   1.732   1.760   5.714 -1.8066  0.3867  0.5139
   8823SM  C18S11812   1.734   1.965   5.793 -0.3710  0.2891  0.2107
   8823SM  H18S11813   1.629   2.000   5.803 -0.0717  0.8896  1.4818
   8823SM  H18T11814   1.793   2.055   5.766 -1.2526  1.0859  0.8565
   8823SM  H18U11815   1.764   1.922   5.891 -2.2759 -0.0627  0.6704
   8823SM   C1F11816   0.966   2.101   4.471  0.1294  0.5783  0.6244
   8823SM    OF11817   0.867   2.107   4.396  0.0818  0.5613 -0.8365
   8823SM   C2F11818   0.955   2.144   4.613  0.2002 -0.9245 -0.0401
   8823SM   H2F11819   0.848   2.147   4.645  0.1097  3.4044 -0.2253
   8823SM   H2G11820   0.969   2.254   4.611  0.6776 -0.9876 -0.9978
   8823SM   C3F11821   1.036   2.046   4.711  1.0012 -0.1035 -0.6210
   8823SM   H3F11822   1.142   2.054   4.677  1.0439  0.8934 -0.2743
   8823SM   H3G11823   0.996   1.945   4.687 -0.6960  0.2489  0.5454
   8823SM   C4F11824   1.013   2.080   4.859  0.0360 -1.2652  0.7585
   8823SM   H4F11825   0.913   2.043   4.890  0.7462 -1.0341  3.5871
   8823SM   H4G11826   1.017   2.190   4.872 -2.8614 -0.9399 -0.4068
   8823SM   C5F11827   1.105   2.002   4.950 -0.3801  0.1153 -0.4932
   8823SM   H5F11828   1.207   2.044   4.941 -0.4905  0.9113  1.4056
   8823SM   H5G11829   1.105   1.892   4.934 -2.3206 -0.2668  1.5393
   8823SM   C6F11830   1.067   2.024   5.099  0.1599 -0.1596 -0.4476
   8823SM   H6F11831   0.990   1.949   5.124 -0.5494  0.9225  0.7582
   8823SM   H6G11832   1.029   2.128   5.112  0.9890  0.2014 -0.8212
   8823SM   C7F11833   1.186   2.015   5.195 -0.1783 -0.0382 -0.5865
   8823SM   H7F11834   1.233   2.114   5.212 -0.3902 -0.3103  1.9306
   8823SM   H7G11835   1.269   1.952   5.157  1.0655 -0.2750  2.2775
   8823SM   C8F11836   1.141   1.962   5.326  0.0983 -0.1338 -0.1528
   8823SM   H8F11837   1.225   1.960   5.400 -0.9659 -3.4058  1.1246
   8823SM   H8G11838   1.121   1.855   5.305 -2.0807  0.5155 -1.7416
   8823SM   C9F11839   1.019   2.038   5.376 -0.1718  0.0581  0.1059
   8823SM   H9F11840   0.925   2.015   5.320 -0.1743  0.5211 -0.0845
   8823SM   H9G11841   1.048   2.144   5.361 -0.0457 -0.2794 -2.4970
   8823SM  C10F11842   0.998   1.989   5.518  0.1580  0.1056  0.1527
   8823SM  H10F11843   1.094   2.004   5.573 -0.1887  1.1241  0.5096
   8823SM  H10G11844   0.972   1.882   5.504 -0.0293  0.5656 -4.2346
   8823SM  C11F11845   0.887   2.073   5.593 -0.0290  1.3558 -0.4414
   8823SM  H11F11846   0.801   2.087   5.524  0.0094 -1.5958 -1.2310
   8823SM  H11G11847   0.944   2.165   5.618  1.5751  0.3450 -0.2452
   8823SM  C12F11848   0.843   1.997   5.721  0.1669  0.2644 -0.3102
   8823SM  H12F11849   0.935   1.943   5.751  0.9411  1.3016 -0.7731
   8823SM  H12G11850   0.760   1.927   5.698  1.0137 -2.0301  2.8746
   8823SM  C13F11851   0.815   2.088   5.833  0.0580  0.1956  0.1621
   8823SM  H13F11852   0.743   2.169   5.809 -0.4882 -0.6381 -1.1460
   8823SM  H13G11853   0.913   2.139   5.845  0.4683 -0.3259 -0.7932
   8823SM  C14F11854   0.769   2.007   5.954  0.4444  0.0355  0.2224
   8823SM  H14F11855   0.851   1.941   5.992 -0.0487 -0.9396 -0.3667
   8823SM  H14G11856   0.682   1.941   5.936  0.8774 -1.3560  2.7776
   8823SM  C15F11857   0.712   2.098   6.070  0.3207  0.0151 -0.5593
   8823SM  H15F11858   0.621   2.144   6.027 -0.5805 -0.6097  0.6205
   8823SM  H15G11859   0.779   2.178   6.107 -1.5239  1.4086 -0.0900
   8823SM  C16F11860   0.664   2.025   6.196  0.5485  0.5960  0.0841
   8823SM  H16F11861   0.601   1.942   6.155  1.3069  1.6197 -3.5559
   8823SM  H16G11862   0.606   2.098   6.257 -0.3873  0.0423 -0.1205
   8823SM  C17F11863   0.773   1.961   6.280 -0.2289  0.4938 -0.1985
   8823SM  H17F11864   0.845   1.917   6.208 -2.0560 -0.7686 -1.3554
   8823SM  H17G11865   0.720   1.878   6.331 -0.4489  0.0108 -1.1874
   8823SM  C18F11866   0.835   2.059   6.378  0.6113 -0.2697  0.0834
   8823SM  H18F11867   0.751   2.109   6.432  1.4969  0.0329  1.2082
   8823SM  H18G11868   0.891   2.137   6.322 -1.0634  1.7346  1.0621
   8823SM  C19F11869   0.931   1.990   6.478  0.4843  0.9439 -0.2670
   8823SM  H19F11870   0.889   1.931   6.563 -0.7318 -0.1468 -1.5592
   8823SM  H19G11871   0.999   2.067   6.519  2.0801  0.4539 -1.8406
   8823SM  C20F11872   1.032   1.891   6.425  0.1272  0.5896 -0.8736
   8823SM  H20F11873   1.099   1.940   6.352 -0.1055 -2.1831 -3.1311
   8823SM  H20G11874   0.979   1.814   6.365  0.1799 -0.8913  0.8930
   8823SM  C21F11875   1.102   1.814   6.546  0.0945 -1.0290  0.4398
   8823SM  H21F11876   1.021   1.775   6.611 -0.1510 -0.0048  0.7669
   8823SM  H21G11877   1.176   1.878   6.598  1.2338 -1.5801 -0.4670
   8823SM  C22F11878   1.173   1.690   6.498  0.0358  0.4254  0.0021
   8823SM  H22F11879   1.225   1.724   6.406 -2.1373 -1.1742 -1.9337
   8823SM  H22G11880   1.097   1.617   6.462  2.0744 -2.3003  0.8615
   8823SM  C23F11881   1.264   1.623   6.603  0.2080 -0.9871 -0.0593
   8823SM  H23F11882   1.349   1.692   6.622  0.1825  0.0883 -3.3289
   8823SM  H23G11883   1.300   1.526   6.561  1.6067  0.6768 -2.9959
   8823SM  H23H11884   1.200   1.598   6.691  2.7239 -0.1162  2.1487
   8923SM     N11885   5.671   1.443   3.164  0.3254  0.3245 -0.4452
   8923SM   C1511886   5.799   1.505   3.225  0.5335 -0.0346  0.2783
   8923SM  H15A11887   5.890   1.490   3.169  1.9180  1.5728  1.9880
   8923SM  H15B11888   5.825   1.466   3.322  0.4428  0.2191  0.4052
   8923SM  H15C11889   5.775   1.608   3.245  2.1075  0.3178  0.4652
   8923SM   C1411890   5.685   1.467   3.013 -0.7050  0.0885 -0.2597
   8923SM  H14A11891   5.785   1.436   2.987 -0.1181 -0.7853  2.6149
   8923SM  H14B11892   5.689   1.573   2.992  1.4643  0.4032  1.3197
   8923SM  H14C11893   5.619   1.409   2.951  0.3189 -1.0728 -0.3085
   8923SM   C1311894   5.659   1.294   3.184  0.6553 -0.3728  0.7050
   8923SM  H13A11895   5.751   1.248   3.151 -0.6200 -0.7195 -2.7620
   8923SM  H13B11896   5.572   1.254   3.136 -0.3931  1.6297  0.8220
   8923SM  H13C11897   5.650   1.258   3.286  1.2685 -3.2303 -0.1732
   8923SM   C1211898   5.554   1.515   3.225  0.1388  0.0129  0.2233
   8923SM  H12A11899   5.472   1.474   3.168 -2.2065  3.1427  1.0431
   8923SM  H12B11900   5.564   1.621   3.207  2.4647 -0.0904  0.6535
   8923SM   C1111901   5.511   1.496   3.374 -0.5667  0.0797 -0.1308
   8923SM  H11A11902   5.457   1.399   3.377 -2.5301  1.1266  0.3158
   8923SM  H11B11903   5.429   1.569   3.393 -0.3229 -0.0800  1.6844
   8923SM     P11904   5.630   1.624   3.571 -0.0085  0.0084 -0.0691
   8923SM   O1311905   5.721   1.584   3.680 -0.5416 -0.2400 -0.1663
   8923SM   O1411906   5.639   1.759   3.505  0.2366  0.3918 -0.1199
   8923SM   O1111907   5.479   1.611   3.627  0.5483 -0.0443  0.1391
   8923SM   O1211908   5.626   1.504   3.465  0.6981 -0.0152  0.2024
   8923SM   C1S11909   5.467   1.525   3.744 -0.1009 -0.2512 -0.4817
   8923SM   H1S11910   5.541   1.547   3.824 -0.7822 -1.2005  0.4373
   8923SM   H1T11911   5.486   1.417   3.725 -1.2269 -0.8598  1.5083
   8923SM    NF11912   5.331   1.510   3.951 -0.1108 -0.0327 -0.0872
   8923SM   HNF11913   5.323   1.413   3.974  1.5099 -0.4264 -1.0630
   8923SM   C2S11914   5.331   1.548   3.807 -0.6398  0.0689 -0.7454
   8923SM   H2S11915   5.301   1.655   3.803  0.1453  0.2958 -0.7578
   8923SM   C3S11916   5.240   1.466   3.714  0.8060 -0.3144  0.0510
   8923SM   H3S11917   5.258   1.358   3.734 -0.0313 -0.4838 -0.0680
   8923SM    O311918   5.243   1.498   3.575 -0.1213 -0.3599 -0.7325
   8923SM   HO311919   5.334   1.527   3.568  0.8838 -2.1426  2.5612
   8923SM   C4S11920   5.096   1.490   3.761  0.6532  0.3438 -0.7526
   8923SM   H4S11921   5.064   1.391   3.798 -0.7770  0.4981 -1.5184
   8923SM   C5S11922   5.008   1.589   3.731  0.5131 -0.3609 -0.0338
   8923SM   H5S11923   5.022   1.666   3.654 -3.7940  1.2464  0.5295
   8923SM   C6S11924   4.866   1.592   3.778  0.3900  0.3542  0.4964
   8923SM   H6S11925   4.794   1.574   3.695  1.0154  0.9715 -0.2056
   8923SM   H6T11926   4.843   1.692   3.821 -0.5263  0.4271 -0.1343
   8923SM   C7S11927   4.836   1.483   3.884 -0.0457 -0.3955 -0.3861
   8923SM   H7S11928   4.858   1.380   3.850 -1.8251 -0.4631 -1.4779
   8923SM   H7T11929   4.727   1.476   3.906  0.0500 -1.9035 -0.3120
   8923SM   C8S11930   4.898   1.522   4.018 -0.4671 -0.3732  0.1518
   8923SM   H8S11931   4.861   1.627   4.028  0.1445  0.0240 -1.4554
   8923SM   H8T11932   5.007   1.518   4.000 -0.4693 -2.3055  0.3601
   8923SM   C9S11933   4.851   1.440   4.137  0.2335  0.2736  0.4086
   8923SM   H9S11934   4.878   1.333   4.120 -2.3064 -0.2683 -0.6829
   8923SM   H9T11935   4.741   1.442   4.147  0.1402  1.6645 -0.6040
   8923SM  C10S11936   4.908   1.481   4.268 -0.6394 -0.2067 -0.1531
   8923SM  H10S11937   4.902   1.592   4.277 -0.3741 -0.1418 -0.7377
   8923SM  H10T11938   5.014   1.448   4.273 -0.2608  0.9551 -0.1848
   8923SM  C11S11939   4.832   1.426   4.388  0.0882  0.2122 -0.2420
   8923SM  H11S11940   4.841   1.315   4.388  2.0443  0.3382 -1.3047
   8923SM  H11T11941   4.724   1.453   4.390 -0.0041 -0.0849 -0.7946
   8923SM  C12S11942   4.902   1.472   4.515  0.0499  0.6790  0.5199
   8923SM  H12S11943   4.904   1.583   4.526  2.2343  0.6839  0.5220
   8923SM  H12T11944   5.006   1.435   4.509 -0.4809 -0.8011 -0.0863
   8923SM  C13S11945   4.816   1.431   4.645  0.2542  0.4437  0.0761
   8923SM  H13S11946   4.809   1.320   4.650  0.1671  0.4962  1.6314
   8923SM  H13T11947   4.718   1.474   4.615  0.0301 -0.6954 -0.8802
   8923SM  C14S11948   4.870   1.489   4.775 -0.1953  0.2230  0.2476
   8923SM  H14S11949   4.910   1.591   4.757  0.5341 -0.4147 -2.1392
   8923SM  H14T11950   4.961   1.431   4.802  1.0188  2.0013  0.1705
   8923SM  C15S11951   4.773   1.478   4.897 -0.1231 -0.5302 -0.0293
   8923SM  H15S11952   4.740   1.372   4.905 -3.2844  0.4361  1.3928
   8923SM  H15T11953   4.684   1.543   4.883  0.7790  0.6149 -0.5715
   8923SM  C16S11954   4.841   1.517   5.032 -0.1467  0.1972  0.1315
   8923SM  H16S11955   4.887   1.618   5.028  1.3601 -0.3774  1.7212
   8923SM  H16T11956   4.926   1.446   5.038 -0.6822 -0.4487  0.1791
   8923SM  C17S11957   4.746   1.510   5.152 -0.4488  0.4778  0.2269
   8923SM  H17S11958   4.703   1.408   5.142 -1.1370  0.7047  0.7913
   8923SM  H17T11959   4.658   1.577   5.155 -1.2947 -0.4715 -1.5723
   8923SM  C18S11960   4.819   1.520   5.294 -1.1839 -0.7489 -0.3890
   8923SM  H18S11961   4.904   1.591   5.295  0.7283 -2.8833 -1.3778
   8923SM  H18T11962   4.876   1.427   5.317 -0.7604 -0.0665  1.5254
   8923SM  H18U11963   4.745   1.540   5.374 -1.0435  1.5616 -0.7690
   8923SM   C1F11964   5.378   1.597   4.042 -0.2600  0.0514  1.1037
   8923SM    OF11965   5.412   1.709   4.008  0.4586 -0.1188 -0.1685
   8923SM   C2F11966   5.391   1.545   4.183 -0.3162 -0.5177 -0.2599
   8923SM   H2F11967   5.499   1.536   4.206 -0.8783  2.1355  4.7489
   8923SM   H2G11968   5.335   1.449   4.189 -1.3437  0.1614  1.9100
   8923SM   C3F11969   5.343   1.635   4.288  0.0136  0.1831  0.2722
   8923SM   H3F11970   5.238   1.664   4.266 -0.0833 -0.5973 -0.3339
   8923SM   H3G11971   5.399   1.730   4.304 -1.4668  1.2067 -0.3803
   8923SM   C4F11972   5.349   1.566   4.432 -0.1350  0.1255 -0.2156
   8923SM   H4F11973   5.450   1.530   4.459 -0.3852 -1.6605 -1.4794
   8923SM   H4G11974   5.278   1.481   4.423 -1.5921  1.2737  0.0490
   8923SM   C5F11975   5.307   1.666   4.538 -0.5292 -0.5781 -0.1432
   8923SM   H5F11976   5.206   1.711   4.522  0.5116  1.5599 -1.0727
   8923SM   H5G11977   5.388   1.741   4.547 -0.7380 -0.2827 -0.6957
   8923SM   C6F11978   5.298   1.599   4.679  0.5996 -0.1768  0.1252
   8923SM   H6F11979   5.386   1.533   4.699  1.7529  0.9140 -1.1006
   8923SM   H6G11980   5.204   1.540   4.679  1.1182 -1.1830 -2.7423
   8923SM   C7F11981   5.265   1.700   4.783 -0.2601  0.1241 -0.3809
   8923SM   H7F11982   5.176   1.753   4.741 -2.5264 -2.9483  0.1714
   8923SM   H7G11983   5.350   1.771   4.790  0.0414 -0.2424 -0.2800
   8923SM   C8F11984   5.225   1.636   4.917  0.0051  0.1597  0.3791
   8923SM   H8F11985   5.305   1.564   4.946 -1.3126 -1.1312  0.9491
   8923SM   H8G11986   5.133   1.574   4.915  0.8326 -1.1213  0.4990
   8923SM   C9F11987   5.227   1.743   5.026 -0.7120 -0.4460 -0.1691
   8923SM   H9F11988   5.141   1.813   5.018 -0.3044  0.3137  1.6560
   8923SM   H9G11989   5.322   1.800   5.019 -0.5560 -0.7648 -0.6793
   8923SM  C10F11990   5.226   1.678   5.170 -0.0423 -0.0894 -0.1508
   8923SM  H10F11991   5.310   1.605   5.170 -1.9911 -2.4995 -1.4881
   8923SM  H10G11992   5.131   1.621   5.179  0.3671 -0.8726 -0.6747
   8923SM  C11F11993   5.249   1.776   5.286  0.7945 -0.6409  0.3592
   8923SM  H11F11994   5.158   1.839   5.294  0.3170 -0.5048 -4.0094
   8923SM  H11G11995   5.342   1.836   5.282 -0.5503  1.5096 -0.9244
   8923SM  C12F11996   5.250   1.715   5.425 -0.1546  0.2710 -0.0815
   8923SM  H12F11997   5.340   1.652   5.442  2.3832  2.7723 -3.0490
   8923SM  H12G11998   5.157   1.657   5.441 -1.7449  2.1638 -1.9708
   8923SM  C13F11999   5.252   1.822   5.531  0.7099 -0.4681 -0.8204
   8923SM  H13F12000   5.165   1.890   5.528  1.1677  0.0978 -2.1784
   8923SM  H13G12001   5.343   1.886   5.523 -0.6521  1.5402 -1.1084
   8923SM  C14F12002   5.265   1.773   5.676  0.5727 -0.3805  0.8575
   8923SM  H14F12003   5.333   1.685   5.674  0.5685 -0.3837 -0.7943
   8923SM  H14G12004   5.169   1.726   5.707 -0.1976 -0.2389 -1.1381
   8923SM  C15F12005   5.311   1.885   5.762 -0.6679 -0.2568 -0.2928
   8923SM  H15F12006   5.239   1.967   5.746 -0.5612 -0.2031 -0.4939
   8923SM  H15G12007   5.409   1.925   5.731 -1.5097  1.5156 -0.7675
   8923SM  C16F12008   5.301   1.853   5.908  0.1543  0.5324 -0.2299
   8923SM  H16F12009   5.345   1.930   5.974 -0.7623 -1.0271  2.3268
   8923SM  H16G12010   5.352   1.757   5.931 -0.5240  0.0962 -0.5004
   8923SM  C17F12011   5.154   1.844   5.962 -0.3288 -0.4652  0.2515
   8923SM  H17F12012   5.096   1.758   5.924  0.5180 -1.6112  1.4519
   8923SM  H17G12013   5.102   1.942   5.960  2.2903  1.0574  1.6826
   8923SM  C18F12014   5.167   1.821   6.124 -0.1529 -0.7403  0.5122
   8923SM  H18F12015   5.225   1.909   6.159 -3.3207  1.2245  1.2283
   8923SM  H18G12016   5.216   1.721   6.125  0.6845 -0.3539 -0.4728
   8923SM  C19F12017   5.030   1.820   6.191  0.3506  0.3451  0.2422
   8923SM  H19F12018   5.050   1.756   6.279 -3.3263 -0.9028  0.3427
   8923SM  H19G12019   4.944   1.773   6.138  0.2487 -1.0863  1.6327
   8923SM  C20F12020   4.984   1.955   6.250 -0.2351  0.2256  0.2124
   8923SM  H20F12021   5.074   2.012   6.280  1.1236 -1.1108 -1.1452
   8923SM  H20G12022   4.933   1.919   6.342  3.4402 -2.1638  1.5294
   8923SM  C21F12023   4.879   2.026   6.170  0.4968  0.4270  0.3309
   8923SM  H21F12024   4.788   1.966   6.149 -1.2935  3.2222 -0.5257
   8923SM  H21G12025   4.937   2.026   6.075 -0.6172  2.4753 -0.4096
   8923SM  C22F12026   4.848   2.163   6.228 -0.2316 -0.2501  0.0510
   8923SM  H22F12027   4.821   2.148   6.335 -0.2314 -0.3626  0.0359
   8923SM  H22G12028   4.756   2.206   6.184 -0.6155  1.0347  1.9670
   8923SM  C23F12029   4.965   2.266   6.218  0.3355 -0.6873 -0.0635
   8923SM  H23F12030   4.940   2.352   6.283 -0.0839 -1.1540  0.4022
   8923SM  H23G12031   4.971   2.310   6.116  1.5736  3.4329  1.5865
   8923SM  H23H12032   5.060   2.222   6.256  1.8267  2.8147  0.6870
   9023SM     N12033   5.133   1.148   3.378 -0.2777  0.3899  0.5458
   9023SM   C1512034   5.065   1.108   3.252  0.4194  0.6848  0.4823
   9023SM  H15A12035   4.979   1.043   3.266 -0.0336  0.6008 -2.1429
   9023SM  H15B12036   5.136   1.070   3.181  0.8642  4.2464 -1.2393
   9023SM  H15C12037   5.027   1.196   3.201 -0.5765 -0.6017 -1.0988
   9023SM   C1412038   5.267   1.199   3.338  0.7646 -0.1048  0.4096
   9023SM  H14A12039   5.267   1.306   3.321 -0.8639  0.0576  1.2077
   9023SM  H14B12040   5.305   1.151   3.249 -2.1776 -0.8804 -0.5459
   9023SM  H14C12041   5.336   1.197   3.421 -0.6359  4.1696  1.9425
   9023SM   C1312042   5.048   1.250   3.442  0.3605  0.6431 -0.1741
   9023SM  H13A12043   4.945   1.217   3.447 -0.1017  1.9275 -0.7534
   9023SM  H13B12044   5.062   1.346   3.394 -0.4122  0.5804 -0.5412
   9023SM  H13C12045   5.081   1.262   3.544  1.7296 -0.4012 -0.4692
   9023SM   C1212046   5.147   1.024   3.473  0.3818  0.0411  0.1283
   9023SM  H12A12047   5.203   0.950   3.419  0.0791  0.4537 -0.7911
   9023SM  H12B12048   5.059   0.963   3.489  0.6291 -0.4586 -0.3904
   9023SM   C1112049   5.215   1.048   3.611  0.1552 -0.2447 -1.0237
   9023SM  H11A12050   5.308   1.106   3.596  0.8465 -1.1896 -0.4803
   9023SM  H11B12051   5.250   0.951   3.654  0.2181  0.8152  1.4814
   9023SM     P12052   5.003   1.065   3.767  0.3661  0.0326 -0.1196
   9023SM   O1312053   4.879   1.117   3.704 -0.5943 -0.1421 -0.9997
   9023SM   O1412054   5.038   0.918   3.774 -0.2116 -0.2707 -0.4135
   9023SM   O1112055   5.023   1.132   3.914  0.3807 -0.2166  0.4950
   9023SM   O1212056   5.127   1.126   3.694  0.1222  0.2639 -0.1048
   9023SM   C1S12057   5.153   1.093   3.974 -0.0756  0.3750 -0.5167
   9023SM   H1S12058   5.233   1.156   3.928 -0.4556 -0.8911 -3.0934
   9023SM   H1T12059   5.185   0.987   3.971 -1.0146  0.0443  0.5563
   9023SM    NF12060   5.301   1.108   4.177 -0.1251  0.0082 -0.2807
   9023SM   HNF12061   5.314   1.030   4.238 -0.0005 -1.9261 -2.6378
   9023SM   C2S12062   5.164   1.127   4.124 -0.7835 -0.1173 -0.4364
   9023SM   H2S12063   5.150   1.237   4.121 -0.4488 -0.0602 -0.0994
   9023SM   C3S12064   5.053   1.063   4.209  0.6729 -0.0325 -0.6117
   9023SM   H3S12065   5.067   0.953   4.199  0.7339  0.0762 -1.8661
   9023SM    O312066   4.923   1.104   4.166  0.4631  0.1579 -0.5022
   9023SM   HO312067   4.938   1.128   4.074  0.3214  1.6675 -0.1560
   9023SM   C4S12068   5.078   1.114   4.352  0.4665 -0.1898 -0.8927
   9023SM   H4S12069   5.046   1.215   4.382  1.5146 -0.5947  1.9777
   9023SM   C5S12070   5.120   1.029   4.448 -0.6080 -0.4448 -0.0836
   9023SM   H5S12071   5.117   0.922   4.423  0.7810 -0.5603  0.1373
   9023SM   C6S12072   5.149   1.064   4.593 -0.1746  0.4393  0.3924
   9023SM   H6S12073   5.254   1.027   4.599 -0.7418 -2.1075 -2.7890
   9023SM   H6T12074   5.098   0.998   4.666 -0.9202  0.8391  0.2404
   9023SM   C7S12075   5.135   1.209   4.640  0.1471  0.0301  0.2167
   9023SM   H7S12076   5.026   1.228   4.638 -0.0553 -0.5937  2.5909
   9023SM   H7T12077   5.182   1.278   4.567 -1.5340  0.1151 -0.8327
   9023SM   C8S12078   5.186   1.235   4.782 -0.4871 -0.6897  0.1957
   9023SM   H8S12079   5.140   1.327   4.824  4.1374  1.7648  0.5806
   9023SM   H8T12080   5.295   1.257   4.784 -0.7709  0.8990 -0.2761
   9023SM   C9S12081   5.176   1.112   4.877  0.4012  0.4401  0.5534
   9023SM   H9S12082   5.243   1.035   4.832 -0.5631 -0.7558  1.1242
   9023SM   H9T12083   5.068   1.087   4.878  0.0051  2.0389  1.2431
   9023SM  C10S12084   5.216   1.125   5.021 -0.2768  1.0008  0.0893
   9023SM  H10S12085   5.165   1.203   5.082  0.1968  1.8681 -0.5971
   9023SM  H10T12086   5.320   1.163   5.026 -0.1133  0.7069 -0.8273
   9023SM  C11S12087   5.207   0.987   5.090 -0.0043 -0.2469 -0.2740
   9023SM  H11S12088   5.291   0.946   5.030  1.2263  0.7363  0.7054
   9023SM  H11T12089   5.113   0.930   5.080 -1.2394  1.6115  0.3319
   9023SM  C12S12090   5.234   0.992   5.240 -0.4621 -0.4573  0.0796
   9023SM  H12S12091   5.324   1.055   5.257 -1.9615  1.4815  1.3000
   9023SM  H12T12092   5.268   0.891   5.272 -2.8490 -1.6309 -0.8609
   9023SM  C13S12093   5.118   1.043   5.322  0.2846 -0.1921 -0.1355
   9023SM  H13S12094   5.037   0.967   5.324 -0.3983  0.5463  0.3281
   9023SM  H13T12095   5.061   1.124   5.273  1.0577 -0.6425 -1.8555
   9023SM  C14S12096   5.167   1.076   5.464  0.3695 -0.0677 -0.2571
   9023SM  H14S12097   5.268   1.120   5.450 -0.2125  1.1582 -0.7408
   9023SM  H14T12098   5.180   0.985   5.526  1.7862 -0.5272 -1.1749
   9023SM  C15S12099   5.081   1.182   5.541  0.2281 -1.0046 -0.3356
   9023SM  H15S12100   4.978   1.142   5.541 -0.8544  1.4823  1.6752
   9023SM  H15T12101   5.088   1.279   5.488  1.1533 -0.9609 -0.1624
   9023SM  C16S12102   5.142   1.183   5.684 -0.0469  0.2821  0.2896
   9023SM  H16S12103   5.248   1.205   5.660  0.5877 -1.4891  1.2425
   9023SM  H16T12104   5.146   1.083   5.732 -0.5204  0.1402  0.0356
   9023SM  C17S12105   5.094   1.300   5.766  0.5243  0.1278 -0.0171
   9023SM  H17S12106   5.121   1.283   5.872  2.6004 -1.6961 -0.7601
   9023SM  H17T12107   4.983   1.294   5.757  0.2850  3.3962 -0.3222
   9023SM  C18S12108   5.147   1.435   5.718  0.3071 -0.1386  0.2477
   9023SM  H18S12109   5.137   1.448   5.608  1.5423  0.2408  0.1706
   9023SM  H18T12110   5.252   1.452   5.748  0.0922  0.4116  0.7160
   9023SM  H18U12111   5.093   1.522   5.763  1.1064  1.2950 -1.4285
   9023SM   C1F12112   5.414   1.150   4.125  0.3145  0.3128 -0.2452
   9023SM    OF12113   5.416   1.236   4.041 -0.7291 -0.0275  0.3476
   9023SM   C2F12114   5.538   1.092   4.180 -0.0231 -0.1643  0.5460
   9023SM   H2F12115   5.604   1.083   4.091  0.6935 -3.1323  1.2627
   9023SM   H2G12116   5.513   0.991   4.220 -0.4195 -0.5011 -0.5223
   9023SM   C3F12117   5.627   1.167   4.284 -0.1023  0.2284  0.4337
   9023SM   H3F12118   5.690   1.247   4.240 -0.3204 -1.5707 -3.5076
   9023SM   H3G12119   5.708   1.096   4.311 -0.5188 -1.4118 -2.3185
   9023SM   C4F12120   5.541   1.198   4.410  0.0065 -0.0128 -0.3526
   9023SM   H4F12121   5.500   1.098   4.439  0.6050 -1.1288 -3.0378
   9023SM   H4G12122   5.463   1.273   4.387 -0.8377 -1.0406 -0.9324
   9023SM   C5F12123   5.633   1.257   4.513  0.0167 -0.5915 -0.1040
   9023SM   H5F12124   5.677   1.351   4.474  0.9650 -0.0527  2.1047
   9023SM   H5G12125   5.717   1.185   4.515 -1.0284 -2.0038 -2.4282
   9023SM   C6F12126   5.557   1.272   4.646  0.0615 -0.6749 -0.0351
   9023SM   H6F12127   5.485   1.189   4.657  1.3083 -1.5836  1.7491
   9023SM   H6G12128   5.496   1.364   4.634 -0.6895 -1.1753 -0.0923
   9023SM   C7F12129   5.636   1.279   4.776 -0.2007  0.4893 -0.0066
   9023SM   H7F12130   5.706   1.365   4.775  0.0472  0.3822  2.6084
   9023SM   H7G12131   5.682   1.178   4.788 -0.4272  0.1585 -1.6261
   9023SM   C8F12132   5.549   1.285   4.900  0.2801 -0.7171 -0.1353
   9023SM   H8F12133   5.492   1.193   4.924 -3.4770  2.0461  2.6647
   9023SM   H8G12134   5.483   1.373   4.884  2.1847  1.2551  2.1446
   9023SM   C9F12135   5.631   1.319   5.029  0.2783 -0.0434  0.5611
   9023SM   H9F12136   5.710   1.390   4.996 -1.0695  2.2023  1.9164
   9023SM   H9G12137   5.681   1.222   5.052 -2.3234 -1.5684  0.1948
   9023SM  C10F12138   5.550   1.366   5.148  0.1495  0.4309 -0.0127
   9023SM  H10F12139   5.464   1.299   5.166 -0.7450  1.0964 -1.6238
   9023SM  H10G12140   5.515   1.469   5.126 -1.1085 -0.4658 -2.5643
   9023SM  C11F12141   5.627   1.362   5.280 -0.1215  0.2986 -0.4303
   9023SM  H11F12142   5.725   1.413   5.268  0.5249 -0.6440  0.6604
   9023SM  H11G12143   5.656   1.258   5.306  2.5966  1.1356  0.1614
   9023SM  C12F12144   5.553   1.412   5.402 -0.0944 -0.3414 -0.2480
   9023SM  H12F12145   5.451   1.367   5.402  0.6011 -2.1750 -2.3907
   9023SM  H12G12146   5.542   1.522   5.390  0.1064 -0.1223  1.4080
   9023SM  C13F12147   5.636   1.395   5.531  0.0041 -0.7604  0.0167
   9023SM  H13F12148   5.737   1.440   5.537 -0.7575  0.8991  1.2811
   9023SM  H13G12149   5.647   1.285   5.526  0.7704 -0.7365  0.9137
   9023SM  C14F12150   5.551   1.415   5.658 -0.7100  0.2366  0.6590
   9023SM  H14F12151   5.598   1.354   5.739  0.5074 -0.5499 -0.5967
   9023SM  H14G12152   5.447   1.397   5.622 -0.7340  1.1315  0.2555
   9023SM  C15F12153   5.561   1.558   5.703  0.2724 -0.5446  0.1789
   9023SM  H15F12154   5.481   1.592   5.772  0.5609  0.5144  0.0068
   9023SM  H15G12155   5.549   1.628   5.618 -1.2603  0.6950  1.3382
   9023SM  C16F12156   5.693   1.588   5.760 -0.3265 -0.5626 -1.4304
   9023SM  H16F12157   5.779   1.606   5.692 -0.2388 -0.4620 -1.2939
   9023SM  H16G12158   5.732   1.500   5.815  0.3872 -0.5365 -1.8911
   9023SM  C17F12159   5.687   1.707   5.856 -0.3025 -0.1192 -0.5668
   9023SM  H17F12160   5.604   1.704   5.930  1.6386  1.4149  1.8442
   9023SM  H17G12161   5.680   1.795   5.789 -0.7800 -0.6074 -1.1686
   9023SM  C18F12162   5.815   1.751   5.934 -0.5255  0.5417 -0.5707
   9023SM  H18F12163   5.836   1.856   5.964  2.3181 -0.1642  0.1825
   9023SM  H18G12164   5.900   1.718   5.870 -0.2016  0.5801 -0.1650
   9023SM  C19F12165   5.815   1.671   6.060  0.3142 -0.3096 -0.1072
   9023SM  H19F12166   5.914   1.666   6.110  0.1487 -2.5718  0.1043
   9023SM  H19G12167   5.787   1.565   6.040  0.1701 -0.2920  0.0002
   9023SM  C20F12168   5.723   1.729   6.163  0.0267  0.0914 -0.1560
   9023SM  H20F12169   5.623   1.704   6.121 -0.0834 -1.5443  0.9493
   9023SM  H20G12170   5.735   1.839   6.165 -0.9272  0.2124  1.8784
   9023SM  C21F12171   5.727   1.676   6.308 -0.8591 -0.3105 -0.2548
   9023SM  H21F12172   5.722   1.565   6.312 -0.2082 -0.3839 -1.1699
   9023SM  H21G12173   5.638   1.721   6.358  0.8682  0.3897  2.3643
   9023SM  C22F12174   5.864   1.702   6.373  0.4096 -0.3096 -0.3911
   9023SM  H22F12175   5.886   1.811   6.374  0.2707 -0.2352 -2.4361
   9023SM  H22G12176   5.948   1.660   6.314  0.7264  0.5220 -0.5471
   9023SM  C23F12177   5.873   1.672   6.517 -0.5612  0.1552  0.3400
   9023SM  H23F12178   5.811   1.733   6.586  0.1312  1.1648  0.0929
   9023SM  H23G12179   5.979   1.675   6.550 -0.8384  1.4289  1.1594
   9023SM  H23H12180   5.841   1.566   6.525 -0.5165  0.0173 -1.0485
   9123SM     N12181   5.251   4.357   3.210  0.1379  0.6136 -0.5297
   9123SM   C1512182   5.231   4.460   3.315 -0.2014 -0.7239 -0.4008
   9123SM  H15A12183   5.280   4.553   3.288  0.3560 -0.4055  1.5441
   9123SM  H15B12184   5.262   4.428   3.413  2.7244  0.0497 -0.9708
   9123SM  H15C12185   5.130   4.497   3.323  0.8412  2.6101 -0.9821
   9123SM   C1412186   5.197   4.415   3.080 -0.4041  0.2355  0.1007
   9123SM  H14A12187   5.205   4.342   3.000  0.3409  2.5945 -2.1174
   9123SM  H14B12188   5.248   4.506   3.052  2.7372 -0.8353  1.8820
   9123SM  H14C12189   5.090   4.432   3.088 -0.6633 -1.6373  1.1851
   9123SM   C1312190   5.400   4.327   3.223  0.3537 -0.9939 -0.1680
   9123SM  H13A12191   5.419   4.239   3.163 -1.2983 -0.9839 -0.7526
   9123SM  H13B12192   5.424   4.302   3.325 -2.2565 -1.9836  0.2770
   9123SM  H13C12193   5.462   4.409   3.189 -1.4666  0.0572 -1.1098
   9123SM   C1212194   5.169   4.224   3.229  0.2895  0.3664 -0.0440
   9123SM  H12A12195   5.188   4.160   3.145  0.3997  1.6660 -1.0413
   9123SM  H12B12196   5.066   4.253   3.215  0.0774 -0.1364  0.4200
   9123SM   C1112197   5.187   4.132   3.355  0.7854  0.3267  0.6869
   9123SM  H11A12198   5.103   4.059   3.352  1.5916 -0.6262  0.7001
   9123SM  H11B12199   5.177   4.183   3.453  0.5970 -1.4181  1.6119
   9123SM     P12200   5.321   3.920   3.280  0.0628  0.2684 -0.2146
   9123SM   O1312201   5.207   3.916   3.184  0.2790  0.3221 -0.5453
   9123SM   O1412202   5.455   3.899   3.216 -0.7146 -0.7180  0.0174
   9123SM   O1112203   5.290   3.818   3.393  0.2713  0.0577 -0.0888
   9123SM   O1212204   5.313   4.062   3.346  0.2370 -0.1429 -0.6847
   9123SM   C1S12205   5.350   3.820   3.525  0.3068  0.3771 -0.2218
   9123SM   H1S12206   5.458   3.847   3.526  0.8824 -1.6728  1.0406
   9123SM   H1T12207   5.358   3.714   3.559  1.9817  0.7966  0.8147
   9123SM    NF12208   5.339   3.888   3.773  0.0316  0.8622 -0.6688
   9123SM   HNF12209   5.314   3.807   3.826  0.1795  0.1946 -1.5942
   9123SM   C2S12210   5.274   3.900   3.648  1.9454 -0.1789 -0.0800
   9123SM   H2S12211   5.276   4.007   3.621  2.4502 -0.0766  0.3459
   9123SM   C3S12212   5.118   3.853   3.650  0.1302  0.1984 -0.5353
   9123SM   H3S12213   5.107   3.747   3.684  1.2335 -0.0896 -1.0220
   9123SM    O312214   5.066   3.834   3.519 -0.0761  0.2198 -0.4721
   9123SM   HO312215   5.139   3.841   3.458 -1.0534 -1.6177 -1.9533
   9123SM   C4S12216   5.028   3.946   3.729 -0.4715  0.5501 -0.5028
   9123SM   H4S12217   5.012   4.044   3.682 -0.4457  0.8890  0.1748
   9123SM   C5S12218   4.955   3.914   3.834  1.0762 -0.1542  0.3575
   9123SM   H5S12219   4.933   3.811   3.866  0.2385 -1.4013 -3.6587
   9123SM   C6S12220   4.873   4.021   3.897 -0.2661 -0.4029 -0.0410
   9123SM   H6S12221   4.767   3.994   3.918  0.0747 -1.3150  0.5597
   9123SM   H6T12222   4.856   4.100   3.821 -0.8873 -0.1433  0.3604
   9123SM   C7S12223   4.947   4.080   4.024 -0.5050 -0.5273 -0.1636
   9123SM   H7S12224   5.044   4.131   4.002 -0.1337 -1.4861 -0.8195
   9123SM   H7T12225   4.973   3.999   4.096  1.0485 -0.9854 -1.1884
   9123SM   C8S12226   4.866   4.185   4.094  0.5452  0.2675  0.0205
   9123SM   H8S12227   4.766   4.142   4.117  0.8689 -0.2066  0.5570
   9123SM   H8T12228   4.844   4.267   4.022 -0.3716 -0.2213 -0.2722
   9123SM   C9S12229   4.932   4.243   4.220  0.1827 -0.8524  0.6410
   9123SM   H9S12230   4.879   4.336   4.247  1.1026 -0.1990  0.2649
   9123SM   H9T12231   5.035   4.267   4.184 -1.7030  0.5690 -4.7831
   9123SM  C10S12232   4.939   4.148   4.345 -0.0470 -0.3002 -0.3334
   9123SM  H10S12233   5.023   4.076   4.354 -1.0254 -1.5174 -0.7683
   9123SM  H10T12234   4.850   4.085   4.329  0.2580 -0.8528  0.1008
   9123SM  C11S12235   4.938   4.233   4.474 -0.1650 -0.2797  0.3772
   9123SM  H11S12236   4.855   4.305   4.464 -0.5133 -0.9617 -3.3625
   9123SM  H11T12237   5.033   4.289   4.486 -1.5626  2.6592 -1.1031
   9123SM  C12S12238   4.924   4.152   4.601 -0.0609  0.2380 -0.1489
   9123SM  H12S12239   4.993   4.065   4.591 -0.5816  0.0624 -3.2424
   9123SM  H12T12240   4.819   4.117   4.609  0.2218 -0.5131  0.5647
   9123SM  C13S12241   4.950   4.238   4.725  0.2411 -0.1675  0.2645
   9123SM  H13S12242   4.882   4.326   4.732 -0.0299 -0.2253 -1.1702
   9123SM  H13T12243   5.054   4.277   4.720  0.6842 -1.1512  1.4158
   9123SM  C14S12244   4.937   4.146   4.843 -0.0382 -0.0491 -0.0144
   9123SM  H14S12245   5.016   4.070   4.826 -0.2962 -0.1704 -0.7127
   9123SM  H14T12246   4.836   4.100   4.848 -0.7553  1.5715  1.4495
   9123SM  C15S12247   4.965   4.219   4.978 -0.3692 -0.2613 -0.2334
   9123SM  H15S12248   5.053   4.285   4.966  0.7368 -1.7455 -0.4629
   9123SM  H15T12249   5.004   4.151   5.056  0.3492  1.8562  1.3411
   9123SM  C16S12250   4.846   4.294   5.034  0.3935  0.1366 -0.9366
   9123SM  H16S12251   4.816   4.380   4.971  1.8710  1.8933  0.6485
   9123SM  H16T12252   4.862   4.335   5.136 -1.9803 -0.3247 -0.3122
   9123SM  C17S12253   4.721   4.213   5.067 -0.3309 -0.4473  0.5795
   9123SM  H17S12254   4.676   4.174   4.973  0.3428  1.2661 -0.4910
   9123SM  H17T12255   4.648   4.285   5.109  0.6783  0.8748  0.1236
   9123SM  C18S12256   4.733   4.099   5.166  1.1620 -0.2890  0.1823
   9123SM  H18S12257   4.757   4.142   5.266  0.8482  1.4017 -0.4362
   9123SM  H18T12258   4.802   4.021   5.128 -1.2477 -2.2948 -0.3602
   9123SM  H18U12259   4.632   4.056   5.183  1.3159  0.0115  2.0522
   9123SM   C1F12260   5.462   3.941   3.791  0.8646  0.2545 -0.3415
   9123SM    OF12261   5.502   4.028   3.717 -0.0463  0.6669  0.4980
   9123SM   C2F12262   5.540   3.892   3.915  0.1186  0.2252  0.1807
   9123SM   H2F12263   5.568   3.791   3.879 -2.7283 -0.6824  0.3352
   9123SM   H2G12264   5.466   3.871   3.995 -0.0415 -0.5110 -0.1568
   9123SM   C3F12265   5.657   3.978   3.955  0.4605  0.0143  0.2955
   9123SM   H3F12266   5.614   4.069   4.002  0.5019 -0.4522  1.2419
   9123SM   H3G12267   5.710   4.016   3.865  0.8870  0.3704  0.6964
   9123SM   C4F12268   5.750   3.907   4.051  0.2046  0.2570  0.3487
   9123SM   H4F12269   5.780   3.810   4.007  0.6997  0.6203 -0.1287
   9123SM   H4G12270   5.700   3.874   4.144 -0.5287 -1.4160 -0.5831
   9123SM   C5F12271   5.875   3.992   4.090 -0.2065 -0.3209  0.5638
   9123SM   H5F12272   5.919   4.021   3.992 -1.2119  1.1395  0.5118
   9123SM   H5G12273   5.944   3.920   4.138  0.1051 -0.4922 -0.1285
   9123SM   C6F12274   5.852   4.108   4.179  1.1274 -0.2441 -0.4323
   9123SM   H6F12275   5.782   4.173   4.122  0.8380 -1.1875 -1.1702
   9123SM   H6G12276   5.951   4.159   4.182  1.4451 -0.8574  2.3496
   9123SM   C7F12277   5.801   4.059   4.318  0.2008 -0.3567  0.0070
   9123SM   H7F12278   5.871   3.983   4.358 -1.4659 -1.7453  0.3596
   9123SM   H7G12279   5.700   4.014   4.315  0.5393 -1.2630  1.2641
   9123SM   C8F12280   5.814   4.174   4.422 -0.5878 -0.0951  0.4344
   9123SM   H8F12281   5.755   4.265   4.400  0.2644  0.4028  0.1671
   9123SM   H8G12282   5.921   4.205   4.427 -0.6213 -0.0044  0.5950
   9123SM   C9F12283   5.772   4.131   4.564  0.8465 -0.0732  0.5588
   9123SM   H9F12284   5.830   4.038   4.582 -1.8512 -2.1834 -0.8009
   9123SM   H9G12285   5.666   4.100   4.573  1.4050 -2.1214  0.5509
   9123SM  C10F12286   5.827   4.229   4.665  0.4312  0.0879 -0.3398
   9123SM  H10F12287   5.790   4.331   4.641 -0.1998  0.1448  0.8070
   9123SM  H10G12288   5.936   4.242   4.646  0.2347  1.2342 -0.7930
   9123SM  C11F12289   5.815   4.177   4.803  0.3248  1.2572 -0.1267
   9123SM  H11F12290   5.876   4.085   4.813 -0.0751  1.0782  0.7464
   9123SM  H11G12291   5.715   4.140   4.833 -0.4864  3.3408 -0.0998
   9123SM  C12F12292   5.869   4.278   4.901 -0.3694 -0.0976  0.4198
   9123SM  H12F12293   5.806   4.369   4.890  1.5964  1.0464 -2.9712
   9123SM  H12G12294   5.971   4.305   4.868 -0.7480  1.9524  0.7938
   9123SM  C13F12295   5.892   4.213   5.037 -0.7332 -0.4056 -0.2177
   9123SM  H13F12296   5.947   4.118   5.027  2.0289  0.9668  0.7322
   9123SM  H13G12297   5.796   4.191   5.089  0.1025 -0.4402  1.3946
   9123SM  C14F12298   5.979   4.296   5.126 -0.5387 -0.4894 -0.3525
   9123SM  H14F12299   5.955   4.405   5.119 -0.7162 -0.4850  0.2501
   9123SM  H14G12300   6.087   4.289   5.106 -0.3223  1.6671 -0.2469
   9123SM  C15F12301   5.973   4.261   5.274  0.4660 -0.1300 -0.3728
   9123SM  H15F12302   6.044   4.332   5.320  1.5203 -0.1220 -1.9352
   9123SM  H15G12303   6.005   4.155   5.287  0.3054 -0.1940 -0.5036
   9123SM  C16F12304   5.836   4.285   5.345  0.6875 -0.1385  0.0140
   9123SM  H16F12305   5.753   4.238   5.288 -0.0762 -1.0386  1.7869
   9123SM  H16G12306   5.824   4.393   5.366 -0.4399 -0.2882  0.1881
   9123SM  C17F12307   5.848   4.204   5.474  0.0081 -0.7225  0.0660
   9123SM  H17F12308   5.927   4.248   5.539  0.2442  1.1089 -1.3832
   9123SM  H17G12309   5.864   4.097   5.449 -0.3924 -0.8706  0.4446
   9123SM  C18F12310   5.720   4.210   5.550 -0.9240  0.2643  0.2400
   9123SM  H18F12311   5.638   4.167   5.490  1.8397  0.3567 -4.0468
   9123SM  H18G12312   5.687   4.315   5.563 -1.4238  0.1691 -0.2603
   9123SM  C19F12313   5.722   4.130   5.681 -0.1789 -0.0865  0.1669
   9123SM  H19F12314   5.780   4.188   5.756  0.4016  0.7333 -0.8895
   9123SM  H19G12315   5.766   4.030   5.661  0.0263  0.1593 -0.6531
   9123SM  C20F12316   5.584   4.120   5.741 -0.5627  0.0105 -0.1277
   9123SM  H20F12317   5.596   4.065   5.837 -0.2536  0.4038  0.0636
   9123SM  H20G12318   5.516   4.062   5.676  3.2384 -3.0270 -1.8050
   9123SM  C21F12319   5.538   4.258   5.788  0.1041  0.4475 -0.2734
   9123SM  H21F12320   5.509   4.315   5.697 -1.7776  0.6422  0.3959
   9123SM  H21G12321   5.624   4.310   5.836  1.0721 -0.6166 -0.8112
   9123SM  C22F12322   5.419   4.260   5.874 -0.3252  0.5157 -0.2091
   9123SM  H22F12323   5.418   4.367   5.901 -1.0297  0.9336 -1.7700
   9123SM  H22G12324   5.440   4.200   5.965  2.2422  0.7626 -0.5724
   9123SM  C23F12325   5.284   4.235   5.817 -0.0980  0.3317 -0.4432
   9123SM  H23F12326   5.213   4.248   5.901 -0.0690  0.6760 -0.4694
   9123SM  H23G12327   5.277   4.132   5.776  3.0509 -0.0742 -0.2189
   9123SM  H23H12328   5.262   4.313   5.742 -3.4049 -0.4457 -0.3998
   9223SM     N12329   5.250   0.333   4.007 -0.1848  0.7162  0.4037
   9223SM   C1512330   5.350   0.270   4.096 -0.3911 -0.4367  0.3334
   9223SM  H15A12331   5.395   0.183   4.051  0.0638 -0.3731  0.6656
   9223SM  H15B12332   5.300   0.241   4.188 -0.9953 -0.6401 -0.0501
   9223SM  H15C12333   5.428   0.333   4.136 -0.8708  0.0715  0.4889
   9223SM   C1412334   5.312   0.361   3.875  0.1168  0.2111  0.2523
   9223SM  H14A12335   5.393   0.432   3.885 -1.7719  2.4167  0.8863
   9223SM  H14B12336   5.235   0.391   3.805  0.5010 -1.3612 -0.8779
   9223SM  H14C12337   5.346   0.269   3.830 -2.7304 -0.6096 -0.4504
   9223SM   C1312338   5.148   0.227   3.994  0.4439 -0.2958 -0.2084
   9223SM  H13A12339   5.102   0.204   4.089 -0.9905 -1.0004 -1.0474
   9223SM  H13B12340   5.194   0.137   3.956  0.8252 -0.3788  0.4324
   9223SM  H13C12341   5.072   0.264   3.927  1.9790 -0.7357 -2.2873
   9223SM   C1212342   5.191   0.455   4.077  0.0268  0.0311 -0.0620
   9223SM  H12A12343   5.265   0.534   4.077 -0.3687  0.4407  1.8641
   9223SM  H12B12344   5.178   0.426   4.180  2.6098  0.4429  0.4481
   9223SM   C1112345   5.056   0.499   4.026  0.4446 -0.3520  0.2719
   9223SM  H11A12346   5.037   0.602   4.064  1.2760 -0.7429  1.8450
   9223SM  H11B12347   4.976   0.438   4.073 -0.8206  1.7902  1.0251
   9223SM     P12348   4.912   0.497   3.812  0.2183  0.2128  0.0684
   9223SM   O1312349   4.920   0.562   3.681 -0.0562 -0.2141 -0.2090
   9223SM   O1412350   4.874   0.359   3.810  0.3613  0.5467  0.2635
   9223SM   O1112351   4.806   0.572   3.907 -0.1911 -0.0792  0.3578
   9223SM   O1212352   5.052   0.508   3.886  0.0104  0.3683  0.0466
   9223SM   C1S12353   4.811   0.718   3.914 -0.0793 -0.5983  0.9584
   9223SM   H1S12354   4.764   0.755   3.820  0.3009  0.4822  1.1788
   9223SM   H1T12355   4.918   0.743   3.904  0.2242 -1.2084  2.4476
   9223SM    NF12356   4.744   0.916   4.018 -0.5214 -0.4420  0.2159
   9223SM   HNF12357   4.805   0.969   4.076 -1.5213 -1.0397  1.8762
   9223SM   C2S12358   4.752   0.775   4.041  0.2494  0.5874 -0.5335
   9223SM   H2S12359   4.647   0.739   4.049  0.0114  1.3869  0.0074
   9223SM   C3S12360   4.815   0.735   4.175  0.0056  0.5187 -0.4674
   9223SM   H3S12361   4.923   0.758   4.176  0.1325  0.0352 -1.6558
   9223SM    O312362   4.805   0.590   4.189  0.0414  0.2710 -0.1705
   9223SM   HO312363   4.787   0.566   4.097  0.2446  0.8522 -0.3683
   9223SM   C4S12364   4.756   0.799   4.294  0.1924  0.1384 -0.9063
   9223SM   H4S12365   4.779   0.907   4.295  0.4031  0.1005 -1.3429
   9223SM   C5S12366   4.685   0.757   4.401  0.2088  1.0084 -0.6536
   9223SM   H5S12367   4.658   0.650   4.403 -1.6662  1.4718  0.7174
   9223SM   C6S12368   4.646   0.840   4.518  0.0121 -0.3559  0.3331
   9223SM   H6S12369   4.556   0.789   4.560  0.6180 -1.9122 -0.1648
   9223SM   H6T12370   4.631   0.946   4.490  0.0159 -0.3614  0.3106
   9223SM   C7S12371   4.756   0.846   4.622  0.8243 -0.6045 -0.2451
   9223SM   H7S12372   4.853   0.891   4.593 -0.0253  2.4418  1.2307
   9223SM   H7T12373   4.779   0.745   4.660  2.4728 -0.0350  0.3684
   9223SM   C8S12374   4.714   0.944   4.739 -0.0870  0.3682 -0.1953
   9223SM   H8S12375   4.603   0.931   4.744 -0.1824  1.4209  1.4804
   9223SM   H8T12376   4.733   1.049   4.706  1.2352 -0.2019 -1.3190
   9223SM   C9S12377   4.771   0.901   4.880  0.5191 -0.3119 -0.2897
   9223SM   H9S12378   4.880   0.916   4.885  0.6286  0.1751 -3.0809
   9223SM   H9T12379   4.749   0.792   4.885 -1.4089  0.0453 -0.0678
   9223SM  C10S12380   4.706   0.990   4.982  0.3624 -0.1322 -0.4525
   9223SM  H10S12381   4.597   0.979   4.965  0.5487  0.0795 -1.9212
   9223SM  H10T12382   4.743   1.092   4.958 -1.4189 -0.0626 -3.3543
   9223SM  C11S12383   4.746   0.979   5.129  0.0942  0.3071  0.1657
   9223SM  H11S12384   4.857   0.971   5.127  0.1109 -0.4439  1.9429
   9223SM  H11T12385   4.702   0.891   5.180  0.6248 -2.0643 -3.1612
   9223SM  C12S12386   4.711   1.100   5.214 -0.4427 -0.7562  0.7062
   9223SM  H12S12387   4.604   1.128   5.214  0.1686  1.8000  0.9642
   9223SM  H12T12388   4.772   1.189   5.187 -0.6226 -1.0084 -0.5736
   9223SM  C13S12389   4.729   1.075   5.364 -0.2772  0.8521  0.1320
   9223SM  H13S12390   4.831   1.048   5.398 -0.1517  0.6736 -0.3756
   9223SM  H13T12391   4.650   1.005   5.399  0.8142  0.5923  2.1980
   9223SM  C14S12392   4.702   1.206   5.440  0.1589 -0.6055 -0.4498
   9223SM  H14S12393   4.611   1.248   5.391  0.8885 -0.5560 -1.8050
   9223SM  H14T12394   4.789   1.273   5.429 -0.0304  0.4503  3.1825
   9223SM  C15S12395   4.669   1.188   5.590 -0.5839 -0.9450  0.1326
   9223SM  H15S12396   4.735   1.111   5.636  1.0042  0.6574  0.6857
   9223SM  H15T12397   4.563   1.158   5.604  0.1832 -3.2940  1.6643
   9223SM  C16S12398   4.696   1.318   5.667  0.3664 -0.3847 -0.9670
   9223SM  H16S12399   4.628   1.392   5.620 -0.6553 -0.7041 -0.0259
   9223SM  H16T12400   4.797   1.362   5.660 -0.7453  2.2998 -1.2883
   9223SM  C17S12401   4.663   1.322   5.819  0.0464  0.2592 -0.3205
   9223SM  H17S12402   4.748   1.275   5.873  0.2693 -0.5622 -1.3561
   9223SM  H17T12403   4.567   1.271   5.844  0.1266  0.5038  0.5081
   9223SM  C18S12404   4.644   1.464   5.882 -0.3901 -0.4252  0.3623
   9223SM  H18S12405   4.547   1.512   5.855  0.6629  0.6682 -1.7649
   9223SM  H18T12406   4.723   1.540   5.860  0.0555 -0.5821  1.3509
   9223SM  H18U12407   4.655   1.464   5.993  3.2039  1.0807  0.1439
   9223SM   C1F12408   4.663   0.981   3.932  0.6383 -0.1023  0.2396
   9223SM    OF12409   4.592   0.921   3.850 -0.1881  0.4711 -0.3371
   9223SM   C2F12410   4.679   1.134   3.926  0.1989  0.5210  0.0453
   9223SM   H2F12411   4.711   1.165   3.824 -0.8641 -2.6746 -1.3685
   9223SM   H2G12412   4.745   1.173   4.008 -1.2509  2.9827  0.1510
   9223SM   C3F12413   4.539   1.206   3.951  0.2998  0.3705 -0.0947
   9223SM   H3F12414   4.465   1.176   3.874  1.0662  0.0108 -0.6952
   9223SM   H3G12415   4.562   1.315   3.946  0.0763  0.5321  1.5483
   9223SM   C4F12416   4.461   1.184   4.081 -0.2054  0.0150  0.2082
   9223SM   H4F12417   4.423   1.080   4.077  0.1641 -0.0964 -0.4338
   9223SM   H4G12418   4.369   1.245   4.090 -0.5084 -0.3050 -0.6678
   9223SM   C5F12419   4.552   1.209   4.203  0.6408  0.6735 -0.1901
   9223SM   H5F12420   4.575   1.317   4.198  0.4149  0.7577  0.5635
   9223SM   H5G12421   4.643   1.146   4.194  1.5170  1.9412 -0.3338
   9223SM   C6F12422   4.479   1.175   4.342 -0.4599 -1.6009 -0.0645
   9223SM   H6F12423   4.477   1.065   4.356 -1.7128 -1.8342 -1.7949
   9223SM   H6G12424   4.378   1.213   4.320 -0.1076 -1.1312 -0.9169
   9223SM   C7F12425   4.534   1.259   4.462  0.4197 -0.4095 -0.0528
   9223SM   H7F12426   4.539   1.368   4.442  1.2028 -0.6888 -1.5685
   9223SM   H7G12427   4.634   1.220   4.492  0.5715  0.4089  0.5467
   9223SM   C8F12428   4.437   1.242   4.587  0.0115  0.2881 -0.2717
   9223SM   H8F12429   4.426   1.131   4.588  1.5276  0.1031  2.0977
   9223SM   H8G12430   4.337   1.285   4.564  0.4610  2.1959  1.1347
   9223SM   C9F12431   4.480   1.296   4.719  0.4279  0.2716  0.3964
   9223SM   H9F12432   4.490   1.406   4.725  1.8204  0.1922 -0.1346
   9223SM   H9G12433   4.584   1.258   4.735  1.5125  2.3401 -1.2752
   9223SM  C10F12434   4.376   1.260   4.829 -0.1398 -0.7611 -0.5512
   9223SM  H10F12435   4.350   1.153   4.811 -0.3886 -0.7763 -0.1147
   9223SM  H10G12436   4.286   1.320   4.808  0.0662 -0.8289 -1.6828
   9223SM  C11F12437   4.427   1.272   4.971  0.7369 -0.8334 -1.1291
   9223SM  H11F12438   4.495   1.360   4.978  1.1368 -1.2006 -0.3745
   9223SM  H11G12439   4.493   1.187   4.998  0.2820 -0.1300  2.7846
   9223SM  C12F12440   4.312   1.295   5.080  0.3340 -0.5877  0.4925
   9223SM  H12F12441   4.241   1.210   5.080  0.3176 -0.5918  1.5239
   9223SM  H12G12442   4.249   1.384   5.060 -1.8269 -2.3920 -1.1669
   9223SM  C13F12443   4.370   1.313   5.220 -0.1454  0.4237 -0.3622
   9223SM  H13F12444   4.458   1.381   5.222 -0.9127  1.5013  2.9819
   9223SM  H13G12445   4.408   1.219   5.263 -1.8474 -0.2593 -0.2899
   9223SM  C14F12446   4.267   1.373   5.314  0.1703 -0.2882  0.3868
   9223SM  H14F12447   4.178   1.305   5.313  1.6060 -2.3665 -2.2158
   9223SM  H14G12448   4.237   1.472   5.274  1.1606 -0.8106 -1.8200
   9223SM  C15F12449   4.316   1.398   5.457  0.1783 -0.6646  0.1753
   9223SM  H15F12450   4.390   1.479   5.469 -0.3724  0.2002 -1.8104
   9223SM  H15G12451   4.375   1.309   5.488  1.4520  0.8930  2.4917
   9223SM  C16F12452   4.216   1.412   5.576  0.1939  0.3353 -0.2046
   9223SM  H16F12453   4.154   1.320   5.577 -0.3105  0.6766  0.0444
   9223SM  H16G12454   4.146   1.497   5.561  0.5172  1.6232  4.2894
   9223SM  C17F12455   4.293   1.435   5.707  0.6736 -0.1656  0.1881
   9223SM  H17F12456   4.375   1.509   5.689  1.3767 -1.2089 -1.0454
   9223SM  H17G12457   4.344   1.340   5.732 -0.9646 -0.8797  0.9780
   9223SM  C18F12458   4.206   1.476   5.825  0.2365  0.2940  0.8041
   9223SM  H18F12459   4.180   1.583   5.822 -0.4788  0.1162  0.6201
   9223SM  H18G12460   4.267   1.461   5.917  0.1168  0.5386  0.9234
   9223SM  C19F12461   4.085   1.386   5.844 -0.4449 -0.2892 -0.3834
   9223SM  H19F12462   4.013   1.403   5.761 -3.0283 -2.1953  1.2857
   9223SM  H19G12463   4.027   1.416   5.934 -2.3159 -1.3559 -1.1517
   9223SM  C20F12464   4.123   1.241   5.850 -0.2403 -0.3411  0.7081
   9223SM  H20F12465   4.207   1.232   5.923  0.7748 -0.2500 -0.4094
   9223SM  H20G12466   4.173   1.202   5.758  0.8930  0.6024  0.9075
   9223SM  C21F12467   4.018   1.131   5.873  0.0736  0.5579  0.1614
   9223SM  H21F12468   3.991   1.126   5.980  1.6134  0.4067  0.5688
   9223SM  H21G12469   4.070   1.036   5.848 -2.8800 -1.9775  2.8211
   9223SM  C22F12470   3.891   1.143   5.785 -0.0011  0.7820  0.1692
   9223SM  H22F12471   3.918   1.175   5.683  1.3087  0.9628  0.5477
   9223SM  H22G12472   3.836   1.231   5.825 -0.9925 -0.1788  0.9948
   9223SM  C23F12473   3.799   1.015   5.792  0.2685  0.2090 -0.0221
   9223SM  H23F12474   3.838   0.930   5.732  0.6048  0.8881 -0.7876
   9223SM  H23G12475   3.707   1.040   5.734  0.8664  0.0412 -1.0595
   9223SM  H23H12476   3.778   0.984   5.897  0.9249 -0.7918 -0.1753
   9323SM     N12477   5.243   3.423   3.237 -0.1755 -0.0983  0.3980
   9323SM   C1512478   5.303   3.492   3.116  0.0936 -0.6043 -0.2035
   9323SM  H15A12479   5.395   3.543   3.139 -1.1255  1.4508  0.3956
   9323SM  H15B12480   5.230   3.565   3.084  1.0686 -0.6810 -2.8526
   9323SM  H15C12481   5.323   3.426   3.033 -0.9131  0.3193 -1.2213
   9323SM   C1412482   5.107   3.352   3.211  0.4163 -0.1522  0.3742
   9323SM  H14A12483   5.125   3.293   3.122  0.6497 -0.2361  0.4786
   9323SM  H14B12484   5.029   3.424   3.188  1.3419  0.8536  0.3311
   9323SM  H14C12485   5.068   3.282   3.283 -1.8591  0.4617 -0.1793
   9323SM   C1312486   5.336   3.306   3.260  0.1450 -0.6455  0.1054
   9323SM  H13A12487   5.308   3.253   3.350 -0.4690 -0.1148  0.2388
   9323SM  H13B12488   5.437   3.345   3.263  0.7604 -2.2345  0.9703
   9323SM  H13C12489   5.340   3.238   3.177  0.6841 -0.7568  0.2211
   9323SM   C1212490   5.225   3.513   3.354  0.2110 -0.2505  0.0203
   9323SM  H12A12491   5.162   3.596   3.326  0.8243  0.1612 -0.1564
   9323SM  H12B12492   5.317   3.563   3.381 -0.6698  1.2331  0.3753
   9323SM   C1112493   5.175   3.461   3.494 -0.2622  0.1126 -0.2799
   9323SM  H11A12494   5.075   3.415   3.482 -1.0430  0.4352  3.5577
   9323SM  H11B12495   5.176   3.552   3.558  1.5723  1.1658 -1.7175
   9323SM     P12496   5.391   3.393   3.611  0.1484 -0.0057 -0.2077
   9323SM   O1312497   5.465   3.265   3.634  0.1057  0.0817  0.3962
   9323SM   O1412498   5.467   3.492   3.526 -0.0158  0.5842  0.7678
   9323SM   O1112499   5.341   3.463   3.750 -0.5447  0.2129  0.0442
   9323SM   O1212500   5.255   3.354   3.548  0.3291  0.4132  0.2324
   9323SM   C1S12501   5.275   3.369   3.836  0.3619 -0.5000 -0.1211
   9323SM   H1S12502   5.330   3.273   3.847  2.6862  0.8110  0.2557
   9323SM   H1T12503   5.168   3.360   3.806  0.3553  1.5238 -0.8639
   9323SM    NF12504   5.208   3.327   4.072  0.0185  0.0713  0.7425
   9323SM   HNF12505   5.113   3.345   4.095 -0.1409 -0.0810  0.1992
   9323SM   C2S12506   5.270   3.428   3.989  0.3233 -0.0814 -0.4846
   9323SM   H2S12507   5.372   3.442   4.031  0.2266  0.5794 -0.4624
   9323SM   C3S12508   5.204   3.574   3.987  0.1975  0.8587 -0.1549
   9323SM   H3S12509   5.101   3.560   3.948 -0.6239 -2.5045  2.7124
   9323SM    O312510   5.267   3.663   3.899  0.1329  0.4055  0.2100
   9323SM   HO312511   5.308   3.607   3.832  0.6872 -1.3421  1.9198
   9323SM   C4S12512   5.183   3.623   4.130 -0.2535 -0.4228  0.2707
   9323SM   H4S12513   5.275   3.603   4.188 -0.9706 -1.2314  1.1719
   9323SM   C5S12514   5.072   3.673   4.190 -0.0359  0.1443  0.5702
   9323SM   H5S12515   4.988   3.670   4.120  0.1764 -0.8707  0.3436
   9323SM   C6S12516   5.049   3.716   4.333 -0.4373  0.3965  0.0940
   9323SM   H6S12517   4.947   3.684   4.362 -0.2443  0.4791  0.8863
   9323SM   H6T12518   5.041   3.826   4.337  0.6208  0.4602  0.8794
   9323SM   C7S12519   5.162   3.665   4.425  0.0622 -0.1208  0.5036
   9323SM   H7S12520   5.261   3.685   4.380  0.3227  0.6509  1.4000
   9323SM   H7T12521   5.149   3.554   4.427 -0.0944 -0.1278 -0.3595
   9323SM   C8S12522   5.144   3.733   4.560 -0.5824 -0.0020 -0.5559
   9323SM   H8S12523   5.169   3.658   4.638 -1.6410  0.5710  0.3502
   9323SM   H8T12524   5.034   3.744   4.569 -0.5570 -1.2065  1.7667
   9323SM   C9S12525   5.219   3.859   4.578  0.1632 -0.4078  0.8777
   9323SM   H9S12526   5.146   3.939   4.552 -0.0963 -1.3803 -1.7005
   9323SM   H9T12527   5.309   3.875   4.515 -1.3246  0.3114 -1.1544
   9323SM  C10S12528   5.261   3.875   4.725  0.0186 -0.7812  0.3677
   9323SM  H10S12529   5.331   3.790   4.742 -1.3735 -1.8930  0.7210
   9323SM  H10T12530   5.177   3.871   4.797  0.8551 -1.3801  1.3320
   9323SM  C11S12531   5.328   4.009   4.743  0.3488 -0.4113  0.2710
   9323SM  H11S12532   5.253   4.084   4.708  1.7201  0.9305  0.0664
   9323SM  H11T12533   5.415   4.019   4.674  0.0802 -0.9515 -0.1544
   9323SM  C12S12534   5.375   4.053   4.878  0.3907  0.4570 -0.0947
   9323SM  H12S12535   5.466   4.000   4.915  0.5299  1.3185  0.8366
   9323SM  H12T12536   5.291   4.024   4.944 -0.0081 -0.1202 -0.8368
   9323SM  C13S12537   5.402   4.202   4.888  0.3983  0.0621 -1.0814
   9323SM  H13S12538   5.302   4.247   4.873 -0.4404 -1.0294  0.8993
   9323SM  H13T12539   5.476   4.233   4.811  1.0688  0.7656 -0.1723
   9323SM  C14S12540   5.454   4.243   5.029  0.5726 -0.5530 -0.0273
   9323SM  H14S12541   5.455   4.354   5.035 -0.3520 -0.2893 -2.9971
   9323SM  H14T12542   5.557   4.207   5.049  1.1275  0.6612 -0.5945
   9323SM  C15S12543   5.357   4.201   5.136 -0.0899 -0.2495 -0.2148
   9323SM  H15S12544   5.252   4.230   5.113 -0.1259  0.5933  0.8706
   9323SM  H15T12545   5.343   4.092   5.154 -0.1103 -0.4683 -1.4873
   9323SM  C16S12546   5.377   4.270   5.274 -0.4951 -0.0763 -0.0132
   9323SM  H16S12547   5.422   4.368   5.245 -0.3307  0.3109  1.4776
   9323SM  H16T12548   5.452   4.212   5.331 -0.6837  1.1809  1.5671
   9323SM  C17S12549   5.252   4.286   5.367  0.2884 -0.4903  0.3210
   9323SM  H17S12550   5.226   4.188   5.411 -0.3467 -0.9072 -0.9459
   9323SM  H17T12551   5.173   4.322   5.298 -0.6529 -1.2109  1.0161
   9323SM  C18S12552   5.273   4.390   5.484  0.2467 -0.4380  0.2879
   9323SM  H18S12553   5.291   4.492   5.446 -0.9104 -0.7643 -1.2613
   9323SM  H18T12554   5.362   4.354   5.539  1.0775  0.1493 -0.6497
   9323SM  H18U12555   5.176   4.387   5.538 -0.7210  0.4791 -1.3290
   9323SM   C1F12556   5.265   3.210   4.107 -0.1906 -0.9676 -0.3102
   9323SM    OF12557   5.375   3.177   4.065 -0.2508  0.7340  0.2104
   9323SM   C2F12558   5.201   3.119   4.208  0.1131  0.2708  0.3819
   9323SM   H2F12559   5.225   3.020   4.164  1.2959  0.4339  0.6164
   9323SM   H2G12560   5.093   3.143   4.198 -0.1133 -0.1063  1.7946
   9323SM   C3F12561   5.261   3.145   4.349 -0.1272  1.0328  0.5023
   9323SM   H3F12562   5.367   3.114   4.346 -0.4057  0.0873 -0.0493
   9323SM   H3G12563   5.204   3.081   4.420  1.7240  0.4620  1.5405
   9323SM   C4F12564   5.255   3.292   4.405  0.2622 -0.1045  0.2638
   9323SM   H4F12565   5.149   3.319   4.421  0.2397 -1.3742  2.9636
   9323SM   H4G12566   5.300   3.352   4.323 -0.6204  1.3111  0.7853
   9323SM   C5F12567   5.342   3.307   4.533 -0.3371 -0.3233  0.2660
   9323SM   H5F12568   5.370   3.413   4.552  2.1376 -0.7793 -0.5430
   9323SM   H5G12569   5.436   3.259   4.499  0.5218  0.9681  0.7416
   9323SM   C6F12570   5.276   3.256   4.668  0.0340  0.1227  1.0849
   9323SM   H6F12571   5.351   3.213   4.738  0.4636 -1.2968 -0.1732
   9323SM   H6G12572   5.210   3.169   4.646  0.2743  0.0786  0.5092
   9323SM   C7F12573   5.186   3.359   4.741  0.7065 -0.8654  0.8070
   9323SM   H7F12574   5.126   3.416   4.667 -1.8146 -2.2700  1.6562
   9323SM   H7G12575   5.241   3.441   4.793  1.6774 -0.1706 -1.2156
   9323SM   C8F12576   5.081   3.299   4.836  0.0883 -0.3377 -0.1066
   9323SM   H8F12577   5.038   3.210   4.785 -0.1750  0.0077 -0.4972
   9323SM   H8G12578   4.997   3.371   4.847  0.9251  0.2579  3.5478
   9323SM   C9F12579   5.141   3.271   4.966  1.1391  0.2590 -0.5670
   9323SM   H9F12580   5.246   3.240   4.944  0.6621 -1.3810 -0.6666
   9323SM   H9G12581   5.088   3.190   5.022  2.1232 -0.5248 -0.7366
   9323SM  C10F12582   5.155   3.396   5.057  0.5122 -0.7035  0.3845
   9323SM  H10F12583   5.048   3.421   5.079  0.8014  0.1300  0.9044
   9323SM  H10G12584   5.205   3.481   5.006 -1.8490  1.7057  1.8085
   9323SM  C11F12585   5.242   3.374   5.175 -0.9297  0.2548  0.3064
   9323SM  H11F12586   5.349   3.369   5.146 -0.4334 -1.0683  2.1926
   9323SM  H11G12587   5.228   3.273   5.219  0.8818 -0.4699 -0.6434
   9323SM  C12F12588   5.216   3.481   5.279  0.0013  0.5046 -0.3141
   9323SM  H12F12589   5.131   3.466   5.348 -1.0287  0.8489 -1.4623
   9323SM  H12G12590   5.199   3.584   5.239  0.0652  1.5893  2.2590
   9323SM  C13F12591   5.339   3.508   5.368  0.4755 -0.1846  0.0672
   9323SM  H13F12592   5.423   3.555   5.313  2.8425 -0.3119  3.2786
   9323SM  H13G12593   5.378   3.409   5.398  2.4141  0.9935  1.7135
   9323SM  C14F12594   5.320   3.596   5.500  0.0574 -0.3268  0.2680
   9323SM  H14F12595   5.249   3.545   5.567 -0.2959  0.1211  0.2434
   9323SM  H14G12596   5.281   3.695   5.467  0.5501 -0.4158 -0.6177
   9323SM  C15F12597   5.456   3.610   5.567 -0.7238  0.0178  0.6028
   9323SM  H15F12598   5.524   3.672   5.505  0.0678  0.1087  1.5484
   9323SM  H15G12599   5.498   3.507   5.564 -2.1874 -0.6655  1.9482
   9323SM  C16F12600   5.451   3.668   5.710 -0.0680  0.1807  0.5929
   9323SM  H16F12601   5.352   3.718   5.714 -0.4383 -0.6356  2.6125
   9323SM  H16G12602   5.543   3.729   5.706  0.2471 -0.3200 -1.8582
   9323SM  C17F12603   5.464   3.560   5.824 -0.2742  0.4915 -0.4993
   9323SM  H17F12604   5.399   3.471   5.805  1.0350 -1.2746  2.4380
   9323SM  H17G12605   5.426   3.598   5.922  2.1698  1.7400  0.0154
   9323SM  C18F12606   5.606   3.517   5.862  0.8468  0.0627 -0.0296
   9323SM  H18F12607   5.665   3.604   5.898  1.6832 -0.0977 -0.9564
   9323SM  H18G12608   5.648   3.460   5.776 -1.7402  0.6091 -1.7839
   9323SM  C19F12609   5.604   3.415   5.975 -0.1278  0.2713 -0.0743
   9323SM  H19F12610   5.516   3.351   5.951 -1.1302  1.2441  0.8964
   9323SM  H19G12611   5.574   3.465   6.069  1.0867 -0.9238  0.9919
   9323SM  C20F12612   5.736   3.332   5.998  0.1272 -0.3966 -0.5909
   9323SM  H20F12613   5.745   3.263   5.911  1.2774 -1.0668  0.0378
   9323SM  H20G12614   5.714   3.268   6.086  2.9886  0.8375  1.1691
   9323SM  C21F12615   5.857   3.410   6.032 -0.1235 -0.4734 -0.1481
   9323SM  H21F12616   5.826   3.493   6.099  0.2848  0.5210 -1.1479
   9323SM  H21G12617   5.886   3.456   5.935  2.8268 -1.8968 -0.0681
   9323SM  C22F12618   5.984   3.341   6.087  0.1984 -0.0657  0.1349
   9323SM  H22F12619   5.980   3.250   6.023 -2.7434 -0.7538  1.1667
   9323SM  H22G12620   5.957   3.312   6.190 -0.3175  1.0618  0.3254
   9323SM  C23F12621   6.122   3.416   6.070 -0.7686 -0.2235  0.0068
   9323SM  H23F12622   6.120   3.510   6.130 -0.0334 -1.9422  2.9128
   9323SM  H23G12623   6.137   3.441   5.963  0.7978  1.2239  0.5225
   9323SM  H23H12624   6.204   3.353   6.111 -0.4861  0.4066  0.4244
   9423SM     N12625   4.282   5.566   3.632 -0.2247  0.4534  0.1165
   9423SM   C1512626   4.250   5.576   3.777 -0.2270 -0.5599  0.3592
   9423SM  H15A12627   4.160   5.636   3.788 -0.1196 -0.3237 -0.0613
   9423SM  H15B12628   4.331   5.635   3.816  0.3478  0.4721 -2.1997
   9423SM  H15C12629   4.228   5.482   3.825 -0.9458 -0.2767  0.6158
   9423SM   C1412630   4.158   5.522   3.554 -0.6114  0.4922  0.2559
   9423SM  H14A12631   4.132   5.422   3.584 -1.8637  0.8253  0.3089
   9423SM  H14B12632   4.184   5.514   3.449 -0.0928 -0.8176  0.4609
   9423SM  H14C12633   4.074   5.588   3.565  0.4439  1.9133  0.1131
   9423SM   C1312634   4.330   5.702   3.582  0.1174  0.0774 -0.4559
   9423SM  H13A12635   4.406   5.746   3.645  0.3619 -1.3817  0.3071
   9423SM  H13B12636   4.254   5.777   3.566 -1.1333 -0.8212  0.9625
   9423SM  H13C12637   4.386   5.690   3.491 -0.6232 -1.0658 -0.7797
   9423SM   C1212638   4.399   5.474   3.626  0.0295  0.0735  0.6522
   9423SM  H12A12639   4.363   5.373   3.639 -1.8368  0.5700 -0.2630
   9423SM  H12B12640   4.472   5.508   3.698  0.1403  2.4694 -0.5210
   9423SM   C1112641   4.472   5.474   3.491 -0.2321  0.0084 -0.1379
   9423SM  H11A12642   4.393   5.466   3.413 -0.6980  1.7994  0.1106
   9423SM  H11B12643   4.531   5.380   3.490 -0.1383  0.0399 -2.0355
   9423SM     P12644   4.692   5.607   3.428  0.3739 -0.2844  0.2654
   9423SM   O1312645   4.740   5.523   3.316  0.4940 -0.2442  0.8670
   9423SM   O1412646   4.737   5.751   3.424  0.0038 -0.0993  0.2024
   9423SM   O1112647   4.750   5.540   3.565 -0.7763 -0.6868  0.2170
   9423SM   O1212648   4.536   5.591   3.447 -0.3290  0.4201 -0.2651
   9423SM   C1S12649   4.733   5.611   3.688  0.5948 -0.1748 -0.4003
   9423SM   H1S12650   4.625   5.633   3.702  0.7659  1.4645 -1.4009
   9423SM   H1T12651   4.788   5.706   3.703 -0.9611  0.6024  0.7204
   9423SM    NF12652   4.745   5.588   3.948  0.8872 -1.0123 -0.6256
   9423SM   HNF12653   4.816   5.617   4.011  0.2571 -1.6929  0.4376
   9423SM   C2S12654   4.775   5.532   3.819 -0.0868  0.1174 -0.3611
   9423SM   H2S12655   4.711   5.441   3.812 -2.6822  1.7351  0.9275
   9423SM   C3S12656   4.925   5.504   3.810 -0.5600  0.5840  0.0179
   9423SM   H3S12657   4.979   5.601   3.804  0.6753 -0.0888 -0.1155
   9423SM    O312658   4.972   5.452   3.682 -0.3864 -0.3597  0.3271
   9423SM   HO312659   4.899   5.471   3.622 -0.9216 -0.6539  0.8674
   9423SM   C4S12660   4.983   5.422   3.924  0.2446  0.0869  0.1679
   9423SM   H4S12661   5.029   5.483   4.003  3.3441  0.2121 -1.5931
   9423SM   C5S12662   4.974   5.289   3.938 -0.3610 -0.0317  0.2273
   9423SM   H5S12663   4.913   5.231   3.866 -1.1190  0.7420  0.2352
   9423SM   C6S12664   5.021   5.209   4.056  0.1975  0.3468  0.1573
   9423SM   H6S12665   5.131   5.203   4.071  0.3807  2.6014 -0.0003
   9423SM   H6T12666   4.987   5.105   4.040  0.9080  0.1723 -0.2901
   9423SM   C7S12667   4.974   5.246   4.195 -0.4419  0.1597 -0.3262
   9423SM   H7S12668   4.867   5.219   4.209  0.0596 -1.4604  0.5371
   9423SM   H7T12669   4.989   5.352   4.227 -0.9617  0.1045  0.1249
   9423SM   C8S12670   5.065   5.169   4.293 -0.0573 -0.0241  0.5150
   9423SM   H8S12671   5.167   5.213   4.297  0.0303 -0.2235  0.4506
   9423SM   H8T12672   5.083   5.065   4.259 -0.4629  0.0025  0.2054
   9423SM   C9S12673   5.003   5.170   4.431  0.5508  0.0570  0.2394
   9423SM   H9S12674   4.893   5.159   4.415  0.6843  0.8184 -1.3331
   9423SM   H9T12675   5.019   5.274   4.467  0.1585 -0.7459  2.9762
   9423SM  C10S12676   5.054   5.060   4.520  0.4261  0.0826 -0.4461
   9423SM  H10S12677   5.164   5.074   4.520  0.3916  0.4007 -0.9314
   9423SM  H10T12678   5.040   4.956   4.486 -0.5865 -0.2471  0.9081
   9423SM  C11S12679   4.995   5.056   4.659 -0.2543 -0.0304  0.2601
   9423SM  H11S12680   4.899   5.002   4.659 -0.9672  1.1789 -0.3899
   9423SM  H11T12681   4.982   5.158   4.701  0.9964  0.4644 -0.4660
   9423SM  C12S12682   5.097   4.979   4.750  0.7569 -0.6009 -0.3571
   9423SM  H12S12683   5.180   5.053   4.758 -0.5605  0.9651 -0.5025
   9423SM  H12T12684   5.117   4.886   4.694 -2.1616 -0.6476 -1.4791
   9423SM  C13S12685   5.035   4.941   4.884 -0.8212  0.3211  0.3910
   9423SM  H13S12686   4.953   4.868   4.864  0.1138 -1.2872  2.1333
   9423SM  H13T12687   4.986   5.031   4.927  0.6697  1.4883 -0.2500
   9423SM  C14S12688   5.136   4.873   4.975 -0.6070  0.6926  0.1017
   9423SM  H14S12689   5.105   4.886   5.081 -1.3612  0.1774 -0.0451
   9423SM  H14T12690   5.234   4.924   4.967  0.2491 -0.8041  0.5540
   9423SM  C15S12691   5.169   4.719   4.949  0.1757 -0.3725  0.7030
   9423SM  H15S12692   5.229   4.681   5.034 -1.2747 -1.8426  1.1280
   9423SM  H15T12693   5.231   4.712   4.857 -0.4336 -0.8241  0.3189
   9423SM  C16S12694   5.047   4.619   4.947  0.3584 -0.3035 -0.1254
   9423SM  H16S12695   5.078   4.521   4.905 -2.3954 -1.3233 -0.0142
   9423SM  H16T12696   4.970   4.655   4.875 -0.0449  0.4715  0.6726
   9423SM  C17S12697   4.987   4.617   5.088 -0.1010 -0.4864  0.0324
   9423SM  H17S12698   4.887   4.567   5.084  0.2125 -1.0921 -0.3574
   9423SM  H17T12699   4.954   4.714   5.130 -0.4176 -0.4611 -0.2769
   9423SM  C18S12700   5.070   4.550   5.202  0.4723 -0.4660  0.3874
   9423SM  H18S12701   5.095   4.455   5.150  2.1526  0.0294  0.2362
   9423SM  H18T12702   5.009   4.540   5.294 -1.6813 -0.3314 -0.9364
   9423SM  H18U12703   5.163   4.609   5.215  0.3765 -0.1695 -0.1939
   9423SM   C1F12704   4.616   5.627   3.970  0.3657 -0.8558 -0.0946
   9423SM    OF12705   4.529   5.580   3.899 -0.2593  0.3236 -0.2598
   9423SM   C2F12706   4.594   5.721   4.074 -0.4345 -0.2169  0.0822
   9423SM   H2F12707   4.641   5.818   4.046 -0.0614 -0.8998 -1.7421
   9423SM   H2G12708   4.634   5.693   4.174 -1.2098 -1.7097 -0.0019
   9423SM   C3F12709   4.440   5.746   4.091 -0.1052 -0.1070  0.1043
   9423SM   H3F12710   4.388   5.650   4.109 -0.0772  0.0145  0.8438
   9423SM   H3G12711   4.394   5.776   3.994 -0.2029  2.8538  0.9878
   9423SM   C4F12712   4.402   5.845   4.193 -0.4706 -0.0278  0.2476
   9423SM   H4F12713   4.299   5.882   4.174  1.0811  3.2049 -2.9484
   9423SM   H4G12714   4.473   5.930   4.191  0.6093 -0.9086 -0.0881
   9423SM   C5F12715   4.418   5.786   4.339 -0.5258 -0.4114 -0.5199
   9423SM   H5F12716   4.526   5.794   4.364 -0.5501  1.3182 -0.8285
   9423SM   H5G12717   4.388   5.679   4.350 -0.4726 -0.6895 -2.6850
   9423SM   C6F12718   4.324   5.862   4.435 -0.1688  0.0960 -0.0621
   9423SM   H6F12719   4.218   5.831   4.425 -0.1054 -0.6996  1.3522
   9423SM   H6G12720   4.319   5.967   4.402  0.7317 -0.0066 -0.5676
   9423SM   C7F12721   4.362   5.860   4.578 -0.1905 -0.6327  0.1003
   9423SM   H7F12722   4.277   5.895   4.640 -0.2780  0.5267 -0.6516
   9423SM   H7G12723   4.457   5.917   4.581 -1.1558  1.0141  1.1132
   9423SM   C8F12724   4.380   5.714   4.627  0.1469  0.0764 -0.4046
   9423SM   H8F12725   4.455   5.660   4.566 -1.4365 -0.7767 -1.6744
   9423SM   H8G12726   4.279   5.669   4.619 -0.2054  0.6395  0.6743
   9423SM   C9F12727   4.419   5.708   4.779 -0.2415 -0.2370 -0.3349
   9423SM   H9F12728   4.526   5.735   4.792 -0.4325  0.0499  0.7681
   9423SM   H9G12729   4.410   5.604   4.817 -1.2190  0.5875  1.8690
   9423SM  C10F12730   4.328   5.785   4.871 -0.1432 -0.4047  0.2572
   9423SM  H10F12731   4.227   5.741   4.861 -0.9055  1.7286 -2.4790
   9423SM  H10G12732   4.317   5.891   4.842  0.7648 -0.7672 -1.5463
   9423SM  C11F12733   4.377   5.780   5.010 -0.0775 -0.1422 -0.5476
   9423SM  H11F12734   4.337   5.869   5.064  0.7058 -0.8570  1.3034
   9423SM  H11G12735   4.488   5.780   5.015 -0.1183  0.0453  1.3665
   9423SM  C12F12736   4.333   5.663   5.100 -1.0333  0.0179  0.1878
   9423SM  H12F12737   4.348   5.565   5.050  1.2178  0.1214  0.5578
   9423SM  H12G12738   4.225   5.663   5.126 -0.9915 -0.3527  0.3675
   9423SM  C13F12739   4.415   5.661   5.231 -0.3803 -0.2610 -0.0346
   9423SM  H13F12740   4.521   5.634   5.213 -0.4516  0.1943 -1.2643
   9423SM  H13G12741   4.368   5.584   5.295  0.2189  1.8654  3.1704
   9423SM  C14F12742   4.420   5.779   5.331  0.3185 -0.1711 -0.8697
   9423SM  H14F12743   4.316   5.809   5.353  0.5815 -1.3621  2.6983
   9423SM  H14G12744   4.463   5.866   5.278  1.9800  0.0933  0.7925
   9423SM  C15F12745   4.474   5.734   5.471 -0.5567  0.5009 -0.0384
   9423SM  H15F12746   4.418   5.647   5.512  2.7281 -1.3596  0.8883
   9423SM  H15G12747   4.466   5.819   5.541 -0.8760 -0.9352  1.7588
   9423SM  C16F12748   4.625   5.691   5.471  0.3491 -0.0547 -0.2707
   9423SM  H16F12749   4.693   5.779   5.472  1.0383 -0.5292  2.5686
   9423SM  H16G12750   4.661   5.625   5.389  4.1374  1.5971 -0.1175
   9423SM  C17F12751   4.660   5.619   5.593 -0.1826  0.4404  0.2404
   9423SM  H17F12752   4.599   5.657   5.678  0.6732 -0.4212  1.2784
   9423SM  H17G12753   4.767   5.638   5.618  0.4920 -1.3498 -1.1094
   9423SM  C18F12754   4.657   5.464   5.578  0.3057  0.1448 -0.0627
   9423SM  H18F12755   4.742   5.422   5.520 -0.2953 -2.8852  1.0623
   9423SM  H18G12756   4.560   5.432   5.534  0.7685 -0.9031 -0.3584
   9423SM  C19F12757   4.654   5.376   5.703 -0.3921  0.0281 -0.5209
   9423SM  H19F12758   4.558   5.388   5.758  1.1223  0.4889  2.2110
   9423SM  H19G12759   4.736   5.391   5.777  0.1483 -3.0043 -0.3980
   9423SM  C20F12760   4.661   5.219   5.673 -0.5048 -0.0567 -0.0740
   9423SM  H20F12761   4.760   5.181   5.640 -0.7459 -1.0556  0.2998
   9423SM  H20G12762   4.585   5.191   5.597  0.4872  2.5846 -2.2071
   9423SM  C21F12763   4.614   5.145   5.806 -0.3062 -0.0802  0.3958
   9423SM  H21F12764   4.522   5.199   5.834  1.0039  2.1539  0.6575
   9423SM  H21G12765   4.688   5.166   5.886 -0.7241 -0.6503  0.9353
   9423SM  C22F12766   4.593   4.998   5.785 -0.5836 -0.3639  0.1282
   9423SM  H22F12767   4.683   4.968   5.727 -0.5908 -0.7254  0.3068
   9423SM  H22G12768   4.498   4.971   5.735 -1.0949 -0.7473  1.2701
   9423SM  C23F12769   4.586   4.924   5.919 -0.4136  0.0063  0.3511
   9423SM  H23F12770   4.523   4.983   5.989 -1.6035 -1.0484  0.2134
   9423SM  H23G12771   4.688   4.917   5.962 -0.8277 -0.4685  1.2864
   9423SM  H23H12772   4.551   4.821   5.897  3.3697 -1.4295  0.4795
   9523SM     N12773   0.779   1.190   3.564 -0.2216 -0.0756  0.4225
   9523SM   C1512774   0.853   1.317   3.567 -0.1725 -0.6321  0.2419
   9523SM  H15A12775   0.926   1.315   3.487 -1.6524 -0.6190 -1.1689
   9523SM  H15B12776   0.900   1.335   3.662 -0.7693  0.8397  0.2893
   9523SM  H15C12777   0.785   1.400   3.556  1.0596  0.5542  1.3354
   9523SM   C1412778   0.715   1.186   3.433  0.1428  0.2533  0.2976
   9523SM  H14A12779   0.683   1.289   3.429 -0.1674  0.1166 -1.0300
   9523SM  H14B12780   0.627   1.124   3.435 -0.3120  0.8901  2.2806
   9523SM  H14C12781   0.774   1.165   3.346  0.1435 -4.4302  1.1997
   9523SM   C1312782   0.887   1.084   3.576  0.1596  0.0865  1.1552
   9523SM  H13A12783   0.853   0.983   3.559  1.9015 -0.4692  0.8166
   9523SM  H13B12784   0.935   1.087   3.673 -0.5740  1.0219  1.5087
   9523SM  H13C12785   0.960   1.094   3.497  0.8537 -0.2429  1.7384
   9523SM   C1212786   0.679   1.159   3.676 -0.2868  0.3157 -0.1533
   9523SM  H12A12787   0.638   1.061   3.659  0.2619  0.2347 -1.0378
   9523SM  H12B12788   0.602   1.235   3.676  0.0328  0.6534  0.4525
   9523SM   C1112789   0.737   1.155   3.816  0.6044 -0.2826 -0.6516
   9523SM  H11A12790   0.808   1.070   3.832 -0.3164 -0.8273  0.7219
   9523SM  H11B12791   0.659   1.117   3.885  0.3678 -2.2298 -1.8928
   9523SM     P12792   0.696   1.396   3.874  0.0287 -0.4374  0.0813
   9523SM   O1312793   0.764   1.510   3.809 -0.0338  0.9407  0.2605
   9523SM   O1412794   0.558   1.367   3.828  0.0225 -0.3120  0.5714
   9523SM   O1112795   0.703   1.422   4.032 -0.4549  0.2456 -0.0311
   9523SM   O1212796   0.793   1.281   3.851 -0.0678  0.3051  0.2507
   9523SM   C1S12797   0.753   1.327   4.132 -0.3685  0.5454  0.1119
   9523SM   H1S12798   0.843   1.273   4.095 -1.3166 -0.7867 -0.3592
   9523SM   H1T12799   0.681   1.243   4.145 -2.0239  1.5256 -2.1104
   9523SM    NF12800   0.867   1.299   4.347 -0.4714  0.5229 -0.0451
   9523SM   HNF12801   0.807   1.269   4.421 -0.6626 -0.1376 -0.4698
   9523SM   C2S12802   0.798   1.396   4.262 -0.0694  0.6608  0.0844
   9523SM   H2S12803   0.873   1.465   4.217  1.0763 -0.6860 -0.1203
   9523SM   C3S12804   0.686   1.484   4.316 -0.2576  0.1790 -0.4804
   9523SM   H3S12805   0.595   1.425   4.341 -0.1863 -0.2170 -1.1353
   9523SM    O312806   0.631   1.577   4.227  0.6919 -0.1485  0.2976
   9523SM   HO312807   0.657   1.545   4.140  1.9329  3.9239 -1.0698
   9523SM   C4S12808   0.731   1.550   4.446 -0.0323 -0.5663 -0.6682
   9523SM   H4S12809   0.700   1.502   4.540 -2.3058  0.2828 -0.9216
   9523SM   C5S12810   0.789   1.668   4.451 -0.2819  0.0991 -0.3616
   9523SM   H5S12811   0.807   1.722   4.356 -0.0602  0.3137 -0.2017
   9523SM   C6S12812   0.829   1.733   4.585  0.1489  0.0678 -0.3472
   9523SM   H6S12813   0.773   1.825   4.613 -1.4901 -1.0669  0.2684
   9523SM   H6T12814   0.934   1.767   4.579 -0.5005  2.1467 -0.4883
   9523SM   C7S12815   0.822   1.645   4.721  0.5107 -0.3805  0.1373
   9523SM   H7S12816   0.866   1.547   4.692 -2.5723 -1.6041 -0.8282
   9523SM   H7T12817   0.718   1.611   4.739  0.7551 -0.7566  0.8737
   9523SM   C8S12818   0.869   1.706   4.847 -0.5763  0.1342  0.5873
   9523SM   H8S12819   0.811   1.798   4.872 -0.3850  0.3740  0.1628
   9523SM   H8T12820   0.973   1.741   4.832  0.4427 -2.7006  0.4517
   9523SM   C9S12821   0.861   1.605   4.968  0.1156 -0.1146  0.6919
   9523SM   H9S12822   0.921   1.513   4.950 -1.3881 -1.5639  2.6955
   9523SM   H9T12823   0.754   1.578   4.972  0.1801 -1.2138 -2.3262
   9523SM  C10S12824   0.901   1.669   5.098  0.0242 -0.4411 -0.2215
   9523SM  H10S12825   0.829   1.752   5.110 -0.4020 -0.7878 -0.3782
   9523SM  H10T12826   1.009   1.698   5.095  0.3945 -1.3615  2.2346
   9523SM  C11S12827   0.879   1.578   5.219  0.9233  1.0129 -0.7494
   9523SM  H11S12828   0.962   1.506   5.229  0.4893  0.6114  0.0773
   9523SM  H11T12829   0.777   1.534   5.208  0.7105  1.5146 -0.8559
   9523SM  C12S12830   0.890   1.661   5.354  0.1244 -0.4924 -0.1368
   9523SM  H12S12831   0.806   1.733   5.358 -1.7038 -2.5862  2.6300
   9523SM  H12T12832   0.978   1.728   5.368 -0.6716  0.5948 -0.1932
   9523SM  C13S12833   0.888   1.569   5.478  0.2821 -0.2282 -0.2120
   9523SM  H13S12834   0.970   1.494   5.478  1.4335  0.9947 -0.5233
   9523SM  H13T12835   0.793   1.514   5.461 -0.4195  0.6841  0.6530
   9523SM  C14S12836   0.884   1.643   5.614  0.1388  0.8905  0.2286
   9523SM  H14S12837   0.813   1.728   5.607 -1.0132  0.0562  1.2181
   9523SM  H14T12838   0.981   1.690   5.641  0.9091 -1.1483  1.2102
   9523SM  C15S12839   0.833   1.549   5.734 -0.7016  0.6478  0.5431
   9523SM  H15S12840   0.911   1.471   5.749 -1.6945 -0.4092  0.3399
   9523SM  H15T12841   0.740   1.499   5.701 -1.0316  1.8553 -0.4298
   9523SM  C16S12842   0.808   1.617   5.867  0.3077 -0.2897 -0.7282
   9523SM  H16S12843   0.750   1.548   5.932  2.3562 -1.0508  0.3721
   9523SM  H16T12844   0.760   1.716   5.853 -0.4317 -0.4813  0.3475
   9523SM  C17S12845   0.943   1.660   5.938  0.1060  0.1421  0.3116
   9523SM  H17S12846   0.992   1.755   5.908 -0.1254  0.3529  0.5976
   9523SM  H17T12847   1.016   1.578   5.919  0.2022 -0.1533  1.8432
   9523SM  C18S12848   0.945   1.668   6.097 -0.4084 -0.5258  0.2829
   9523SM  H18S12849   0.868   1.725   6.154 -0.2025  1.0564 -0.9619
   9523SM  H18T12850   1.052   1.694   6.111 -0.7206 -0.1824  2.2282
   9523SM  H18U12851   0.935   1.560   6.122  0.1948 -0.8749 -0.8724
   9523SM   C1F12852   0.982   1.255   4.314  0.3262  0.4475  0.0893
   9523SM    OF12853   1.053   1.316   4.234 -0.2144  0.0784 -0.1843
   9523SM   C2F12854   1.025   1.133   4.382  0.0495  0.0120  0.3254
   9523SM   H2F12855   1.072   1.069   4.304 -0.0483  3.0171 -2.3982
   9523SM   H2G12856   0.935   1.079   4.416  0.7618 -1.1763  0.3973
   9523SM   C3F12857   1.120   1.154   4.507  0.5542 -0.0661 -0.2476
   9523SM   H3F12858   1.210   1.196   4.456  1.2200 -1.7957 -0.5627
   9523SM   H3G12859   1.148   1.055   4.550  1.7365  0.9136  1.3564
   9523SM   C4F12860   1.060   1.231   4.624 -0.0761 -0.4863  0.4056
   9523SM   H4F12861   0.987   1.165   4.678 -0.9775  0.2764  0.1459
   9523SM   H4G12862   1.011   1.327   4.599  0.4173 -0.2006  0.5412
   9523SM   C5F12863   1.170   1.265   4.729 -0.1356 -0.1342  0.2526
   9523SM   H5F12864   1.266   1.310   4.698 -1.1812  0.7518 -1.9166
   9523SM   H5G12865   1.209   1.166   4.760 -1.1828 -0.8174 -0.5302
   9523SM   C6F12866   1.130   1.336   4.863  0.5891 -0.0224  0.2768
   9523SM   H6F12867   1.028   1.295   4.879  0.7292 -1.3927 -1.9240
   9523SM   H6G12868   1.118   1.446   4.851  0.1843  0.0286  1.0474
   9523SM   C7F12869   1.217   1.304   4.982 -0.0554  0.0827 -0.7753
   9523SM   H7F12870   1.322   1.328   4.955  0.4056 -2.2373 -1.1983
   9523SM   H7G12871   1.223   1.194   4.996  1.8481  0.4709  2.4995
   9523SM   C8F12872   1.188   1.359   5.119 -0.2113  0.1709 -0.3750
   9523SM   H8F12873   1.081   1.341   5.140  0.0019  0.0399  0.6706
   9523SM   H8G12874   1.207   1.468   5.107 -0.5918  0.2654 -0.1258
   9523SM   C9F12875   1.272   1.299   5.229  0.1065 -0.3457 -0.1831
   9523SM   H9F12876   1.379   1.330   5.221 -0.5732  2.4254  0.4756
   9523SM   H9G12877   1.267   1.190   5.208 -2.8577 -0.3286 -0.0056
   9523SM  C10F12878   1.226   1.344   5.372  0.3842  0.0951  0.3088
   9523SM  H10F12879   1.287   1.276   5.436  0.2336 -0.4171 -0.0823
   9523SM  H10G12880   1.119   1.314   5.380  0.3102  0.1363 -0.4032
   9523SM  C11F12881   1.260   1.491   5.397  0.0477 -0.1565 -0.0701
   9523SM  H11F12882   1.185   1.548   5.337 -3.2965 -2.8921  1.1664
   9523SM  H11G12883   1.363   1.523   5.373  0.1452 -0.9372 -0.7118
   9523SM  C12F12884   1.238   1.514   5.549 -0.2859 -0.1140 -0.2458
   9523SM  H12F12885   1.323   1.466   5.601 -0.4977  1.5159  1.7262
   9523SM  H12G12886   1.141   1.473   5.585 -0.3191 -0.5739 -0.8329
   9523SM  C13F12887   1.259   1.668   5.571  0.3124 -0.2553  0.0087
   9523SM  H13F12888   1.178   1.729   5.526  1.2234  0.6187 -0.4941
   9523SM  H13G12889   1.352   1.704   5.520 -0.3323 -0.5334 -1.4106
   9523SM  C14F12890   1.265   1.706   5.723  0.0545  0.3307  0.2052
   9523SM  H14F12891   1.187   1.669   5.793  0.3968 -0.5092  0.1552
   9523SM  H14G12892   1.261   1.817   5.728  0.6971  0.3169  1.3762
   9523SM  C15F12893   1.400   1.658   5.788 -0.1914  0.0497  0.6787
   9523SM  H15F12894   1.479   1.666   5.710  0.6537 -2.7043  1.1600
   9523SM  H15G12895   1.385   1.551   5.812  0.3774  0.3008  2.2957
   9523SM  C16F12896   1.424   1.728   5.920  0.2352 -0.6645  0.6624
   9523SM  H16F12897   1.324   1.718   5.968 -0.2505  1.6984  0.2589
   9523SM  H16G12898   1.437   1.835   5.895 -0.3937 -0.7973 -0.2695
   9523SM  C17F12899   1.537   1.667   6.004 -0.4653  1.5671  0.2350
   9523SM  H17F12900   1.624   1.676   5.937 -0.2889  0.1530  0.2448
   9523SM  H17G12901   1.516   1.559   6.020  0.4847  1.5450  1.4830
   9523SM  C18F12902   1.558   1.738   6.142  0.0601  0.0618  0.7682
   9523SM  H18F12903   1.468   1.711   6.201 -0.5521 -0.9283 -0.5784
   9523SM  H18G12904   1.561   1.849   6.140 -2.3080  0.1716  0.8260
   9523SM  C19F12905   1.674   1.683   6.218 -0.2652 -0.0390 -0.5556
   9523SM  H19F12906   1.773   1.717   6.183  0.5881 -1.5648  0.2398
   9523SM  H19G12907   1.677   1.572   6.217 -0.4640 -0.0598  0.2792
   9523SM  C20F12908   1.662   1.707   6.368  0.0062  0.1436 -1.4050
   9523SM  H20F12909   1.726   1.620   6.393 -1.5935 -0.8559 -0.6668
   9523SM  H20G12910   1.560   1.693   6.409 -0.2285  0.2767 -1.9336
   9523SM  C21F12911   1.723   1.840   6.420 -0.7248  0.1490 -0.3212
   9523SM  H21F12912   1.666   1.931   6.392  1.2321  1.0283 -1.7197
   9523SM  H21G12913   1.824   1.855   6.377 -0.9012  0.6537 -0.5685
   9523SM  C22F12914   1.737   1.844   6.576  0.2891  0.2484  0.0534
   9523SM  H22F12915   1.809   1.762   6.599  0.4829  0.2324 -0.5952
   9523SM  H22G12916   1.637   1.823   6.619  1.2498  0.0630  2.3459
   9523SM  C23F12917   1.790   1.969   6.643  0.3909 -0.6330 -0.4162
   9523SM  H23F12918   1.888   1.993   6.597  1.5608 -1.3978  1.5353
   9523SM  H23G12919   1.803   1.953   6.752 -2.0614 -1.7737 -0.2251
   9523SM  H23H12920   1.715   2.048   6.623  0.7361 -0.3707 -0.6862
   9623SM     N12921   3.326   6.542   3.866 -0.7285 -0.4542  0.0316
   9623SM   C1512922   3.320   6.671   3.796 -0.5247 -0.8399 -0.3033
   9623SM  H15A12923   3.383   6.749   3.836 -2.3584 -0.3708  1.8611
   9623SM  H15B12924   3.221   6.712   3.808 -0.1416 -0.0019  0.1145
   9623SM  H15C12925   3.347   6.669   3.691  0.9307  1.7581 -0.0569
   9623SM   C1412926   3.247   6.433   3.794  0.1839 -0.2537 -0.1297
   9623SM  H14A12927   3.283   6.410   3.695 -0.0705 -0.3186 -0.2086
   9623SM  H14B12928   3.153   6.479   3.767  0.9666  0.9814 -0.8202
   9623SM  H14C12929   3.238   6.347   3.859 -0.2534  0.8577  1.3413
   9623SM   C1312930   3.464   6.499   3.872  0.5540 -0.6917 -0.6110
   9623SM  H13A12931   3.471   6.399   3.913 -0.9204 -0.6289 -0.1253
   9623SM  H13B12932   3.518   6.562   3.940 -1.0110  0.7411 -0.6330
   9623SM  H13C12933   3.510   6.511   3.775 -0.2180  0.3010 -0.8632
   9623SM   C1212934   3.265   6.550   4.012  0.0552 -0.4480 -0.0591
   9623SM  H12A12935   3.339   6.590   4.080 -0.3806 -0.2734  0.3166
   9623SM  H12B12936   3.235   6.451   4.044 -3.5877  0.1017 -1.3496
   9623SM   C1112937   3.129   6.627   4.035 -0.2091 -0.8832  0.3017
   9623SM  H11A12938   3.143   6.736   4.054 -0.9087 -1.0129  1.5976
   9623SM  H11B12939   3.085   6.585   4.127 -1.5212  1.7809  0.9875
   9623SM     P12940   2.935   6.709   3.883  0.0062 -0.1838 -0.5413
   9623SM   O1312941   3.009   6.816   3.820 -0.1627  0.3502  0.3759
   9623SM   O1412942   2.846   6.625   3.793 -0.2180 -0.5131  0.4705
   9623SM   O1112943   2.862   6.757   4.017  0.7013 -0.1671 -0.1170
   9623SM   O1212944   3.042   6.610   3.931 -0.2974  0.0538 -0.0690
   9623SM   C1S12945   2.797   6.652   4.098 -0.2260 -0.4236 -0.4948
   9623SM   H1S12946   2.861   6.561   4.105 -0.2907 -0.4343 -0.0708
   9623SM   H1T12947   2.698   6.626   4.055 -0.3186  1.1829 -1.3514
   9623SM    NF12948   2.739   6.603   4.326 -0.0877 -0.6673  0.0082
   9623SM   HNF12949   2.641   6.590   4.338 -0.1129 -0.7001 -0.2244
   9623SM   C2S12950   2.781   6.711   4.242 -0.3362 -0.2610  0.3756
   9623SM   H2S12951   2.883   6.743   4.273 -0.5293  0.0505  0.7046
   9623SM   C3S12952   2.690   6.842   4.247  0.4793  0.1685 -0.6245
   9623SM   H3S12953   2.587   6.820   4.213 -0.5701  2.8984  0.4544
   9623SM    O312954   2.723   6.937   4.153 -0.5704 -0.1728  0.4679
   9623SM   HO312955   2.786   6.887   4.100  0.3268  2.4527 -1.1721
   9623SM   C4S12956   2.672   6.889   4.384 -0.5273  0.1183  0.2951
   9623SM   H4S12957   2.635   6.808   4.449  2.5389 -0.8280  1.0400
   9623SM   C5S12958   2.674   7.016   4.436 -0.6658 -0.4675 -0.2112
   9623SM   H5S12959   2.688   7.102   4.368  0.6276 -0.3288  0.2012
   9623SM   C6S12960   2.638   7.046   4.585  0.5578  0.4062 -0.7211
   9623SM   H6S12961   2.540   7.000   4.611  0.1682  1.1283 -0.8676
   9623SM   H6T12962   2.628   7.156   4.601  2.6326  0.6766 -1.0034
   9623SM   C7S12963   2.736   6.985   4.689 -0.8422  0.5398 -0.1775
   9623SM   H7S12964   2.829   7.045   4.684 -0.9677  0.7479 -0.0499
   9623SM   H7T12965   2.760   6.877   4.676 -0.8849  0.2280  1.9025
   9623SM   C8S12966   2.672   7.005   4.827 -0.0228  0.8239  0.1614
   9623SM   H8S12967   2.566   6.973   4.835  0.4234 -1.4042 -1.7209
   9623SM   H8T12968   2.664   7.114   4.847 -3.1371  0.7643 -0.2638
   9623SM   C9S12969   2.767   6.935   4.930 -0.0690  0.6164 -1.0953
   9623SM   H9S12970   2.731   6.961   5.032  0.4850 -0.8226 -0.5078
   9623SM   H9T12971   2.874   6.964   4.922  1.3328 -3.3437  0.4718
   9623SM  C10S12972   2.775   6.779   4.932 -0.2820 -0.0231 -0.5258
   9623SM  H10S12973   2.850   6.738   4.862  1.5824  0.8184  0.8873
   9623SM  H10T12974   2.676   6.739   4.902  0.7682 -2.3306 -1.1574
   9623SM  C11S12975   2.816   6.724   5.068 -0.4371 -0.6334  0.0909
   9623SM  H11S12976   2.767   6.776   5.153 -0.7422 -0.3460 -0.2575
   9623SM  H11T12977   2.920   6.761   5.073 -0.6740  0.7079 -2.7173
   9623SM  C12S12978   2.798   6.578   5.095 -0.4358 -0.2935 -0.6379
   9623SM  H12S12979   2.868   6.524   5.027 -0.7270 -0.3068 -0.9282
   9623SM  H12T12980   2.695   6.547   5.068  0.0371  0.2806 -3.3268
   9623SM  C13S12981   2.832   6.545   5.242 -0.0395 -0.1722  0.4620
   9623SM  H13S12982   2.820   6.435   5.249  0.0687 -0.2091  0.0524
   9623SM  H13T12983   2.768   6.597   5.317 -0.6056 -1.2521  0.7445
   9623SM  C14S12984   2.972   6.593   5.289 -0.0047  0.0403 -0.4496
   9623SM  H14S12985   2.985   6.702   5.301  0.8449 -0.0829 -0.2321
   9623SM  H14T12986   3.038   6.556   5.208 -0.8791 -2.2686 -0.1804
   9623SM  C15S12987   3.030   6.522   5.411 -0.3503 -0.2895  0.4117
   9623SM  H15S12988   3.138   6.508   5.389 -0.9502 -3.3733 -1.1741
   9623SM  H15T12989   2.971   6.428   5.420 -1.5560  0.6551  4.0629
   9623SM  C16S12990   3.004   6.612   5.533  0.3514 -0.3192 -0.5439
   9623SM  H16S12991   2.897   6.641   5.539  0.4621  0.0178 -0.1555
   9623SM  H16T12992   3.052   6.711   5.514 -1.6493  1.1630  1.5812
   9623SM  C17S12993   3.039   6.568   5.679 -0.1126  0.1733 -0.6897
   9623SM  H17S12994   3.146   6.537   5.675 -0.9117 -3.5156  1.5115
   9623SM  H17T12995   2.976   6.478   5.698  1.4589 -0.9757 -0.6292
   9623SM  C18S12996   3.008   6.652   5.798 -0.2693 -0.5866 -1.2105
   9623SM  H18S12997   3.000   6.757   5.763  1.7886 -0.7609 -2.3447
   9623SM  H18T12998   3.079   6.660   5.883 -2.0379  0.4407  0.2615
   9623SM  H18U12999   2.915   6.621   5.851 -0.3631  2.5979  0.7488
   9623SM   C1F13000   2.822   6.514   4.374  0.8355 -0.3200  0.5346
   9623SM    OF13001   2.941   6.510   4.340  0.1362 -0.0890 -0.4238
   9623SM   C2F13002   2.757   6.403   4.453  0.1447  0.0319  0.9651
   9623SM   H2F13003   2.824   6.316   4.436  0.5054  0.6421 -1.0319
   9623SM   H2G13004   2.653   6.386   4.420  1.5059 -0.6358 -3.5848
   9623SM   C3F13005   2.755   6.429   4.605 -0.1146 -0.4751  0.8674
   9623SM   H3F13006   2.706   6.526   4.627  1.0676  0.6075 -0.9663
   9623SM   H3G13007   2.859   6.438   4.643  1.4176  1.2119 -3.1152
   9623SM   C4F13008   2.687   6.325   4.692  0.3525 -0.4846  0.2569
   9623SM   H4F13009   2.719   6.226   4.653 -0.1922 -1.1318  1.4106
   9623SM   H4G13010   2.577   6.330   4.674  0.4101 -0.3257 -0.0496
   9623SM   C5F13011   2.724   6.331   4.835  0.1125 -0.0485  0.2681
   9623SM   H5F13012   2.712   6.427   4.888  0.6617  0.9558 -1.3391
   9623SM   H5G13013   2.832   6.311   4.823  0.3847 -0.3467  2.7696
   9623SM   C6F13014   2.674   6.217   4.926  0.1562  0.0944 -0.4915
   9623SM   H6F13015   2.718   6.231   5.027  0.0646 -0.6058 -0.3452
   9623SM   H6G13016   2.718   6.118   4.899  0.5047 -0.4111  1.7555
   9623SM   C7F13017   2.515   6.208   4.938  0.1606  0.7884 -0.2951
   9623SM   H7F13018   2.465   6.225   4.840 -0.1017  1.3679 -0.0641
   9623SM   H7G13019   2.473   6.280   5.011 -2.1503 -0.6736 -0.0515
   9623SM   C8F13020   2.466   6.067   4.981  0.4534 -0.4209 -0.1577
   9623SM   H8F13021   2.514   5.991   4.916  0.3193 -2.0348  1.5285
   9623SM   H8G13022   2.356   6.067   4.964  0.2317 -1.3872  1.0967
   9623SM   C9F13023   2.484   6.029   5.131 -0.1926 -0.3631  0.6559
   9623SM   H9F13024   2.594   6.042   5.143 -0.2459  1.7339 -0.6171
   9623SM   H9G13025   2.439   5.928   5.141 -1.8276  0.3232  0.5726
   9623SM  C10F13026   2.424   6.134   5.226 -0.5493 -0.1198 -1.4505
   9623SM  H10F13027   2.320   6.147   5.192 -0.6657 -1.5977 -1.7391
   9623SM  H10G13028   2.485   6.226   5.217 -0.9563  0.1945 -0.9869
   9623SM  C11F13029   2.409   6.085   5.371  1.0312 -0.0135 -0.4436
   9623SM  H11F13030   2.355   5.988   5.373  2.7006 -0.9885 -0.5117
   9623SM  H11G13031   2.346   6.154   5.430 -0.0619 -0.3200 -1.2176
   9623SM  C12F13032   2.535   6.041   5.448  0.1073 -0.6191  0.4345
   9623SM  H12F13033   2.595   6.134   5.453  1.5163 -1.1628 -3.0564
   9623SM  H12G13034   2.592   5.971   5.383 -1.6921  0.5831 -2.6447
   9623SM  C13F13035   2.511   5.973   5.579 -0.5845  0.2856  0.3195
   9623SM  H13F13036   2.608   5.956   5.632 -1.1788 -1.2730  0.9641
   9623SM  H13G13037   2.466   5.873   5.563  0.2351 -0.1253  0.5101
   9623SM  C14F13038   2.410   6.048   5.665 -0.6482  0.0704 -0.2129
   9623SM  H14F13039   2.308   6.021   5.632 -0.1246 -0.2443 -1.6290
   9623SM  H14G13040   2.413   6.155   5.639 -0.5788  0.0296 -0.3722
   9623SM  C15F13041   2.424   6.030   5.813  0.3846  0.3329 -0.2639
   9623SM  H15F13042   2.463   5.928   5.832 -0.2152  0.3461  1.2076
   9623SM  H15G13043   2.327   6.042   5.866 -0.3745 -3.2185 -0.6156
   9623SM  C16F13044   2.517   6.130   5.889  0.0774 -0.7124 -0.7199
   9623SM  H16F13045   2.506   6.113   5.999 -1.8168  1.0817 -0.5634
   9623SM  H16G13046   2.482   6.232   5.862  1.6014 -0.2300 -0.9713
   9623SM  C17F13047   2.661   6.104   5.859 -0.2939 -0.4942 -0.2406
   9623SM  H17F13048   2.675   6.110   5.749 -0.9519 -2.7228 -0.4904
   9623SM  H17G13049   2.687   5.997   5.873 -0.4365 -0.6634 -1.1655
   9623SM  C18F13050   2.760   6.198   5.935  0.5254  0.1499 -0.0858
   9623SM  H18F13051   2.744   6.186   6.045  0.5645  0.4755 -0.0458
   9623SM  H18G13052   2.733   6.299   5.899 -0.9069 -0.0609  0.3410
   9623SM  C19F13053   2.908   6.177   5.905 -0.3715 -0.5155 -0.2919
   9623SM  H19F13054   2.931   6.226   5.808  0.2010 -2.2084 -1.0544
   9623SM  H19G13055   2.914   6.067   5.892 -2.1029 -0.7017  0.3072
   9623SM  C20F13056   3.009   6.229   6.010 -0.9244  0.6279 -0.2075
   9623SM  H20F13057   2.959   6.225   6.109 -0.2793 -1.5355  0.0965
   9623SM  H20G13058   3.045   6.330   5.982 -0.1264 -0.0689 -1.8378
   9623SM  C21F13059   3.133   6.141   6.028 -0.6428 -0.3356  0.1675
   9623SM  H21F13060   3.104   6.041   6.066  1.3364 -1.1453 -0.2885
   9623SM  H21G13061   3.189   6.192   6.109  0.9954  0.2107 -1.2391
   9623SM  C22F13062   3.227   6.133   5.908 -0.2422 -0.3212 -0.1136
   9623SM  H22F13063   3.162   6.100   5.824  0.1153 -0.5071 -0.3186
   9623SM  H22G13064   3.303   6.052   5.914 -0.7847 -0.7502  1.3073
   9623SM  C23F13065   3.290   6.275   5.873 -0.5356  1.0610 -0.1632
   9623SM  H23F13066   3.215   6.357   5.862 -0.4858  1.0502 -0.6244
   9623SM  H23G13067   3.337   6.265   5.773  1.6910 -3.3831  1.0961
   9623SM  H23H13068   3.363   6.310   5.949 -2.4982  2.1825  1.3113
   9723SM     N13069   2.933   0.341   3.215 -0.5830  0.4678  0.2517
   9723SM   C1513070   2.879   0.320   3.079  0.3107  0.4930 -0.1977
   9723SM  H15A13071   2.845   0.416   3.042  0.6466  0.5037 -0.4779
   9723SM  H15B13072   2.803   0.245   3.064 -0.4029  1.7040 -3.4259
   9723SM  H15C13073   2.960   0.302   3.010  0.1091  3.0444 -1.2083
   9723SM   C1413074   2.813   0.368   3.297 -0.2350 -0.5011  0.6541
   9723SM  H14A13075   2.746   0.283   3.291 -0.0634 -0.5647 -0.4928
   9723SM  H14B13076   2.763   0.460   3.272 -0.2720 -0.2384  1.6330
   9723SM  H14C13077   2.836   0.384   3.401  1.4253  0.6319  0.1378
   9723SM   C1313078   2.991   0.217   3.262  0.1293  0.2237  0.6694
   9723SM  H13A13079   3.066   0.185   3.191 -2.4187 -3.8295 -0.5537
   9723SM  H13B13080   2.909   0.146   3.263 -0.4092  0.8472  1.2242
   9723SM  H13C13081   3.047   0.217   3.354 -1.6027  0.0200  1.7701
   9723SM   C1213082   3.032   0.459   3.219 -0.3219 -0.1447 -0.0143
   9723SM  H12A13083   2.981   0.546   3.180  1.1474 -0.2238 -2.3078
   9723SM  H12B13084   3.105   0.440   3.142 -0.6230  1.4672 -0.7454
   9723SM   C1113085   3.098   0.498   3.351  0.2089  0.1336  0.1235
   9723SM  H11A13086   3.017   0.531   3.419 -2.3007 -2.1599 -1.5557
   9723SM  H11B13087   3.166   0.585   3.338  1.6996 -0.2067  4.0582
   9723SM     P13088   3.317   0.365   3.386  0.2304 -0.0049  0.1192
   9723SM   O1313089   3.361   0.225   3.423  0.4147 -0.1781  0.5636
   9723SM   O1413090   3.344   0.410   3.250 -0.3162  0.2700 -0.3084
   9723SM   O1113091   3.382   0.474   3.478 -0.3559 -0.1143  0.2226
   9723SM   O1213092   3.163   0.385   3.400  0.2766  0.3730 -0.5081
   9723SM   C1S13093   3.348   0.465   3.614 -1.1063 -0.3681 -0.3113
   9723SM   H1S13094   3.372   0.366   3.658 -3.9480 -1.3650 -0.7523
   9723SM   H1T13095   3.238   0.473   3.631 -1.2694 -3.9016  1.1560
   9723SM    NF13096   3.401   0.532   3.832 -0.2138  0.3355  0.2798
   9723SM   HNF13097   3.318   0.574   3.870 -0.2569  2.8474 -2.1932
   9723SM   C2S13098   3.430   0.576   3.697 -0.3453  0.4133  0.1139
   9723SM   H2S13099   3.538   0.564   3.672 -0.4782  2.4330 -1.6439
   9723SM   C3S13100   3.382   0.714   3.659 -0.9709  0.4890  0.0883
   9723SM   H3S13101   3.271   0.706   3.664 -0.8827 -1.0609 -0.0484
   9723SM    O313102   3.424   0.753   3.524  0.1721  0.4526 -0.4589
   9723SM   HO313103   3.428   0.667   3.482  0.5005  0.1938  0.0943
   9723SM   C4S13104   3.439   0.800   3.766 -0.1351  0.5128  0.0042
   9723SM   H4S13105   3.378   0.805   3.857 -1.1489  1.9629 -0.7264
   9723SM   C5S13106   3.566   0.847   3.765 -0.2123 -0.0929 -0.1339
   9723SM   H5S13107   3.633   0.825   3.680  1.3431  0.5768  0.8612
   9723SM   C6S13108   3.633   0.917   3.887 -0.3247 -0.3106  0.1707
   9723SM   H6S13109   3.561   0.994   3.923  2.1189  1.9586  0.5083
   9723SM   H6T13110   3.734   0.959   3.865 -0.0551 -1.2319 -0.4143
   9723SM   C7S13111   3.648   0.796   3.988  0.6149  0.0265  0.0061
   9723SM   H7S13112   3.696   0.720   3.923  0.1341  0.3319 -0.7041
   9723SM   H7T13113   3.547   0.765   4.021  0.3703  0.6826 -0.0937
   9723SM   C8S13114   3.721   0.836   4.119 -0.3822 -0.1319 -1.0782
   9723SM   H8S13115   3.667   0.926   4.155  0.7854  0.5929 -1.0935
   9723SM   H8T13116   3.824   0.866   4.090 -0.7552  1.5885 -0.7321
   9723SM   C9S13117   3.731   0.719   4.208 -0.4323  0.2214 -0.0575
   9723SM   H9S13118   3.633   0.669   4.225 -0.8034  1.0355  0.2493
   9723SM   H9T13119   3.759   0.764   4.306  1.0561  0.7002 -0.6759
   9723SM  C10S13120   3.829   0.608   4.159  0.0228 -0.7130 -0.3998
   9723SM  H10S13121   3.925   0.648   4.119 -0.0511  1.1152  1.1239
   9723SM  H10T13122   3.777   0.555   4.076  0.7610 -3.5131  0.8245
   9723SM  C11S13123   3.867   0.502   4.266  0.8395  0.2648 -0.1051
   9723SM  H11S13124   3.775   0.455   4.306  2.1574 -1.3794  1.1234
   9723SM  H11T13125   3.918   0.555   4.349  1.2515 -1.1166  0.5473
   9723SM  C12S13126   3.956   0.396   4.201  0.2710  0.0328  0.0781
   9723SM  H12S13127   4.029   0.454   4.141 -1.3127  0.4919 -1.5153
   9723SM  H12T13128   3.876   0.355   4.135 -2.9059  0.3216  3.4312
   9723SM  C13S13129   4.030   0.289   4.285  0.5052  0.2624 -0.3678
   9723SM  H13S13130   4.117   0.327   4.343  0.9401 -1.8807  0.4663
   9723SM  H13T13131   4.066   0.215   4.210  0.2316  1.3918 -1.6647
   9723SM  C14S13132   3.934   0.224   4.382  1.0642  0.5710 -0.3306
   9723SM  H14S13133   3.865   0.160   4.323  0.3184  2.6594 -1.8353
   9723SM  H14T13134   3.867   0.294   4.436  0.8559  0.6466 -0.6823
   9723SM  C15S13135   3.998   0.126   4.484 -0.1100 -0.1696 -0.1522
   9723SM  H15S13136   4.066   0.069   4.417 -0.9533 -2.1790  0.6223
   9723SM  H15T13137   3.924   0.054   4.525 -1.3865  1.5100  0.5936
   9723SM  C16S13138   4.057   0.202   4.604 -0.3646 -0.8310 -0.1487
   9723SM  H16S13139   4.117   0.284   4.560 -2.5136 -0.0629 -1.8062
   9723SM  H16T13140   4.134   0.139   4.653  0.8041  0.5046 -0.2030
   9723SM  C17S13141   3.955   0.257   4.707 -0.4882 -0.4384  0.4826
   9723SM  H17S13142   3.884   0.173   4.720  0.4432 -1.3758 -0.2085
   9723SM  H17T13143   3.893   0.336   4.660 -1.5183 -1.0928  0.7220
   9723SM  C18S13144   4.023   0.304   4.838  0.4830  0.0250 -0.1830
   9723SM  H18S13145   4.103   0.376   4.810  0.0141  1.0796  1.0626
   9723SM  H18T13146   4.058   0.219   4.900 -1.0266 -0.5071 -0.0109
   9723SM  H18U13147   3.950   0.361   4.900  0.9406 -1.4667  1.8416
   9723SM   C1F13148   3.473   0.450   3.907 -0.3823 -0.0966  0.5877
   9723SM    OF13149   3.572   0.398   3.864 -0.3295  0.3878  0.6696
   9723SM   C2F13150   3.425   0.425   4.050  0.3718 -0.3322  0.1325
   9723SM   H2F13151   3.315   0.411   4.045  0.3447  0.2787 -3.3980
   9723SM   H2G13152   3.447   0.518   4.108  2.7274 -1.3955  1.0683
   9723SM   C3F13153   3.493   0.310   4.117  0.2996 -0.1428 -0.3764
   9723SM   H3F13154   3.603   0.306   4.114  0.3103 -0.6782  0.5919
   9723SM   H3G13155   3.453   0.213   4.081 -2.1024 -0.2589  2.2097
   9723SM   C4F13156   3.447   0.313   4.269 -0.3149 -0.7829  0.5699
   9723SM   H4F13157   3.345   0.270   4.264  0.0198 -1.6494  1.0267
   9723SM   H4G13158   3.439   0.417   4.307 -0.6906 -1.1493  1.5237
   9723SM   C5F13159   3.549   0.243   4.365 -0.2293 -0.3893  0.6353
   9723SM   H5F13160   3.651   0.281   4.345 -0.4370  0.1915  0.6709
   9723SM   H5G13161   3.549   0.134   4.339  1.7823 -0.5252  1.0704
   9723SM   C6F13162   3.517   0.276   4.511 -0.2732 -0.4637 -0.1757
   9723SM   H6F13163   3.552   0.186   4.566  1.5257 -0.2718 -0.9187
   9723SM   H6G13164   3.406   0.277   4.521 -0.1202 -0.0716  2.3742
   9723SM   C7F13165   3.592   0.403   4.562  0.6890 -0.1634  0.1235
   9723SM   H7F13166   3.584   0.491   4.496  3.2835  0.1852  0.1729
   9723SM   H7G13167   3.699   0.373   4.567  0.3463 -1.5131 -0.1119
   9723SM   C8F13168   3.561   0.448   4.702  0.0600 -0.0258 -0.4773
   9723SM   H8F13169   3.555   0.354   4.762  0.4420 -0.1766 -0.6732
   9723SM   H8G13170   3.458   0.487   4.716 -0.4145 -1.5557  0.6053
   9723SM   C9F13171   3.667   0.548   4.751 -0.1080 -0.0771  0.2909
   9723SM   H9F13172   3.667   0.636   4.684  0.9830  1.5962  2.3807
   9723SM   H9G13173   3.771   0.508   4.744  0.1322  0.4706  0.6414
   9723SM  C10F13174   3.638   0.608   4.891 -0.0886  0.2998 -0.1567
   9723SM  H10F13175   3.529   0.616   4.907  0.1552  2.2665  0.7284
   9723SM  H10G13176   3.667   0.714   4.879  1.6686 -0.3623 -2.7713
   9723SM  C11F13177   3.705   0.542   5.013  0.2378  0.1589 -0.1939
   9723SM  H11F13178   3.815   0.523   5.005 -0.2477 -2.8582 -0.9973
   9723SM  H11G13179   3.667   0.438   5.018  0.6497 -0.0433 -1.0958
   9723SM  C12F13180   3.661   0.621   5.144 -0.1511  0.0685  0.4302
   9723SM  H12F13181   3.551   0.617   5.164 -0.8678  0.8495 -2.7122
   9723SM  H12G13182   3.682   0.729   5.129  0.0367 -0.0309 -0.0529
   9723SM  C13F13183   3.737   0.571   5.268 -0.8141  0.1071 -0.4073
   9723SM  H13F13184   3.839   0.614   5.265 -1.0886  1.3102  2.9581
   9723SM  H13G13185   3.749   0.461   5.262 -0.2065  0.0595  1.2329
   9723SM  C14F13186   3.685   0.625   5.398  0.4157 -0.1685 -0.5259
   9723SM  H14F13187   3.574   0.634   5.400  0.4858  0.7869 -0.5578
   9723SM  H14G13188   3.731   0.725   5.415 -3.0319  1.3525  0.8027
   9723SM  C15F13189   3.712   0.521   5.516 -0.0918 -0.0033  0.6644
   9723SM  H15F13190   3.823   0.509   5.523 -0.3314 -2.3825  1.3780
   9723SM  H15G13191   3.676   0.422   5.482 -1.8820  1.1430 -0.9917
   9723SM  C16F13192   3.644   0.560   5.645  0.1681 -0.5574  0.0155
   9723SM  H16F13193   3.535   0.556   5.624  0.3238  1.1009 -1.3049
   9723SM  H16G13194   3.662   0.663   5.680 -0.0127 -0.5248  0.0125
   9723SM  C17F13195   3.671   0.469   5.767  0.4642  0.3927 -0.2243
   9723SM  H17F13196   3.641   0.366   5.738 -1.9086  1.1717 -0.8130
   9723SM  H17G13197   3.599   0.502   5.845  0.5816 -0.0387  0.0665
   9723SM  C18F13198   3.818   0.483   5.806 -0.1618 -0.2402 -0.2250
   9723SM  H18F13199   3.835   0.593   5.809  0.3299 -0.0774 -3.8743
   9723SM  H18G13200   3.876   0.441   5.721 -0.6310 -0.0307 -0.6560
   9723SM  C19F13201   3.854   0.405   5.938 -0.6779 -0.3254  0.4101
   9723SM  H19F13202   3.850   0.294   5.928 -1.5800 -0.2310 -0.4232
   9723SM  H19G13203   3.779   0.419   6.019 -0.1925 -1.3664  1.0655
   9723SM  C20F13204   3.993   0.460   5.986  0.6877  0.4241  0.4026
   9723SM  H20F13205   3.979   0.555   6.041  2.8440  3.5880 -3.9194
   9723SM  H20G13206   4.050   0.490   5.895  0.7951  2.3325  1.0674
   9723SM  C21F13207   4.085   0.361   6.065  0.2106 -0.2780  0.3100
   9723SM  H21F13208   4.019   0.318   6.143  0.8172 -0.5665  0.6724
   9723SM  H21G13209   4.156   0.425   6.122 -1.1842  2.7779 -1.1091
   9723SM  C22F13210   4.154   0.248   5.992 -0.2905  0.5163  0.0413
   9723SM  H22F13211   4.085   0.168   5.956  1.2573 -0.9506  0.2222
   9723SM  H22G13212   4.210   0.188   6.067 -1.7760  1.3846  1.9433
   9723SM  C23F13213   4.238   0.293   5.873 -0.2471 -0.4781 -0.9307
   9723SM  H23F13214   4.170   0.324   5.791  0.7004  1.5386 -1.0292
   9723SM  H23G13215   4.311   0.213   5.848  1.2165  0.8902 -1.1808
   9723SM  H23H13216   4.304   0.377   5.903 -1.0659  0.4388 -1.6339
   9823SM     N13217   6.366   5.402   3.284  0.1515  0.2532  0.1754
   9823SM   C1513218   6.353   5.259   3.318 -0.0484 -0.1994  0.4499
   9823SM  H15A13219   6.427   5.199   3.268  0.8164  1.1635  0.0241
   9823SM  H15B13220   6.254   5.224   3.294  0.2910 -1.3899  0.7047
   9823SM  H15C13221   6.365   5.243   3.425  1.1491 -1.8818  0.1117
   9823SM   C1413222   6.508   5.447   3.315 -0.4387  0.3012 -0.0676
   9823SM  H14A13223   6.582   5.385   3.266  0.6984 -0.1916  2.1175
   9823SM  H14B13224   6.540   5.445   3.418  1.9510 -0.3727 -0.7711
   9823SM  H14C13225   6.535   5.545   3.280 -0.5359  0.6378  0.7746
   9823SM   C1313226   6.340   5.418   3.138 -0.0683 -0.6656  0.1139
   9823SM  H13A13227   6.365   5.516   3.101 -0.8775  0.5266  2.4559
   9823SM  H13B13228   6.238   5.393   3.113 -0.1241 -0.3516  0.0234
   9823SM  H13C13229   6.398   5.344   3.086  0.2019  0.5933 -1.4637
   9823SM   C1213230   6.265   5.482   3.364  0.0657  0.1241  0.0665
   9823SM  H12A13231   6.173   5.426   3.365  1.0880 -1.6374 -0.7576
   9823SM  H12B13232   6.248   5.571   3.305  3.6216  1.0105  0.1371
   9823SM   C1113233   6.293   5.528   3.513 -0.2363 -0.1763  0.1240
   9823SM  H11A13234   6.316   5.441   3.578 -0.3648 -0.5362 -0.3097
   9823SM  H11B13235   6.201   5.577   3.552  0.2308  0.7877  0.0351
   9823SM     P13236   6.417   5.753   3.459  0.3423  0.1892 -0.0781
   9823SM   O1313237   6.562   5.785   3.427  0.3317  0.2301  0.4598
   9823SM   O1413238   6.310   5.770   3.358 -0.0675 -0.2048  0.6509
   9823SM   O1113239   6.374   5.841   3.582 -0.5014 -0.0191 -0.0888
   9823SM   O1213240   6.407   5.610   3.523  0.3357  0.5583  0.0252
   9823SM   C1S13241   6.476   5.870   3.678  0.2478 -0.2592  0.6560
   9823SM   H1S13242   6.536   5.956   3.640 -1.1376  0.5535  0.1959
   9823SM   H1T13243   6.548   5.786   3.681  0.6732 -0.0529 -1.7061
   9823SM    NF13244   6.519   5.937   3.912 -0.3041  0.4238  0.0299
   9823SM   HNF13245   6.546   5.883   3.992 -1.4763  0.7671  0.6683
   9823SM   C2S13246   6.412   5.888   3.821  0.3802  0.3118 -0.5255
   9823SM   H2S13247   6.335   5.967   3.810 -0.0452 -0.2939 -2.5229
   9823SM   C3S13248   6.337   5.757   3.868 -0.6153  0.0186  0.0839
   9823SM   H3S13249   6.412   5.676   3.879 -2.1199 -1.4051  0.2760
   9823SM    O313250   6.247   5.693   3.776 -0.2997 -0.1120 -0.1768
   9823SM   HO313251   6.259   5.719   3.685  1.3448 -1.1903 -0.3134
   9823SM   C4S13252   6.283   5.776   4.010 -0.1457  0.6451 -0.9226
   9823SM   H4S13253   6.361   5.757   4.085 -1.8885 -0.9381  0.5898
   9823SM   C5S13254   6.158   5.804   4.056 -0.1095 -0.4571  0.4667
   9823SM   H5S13255   6.073   5.815   3.987 -1.3662 -1.2445  1.8272
   9823SM   C6S13256   6.110   5.819   4.200 -0.5014 -0.4006  0.7825
   9823SM   H6S13257   6.042   5.734   4.226  0.2567 -0.3008  3.4363
   9823SM   H6T13258   6.044   5.908   4.206 -0.6555 -0.2344 -2.0332
   9823SM   C7S13259   6.217   5.834   4.305  0.8536 -0.4468  0.4724
   9823SM   H7S13260   6.275   5.918   4.261  0.0051  0.0982  0.3677
   9823SM   H7T13261   6.284   5.746   4.305 -0.1848 -1.2873  2.0912
   9823SM   C8S13262   6.168   5.862   4.445  1.1086 -0.1005  0.0282
   9823SM   H8S13263   6.089   5.788   4.470 -0.5906  0.4020 -3.2672
   9823SM   H8T13264   6.114   5.959   4.447 -1.4375 -1.4305  1.4347
   9823SM   C9S13265   6.277   5.874   4.549  0.0076 -0.7750  0.5375
   9823SM   H9S13266   6.366   5.929   4.512 -0.1099 -0.5924  0.5248
   9823SM   H9T13267   6.316   5.771   4.560  3.1832  0.4556  2.1795
   9823SM  C10S13268   6.220   5.937   4.681 -0.4375  0.6775  0.2958
   9823SM  H10S13269   6.129   5.884   4.717 -0.3006  0.8200  0.8521
   9823SM  H10T13270   6.208   6.044   4.656 -2.2298  0.0511 -1.9244
   9823SM  C11S13271   6.318   5.918   4.801 -0.9124  0.3362  0.2622
   9823SM  H11S13272   6.419   5.947   4.767  0.6865 -2.3128  2.3585
   9823SM  H11T13273   6.322   5.814   4.841 -0.5756  0.2975  0.1257
   9823SM  C12S13274   6.280   5.995   4.928  0.0469 -0.5875 -0.2965
   9823SM  H12S13275   6.189   5.948   4.972 -0.6716  1.9706  1.1044
   9823SM  H12T13276   6.263   6.100   4.899 -0.2988 -1.1792 -2.4392
   9823SM  C13S13277   6.387   5.994   5.033 -0.1083  0.5955 -0.1414
   9823SM  H13S13278   6.465   6.065   4.998  2.2182 -1.9227 -0.3819
   9823SM  H13T13279   6.441   5.897   5.035  1.1924  1.2701 -1.0815
   9823SM  C14S13280   6.334   6.021   5.175  0.0562 -0.0698 -0.0847
   9823SM  H14S13281   6.282   5.932   5.218 -1.2679  1.2113  1.0859
   9823SM  H14T13282   6.265   6.108   5.166  0.5941  0.6597  2.3107
   9823SM  C15S13283   6.453   6.055   5.266  0.7056  0.2117  0.7867
   9823SM  H15S13284   6.509   6.144   5.229  0.7509  0.4780  1.4861
   9823SM  H15T13285   6.526   5.971   5.256  1.5987  0.9884  0.5683
   9823SM  C16S13286   6.417   6.089   5.412 -0.8000  0.4454  0.2012
   9823SM  H16S13287   6.351   6.177   5.394 -0.4973  0.3369 -1.6530
   9823SM  H16T13288   6.506   6.125   5.468 -0.7678  1.2678 -0.3644
   9823SM  C17S13289   6.342   5.977   5.478  0.1686  0.7762 -0.1586
   9823SM  H17S13290   6.407   5.887   5.478  1.5742  1.7613 -0.4773
   9823SM  H17T13291   6.253   5.955   5.415 -0.9049 -0.1382  1.6034
   9823SM  C18S13292   6.295   6.005   5.620  0.2901  0.1363 -0.5046
   9823SM  H18S13293   6.207   5.940   5.635  1.1947 -1.0989 -0.3743
   9823SM  H18T13294   6.266   6.110   5.642  1.1386 -0.3310  3.5864
   9823SM  H18U13295   6.371   5.973   5.695  0.3569  0.1175 -0.5812
   9823SM   C1F13296   6.572   6.061   3.904  0.0151  0.2473  0.3319
   9823SM    OF13297   6.530   6.137   3.819 -0.1773 -0.4594 -0.5416
   9823SM   C2F13298   6.694   6.075   3.998 -0.1825 -0.6419 -0.0030
   9823SM   H2F13299   6.785   6.025   3.961  0.3018  0.3385 -0.1760
   9823SM   H2G13300   6.653   6.027   4.089 -3.7886  0.9723 -0.6115
   9823SM   C3F13301   6.732   6.222   4.030 -0.5762 -0.2027 -0.4557
   9823SM   H3F13302   6.784   6.281   3.952  3.7777 -0.4285  1.9526
   9823SM   H3G13303   6.815   6.209   4.103  0.1631 -0.2213 -1.2852
   9823SM   C4F13304   6.617   6.315   4.089  0.8155  0.0666 -0.4136
   9823SM   H4F13305   6.544   6.328   4.006  0.4804 -1.8836 -0.4523
   9823SM   H4G13306   6.656   6.415   4.119  0.4425 -0.2571  1.2357
   9823SM   C5F13307   6.543   6.248   4.205 -0.0202 -0.3187 -0.3789
   9823SM   H5F13308   6.617   6.203   4.276 -2.0607 -1.7454  0.9673
   9823SM   H5G13309   6.482   6.163   4.168  0.8663 -0.7036 -1.0048
   9823SM   C6F13310   6.455   6.352   4.282  0.1176  0.1977  0.6929
   9823SM   H6F13311   6.396   6.394   4.198  1.0433  0.9515  0.3993
   9823SM   H6G13312   6.521   6.435   4.317  1.5652 -0.8064  0.4528
   9823SM   C7F13313   6.372   6.308   4.401 -0.3816 -0.1987  0.0808
   9823SM   H7F13314   6.411   6.217   4.451  1.3298  1.6618  2.3240
   9823SM   H7G13315   6.268   6.282   4.372 -0.9373 -0.2821  2.0385
   9823SM   C8F13316   6.376   6.413   4.513 -0.2730  0.9519 -0.0029
   9823SM   H8F13317   6.309   6.498   4.486 -1.6847 -0.7892 -2.3884
   9823SM   H8G13318   6.477   6.456   4.530 -0.6144  2.1530 -0.8640
   9823SM   C9F13319   6.316   6.354   4.641  0.1244 -0.1954  0.2139
   9823SM   H9F13320   6.384   6.276   4.682 -1.5737 -2.4388 -1.0069
   9823SM   H9G13321   6.217   6.306   4.630  0.7955 -1.3004 -1.3359
   9823SM  C10F13322   6.287   6.460   4.744  0.2729  0.4785  0.7416
   9823SM  H10F13323   6.219   6.535   4.699 -0.3142  0.5197  1.6570
   9823SM  H10G13324   6.385   6.503   4.775 -0.2647  2.0386  0.3583
   9823SM  C11F13325   6.227   6.403   4.875 -0.6814  0.0272  1.1931
   9823SM  H11F13326   6.305   6.332   4.909 -0.8311 -0.3630  0.7318
   9823SM  H11G13327   6.130   6.350   4.862 -1.5596  1.6001  0.9928
   9823SM  C12F13328   6.215   6.521   4.972  0.5327 -0.2283 -0.0536
   9823SM  H12F13329   6.141   6.595   4.934  0.3837 -0.7660 -0.8434
   9823SM  H12G13330   6.317   6.562   4.983  1.0542 -1.7557  1.1751
   9823SM  C13F13331   6.154   6.462   5.102 -0.6782 -0.8786 -0.4601
   9823SM  H13F13332   6.192   6.359   5.119  2.4767  0.2572 -0.0405
   9823SM  H13G13333   6.044   6.451   5.089 -0.6678 -0.4938 -0.8664
   9823SM  C14F13334   6.181   6.555   5.216  0.1248  0.5001 -0.0322
   9823SM  H14F13335   6.143   6.657   5.191 -2.8303 -0.6562 -0.7765
   9823SM  H14G13336   6.292   6.557   5.220  0.2264 -1.2731 -0.8873
   9823SM  C15F13337   6.119   6.505   5.353  0.0435 -0.2961  0.2247
   9823SM  H15F13338   6.158   6.405   5.380  1.8257  0.2379 -0.2645
   9823SM  H15G13339   6.008   6.499   5.353  0.0765 -1.1388  1.0910
   9823SM  C16F13340   6.151   6.612   5.464  0.1575  0.4800  0.0465
   9823SM  H16F13341   6.139   6.717   5.428  1.7215  0.1584 -1.4960
   9823SM  H16G13342   6.258   6.602   5.492  0.3428 -1.3307 -1.1919
   9823SM  C17F13343   6.060   6.589   5.591 -0.2015 -0.6511  0.2086
   9823SM  H17F13344   5.955   6.619   5.574  0.1647  0.7184  0.2067
   9823SM  H17G13345   6.103   6.656   5.668 -1.5279  2.4597 -1.5635
   9823SM  C18F13346   6.092   6.459   5.660 -0.1773 -0.1377 -0.0565
   9823SM  H18F13347   6.201   6.451   5.644 -0.1336 -0.5974  0.4307
   9823SM  H18G13348   6.055   6.366   5.612 -1.7824  0.0071  0.8374
   9823SM  C19F13349   6.054   6.454   5.807  0.3962  0.1794  0.5935
   9823SM  H19F13350   5.944   6.470   5.807  0.2142 -0.9799  0.9623
   9823SM  H19G13351   6.105   6.535   5.863  3.3632  0.6260 -2.4883
   9823SM  C20F13352   6.097   6.326   5.878  0.5420 -0.5682  0.1500
   9823SM  H20F13353   6.202   6.302   5.853 -0.5045 -2.4383 -3.1080
   9823SM  H20G13354   6.046   6.240   5.830  0.9706 -1.0570  0.5561
   9823SM  C21F13355   6.050   6.311   6.026  0.5652  0.4112 -0.5275
   9823SM  H21F13356   5.942   6.290   6.036  0.6083 -0.2144 -1.2830
   9823SM  H21G13357   6.079   6.395   6.092 -4.3295  0.2769  2.1794
   9823SM  C22F13358   6.116   6.182   6.086 -0.3782  0.1146  0.3051
   9823SM  H22F13359   6.219   6.169   6.046 -0.3058  1.5571 -0.0107
   9823SM  H22G13360   6.048   6.101   6.052  0.0711 -0.3701  0.5370
   9823SM  C23F13361   6.117   6.174   6.235 -0.1396 -0.2258  0.2307
   9823SM  H23F13362   6.027   6.228   6.272 -0.5193  1.3569 -2.7098
   9823SM  H23G13363   6.212   6.206   6.283  0.0035 -0.9834  0.4689
   9823SM  H23H13364   6.095   6.069   6.263  0.3024 -0.6281 -0.8797
   9923SM     N13365   0.117   0.286   3.636 -0.4555  0.3884 -0.8063
   9923SM   C1513366  -0.021   0.237   3.613 -0.0619  0.4608  0.5283
   9923SM  H15A13367  -0.040   0.242   3.507 -0.9074  3.1291  0.7376
   9923SM  H15B13368  -0.090   0.305   3.661 -0.0457  0.3991  0.6384
   9923SM  H15C13369  -0.039   0.144   3.664  1.4029 -0.3406 -0.3519
   9923SM   C1413370   0.213   0.203   3.561 -0.6343  0.3123 -0.1558
   9923SM  H14A13371   0.307   0.255   3.553 -0.6462  0.3353 -0.1475
   9923SM  H14B13372   0.183   0.200   3.457  0.3731 -0.7953 -0.4313
   9923SM  H14C13373   0.226   0.101   3.595 -1.9827  0.0867 -0.2515
   9923SM   C1313374   0.136   0.430   3.598  0.0876 -0.4828  0.6234
   9923SM  H13A13375   0.055   0.492   3.634  0.5310  1.2918 -1.2417
   9923SM  H13B13376   0.155   0.440   3.492 -2.3039  1.2906  0.2778
   9923SM  H13C13377   0.226   0.468   3.645 -1.0038  0.1538  2.2867
   9923SM   C1213378   0.145   0.268   3.790 -0.3080  0.3300  0.4472
   9923SM  H12A13379   0.061   0.319   3.836 -1.5551  0.7115 -2.0892
   9923SM  H12B13380   0.243   0.309   3.809  0.4047 -1.3167  0.4846
   9923SM   C1113381   0.163   0.121   3.846 -0.1734 -0.4591  0.4391
   9923SM  H11A13382   0.067   0.065   3.838  0.0741 -0.8905  0.4169
   9923SM  H11B13383   0.182   0.136   3.954  0.8506  2.8191 -0.0893
   9923SM     P13384   0.417   0.043   3.820  0.1367  0.3162 -0.1927
   9923SM   O1313385   0.472  -0.067   3.744 -0.1505  0.1771 -0.1188
   9923SM   O1413386   0.475   0.173   3.802  0.3480 -0.4147  0.1478
   9923SM   O1113387   0.423  -0.003   3.974  0.2243  0.3189  0.0744
   9923SM   O1213388   0.269   0.053   3.778  0.3443 -0.1613 -0.9482
   9923SM   C1S13389   0.351  -0.115   4.015  0.4829  0.2496 -0.4323
   9923SM   H1S13390   0.385  -0.203   3.958  2.2026  2.0541 -2.3253
   9923SM   H1T13391   0.240  -0.116   4.009  0.2900 -3.3607  0.8918
   9923SM    NF13392   0.297  -0.252   4.219 -0.4411  0.4149  0.1484
   9923SM   HNF13393   0.204  -0.249   4.254 -0.7194 -0.7771 -0.4528
   9923SM   C2S13394   0.360  -0.139   4.171  0.3318 -0.4520 -0.9376
   9923SM   H2S13395   0.467  -0.137   4.201 -0.5032  0.1455  2.2802
   9923SM   C3S13396   0.298  -0.012   4.240 -0.4704  0.1269 -0.3764
   9923SM   H3S13397   0.188  -0.012   4.224 -0.7341  3.0151  0.8635
   9923SM    O313398   0.343   0.114   4.184  0.2685 -0.2379 -0.4329
   9923SM   HO313399   0.380   0.081   4.102 -2.1735 -0.6488 -1.4530
   9923SM   C4S13400   0.304  -0.016   4.391 -0.4065 -0.2052  0.2926
   9923SM   H4S13401   0.209  -0.050   4.436 -1.0913  1.4760  0.1962
   9923SM   C5S13402   0.401   0.021   4.473 -0.0973 -0.4409  0.2939
   9923SM   H5S13403   0.492   0.062   4.428 -0.6056  1.1022  0.6148
   9923SM   C6S13404   0.411   0.022   4.625 -0.3464  0.0547  0.2514
   9923SM   H6S13405   0.474   0.106   4.662  1.2649 -0.0267 -2.1266
   9923SM   H6T13406   0.463  -0.069   4.665  1.4370  0.1181 -1.7529
   9923SM   C7S13407   0.278   0.019   4.698  0.4471 -0.4506  0.7433
   9923SM   H7S13408   0.240  -0.085   4.701 -3.2491  0.6581 -1.4634
   9923SM   H7T13409   0.196   0.072   4.645 -0.1523 -1.0453  1.0747
   9923SM   C8S13410   0.280   0.078   4.846 -0.2582 -0.5840 -0.9299
   9923SM   H8S13411   0.311   0.184   4.849 -0.0176 -0.6755  0.6136
   9923SM   H8T13412   0.360   0.019   4.896 -0.3622 -0.3523 -0.4902
   9923SM   C9S13413   0.163   0.059   4.943  0.0568 -0.1227 -0.4892
   9923SM   H9S13414   0.140  -0.050   4.945 -1.1679  0.1256 -0.2154
   9923SM   H9T13415   0.076   0.120   4.911 -0.0264 -0.7990 -1.6020
   9923SM  C10S13416   0.204   0.113   5.083 -0.3093  0.5107 -0.3671
   9923SM  H10S13417   0.246   0.216   5.072  0.6027  0.3469  1.3053
   9923SM  H10T13418   0.291   0.055   5.120 -0.1146  0.8718 -0.2516
   9923SM  C11S13419   0.090   0.110   5.182  0.3236 -0.2480 -0.3100
   9923SM  H11S13420   0.049   0.007   5.171  0.0610 -0.4111  1.8174
   9923SM  H11T13421   0.007   0.177   5.151  0.7457  0.3572 -0.1610
   9923SM  C12S13422   0.132   0.113   5.327 -0.7216 -0.8118 -0.3200
   9923SM  H12S13423   0.166   0.215   5.356 -0.3435 -0.9445 -0.2908
   9923SM  H12T13424   0.220   0.045   5.339  0.4719  0.6707 -0.3815
   9923SM  C13S13425   0.015   0.078   5.424  0.1307  0.6413 -0.2082
   9923SM  H13S13426  -0.023  -0.025   5.403  1.5189 -0.3781  1.8979
   9923SM  H13T13427  -0.076   0.140   5.412 -1.3889 -1.7304 -1.7840
   9923SM  C14S13428   0.061   0.084   5.571  0.2627 -0.2201 -0.3053
   9923SM  H14S13429   0.107   0.183   5.591 -1.0003  1.0496 -3.0541
   9923SM  H14T13430   0.140   0.009   5.590 -0.3913 -0.5636  1.1935
   9923SM  C15S13431  -0.047   0.049   5.681 -0.5824  0.0620  0.3814
   9923SM  H15S13432  -0.044  -0.060   5.703  1.1863  0.1077  0.4925
   9923SM  H15T13433  -0.142   0.081   5.634  0.7390  0.6061 -2.1323
   9923SM  C16S13434  -0.016   0.128   5.806 -0.3217 -0.1706  0.0324
   9923SM  H16S13435  -0.022   0.232   5.769  1.3454  0.4185  1.3107
   9923SM  H16T13436   0.090   0.115   5.836 -0.6890  0.5966  1.8116
   9923SM  C17S13437  -0.096   0.101   5.928 -0.1549 -0.0918 -0.3463
   9923SM  H17S13438  -0.104  -0.008   5.947 -1.0383 -0.1156 -0.8171
   9923SM  H17T13439  -0.200   0.136   5.910  0.1797 -0.2773 -3.0971
   9923SM  C18S13440  -0.032   0.196   6.024 -0.3650 -0.8144  0.0313
   9923SM  H18S13441  -0.102   0.211   6.109 -0.7960  0.4568 -0.5212
   9923SM  H18T13442  -0.019   0.294   5.973  1.9343 -0.6657  0.7855
   9923SM  H18U13443   0.063   0.154   6.061 -1.0110 -0.8961  1.6872
   9923SM   C1F13444   0.343  -0.380   4.186  0.6471  0.8693 -0.3197
   9923SM    OF13445   0.447  -0.401   4.135 -0.8190  0.1342  0.3513
   9923SM   C2F13446   0.257  -0.487   4.229  0.5048  0.2030  0.8100
   9923SM   H2F13447   0.206  -0.534   4.142  0.8924 -0.9892  1.2001
   9923SM   H2G13448   0.175  -0.452   4.295 -1.1684  0.8384 -1.4677
   9923SM   C3F13449   0.317  -0.606   4.315  0.0226 -0.0001  0.1517
   9923SM   H3F13450   0.378  -0.668   4.247 -2.5226 -0.4552 -1.8928
   9923SM   H3G13451   0.229  -0.667   4.345 -0.1646 -0.4724 -1.2995
   9923SM   C4F13452   0.395  -0.560   4.437 -0.1876  0.1963 -0.3477
   9923SM   H4F13453   0.481  -0.498   4.402 -0.8450  0.6670 -1.1677
   9923SM   H4G13454   0.441  -0.652   4.478  1.6081  2.2629  2.7243
   9923SM   C5F13455   0.307  -0.476   4.538  0.2178 -0.0150  0.0417
   9923SM   H5F13456   0.219  -0.541   4.559  0.4251  0.0681  1.2751
   9923SM   H5G13457   0.286  -0.379   4.488  1.5646 -0.0924 -0.6984
   9923SM   C6F13458   0.388  -0.459   4.662  0.5189 -0.7132 -0.3624
   9923SM   H6F13459   0.472  -0.388   4.646  0.2064 -0.4667 -0.9377
   9923SM   H6G13460   0.436  -0.552   4.698  0.1890 -0.1204  1.7384
   9923SM   C7F13461   0.298  -0.394   4.768 -0.4414  0.7866  1.2877
   9923SM   H7F13462   0.217  -0.463   4.799  0.4566  0.2126  2.4529
   9923SM   H7G13463   0.251  -0.300   4.732  1.6263  2.1406  1.9665
   9923SM   C8F13464   0.379  -0.375   4.899  0.4241 -0.2305  0.0376
   9923SM   H8F13465   0.464  -0.309   4.872  0.5832  0.7838  2.7291
   9923SM   H8G13466   0.411  -0.477   4.930  0.6635 -0.0359  0.4366
   9923SM   C9F13467   0.305  -0.307   5.019  0.1596 -0.3622  0.2390
   9923SM   H9F13468   0.208  -0.363   5.020 -0.3944  0.5156 -1.2035
   9923SM   H9G13469   0.269  -0.203   5.002  0.6768 -0.3220 -0.6893
   9923SM  C10F13470   0.368  -0.315   5.152  0.5212  0.7057 -0.8087
   9923SM  H10F13471   0.451  -0.242   5.154  2.7698 -1.6062 -2.5526
   9923SM  H10G13472   0.419  -0.414   5.152 -1.1025 -0.1827  0.3650
   9923SM  C11F13473   0.268  -0.314   5.269  0.0875  0.7114 -0.6319
   9923SM  H11F13474   0.181  -0.381   5.250  0.7356  0.4216 -2.8504
   9923SM  H11G13475   0.226  -0.212   5.282 -0.6109  0.3709 -0.1669
   9923SM  C12F13476   0.339  -0.363   5.401  0.1768 -0.7702  0.6783
   9923SM  H12F13477   0.396  -0.275   5.439  1.7342 -1.7760  0.7513
   9923SM  H12G13478   0.408  -0.445   5.372 -2.1791 -2.7542  0.3452
   9923SM  C13F13479   0.237  -0.386   5.513  0.4368 -0.4555  0.9198
   9923SM  H13F13480   0.168  -0.470   5.488  0.8209 -0.7416  0.8024
   9923SM  H13G13481   0.177  -0.296   5.537  2.1510  1.1472 -0.5200
   9923SM  C14F13482   0.312  -0.418   5.638 -0.2434  0.0327 -1.2632
   9923SM  H14F13483   0.392  -0.345   5.661  1.5411 -2.1423 -0.2188
   9923SM  H14G13484   0.359  -0.517   5.620 -1.5194 -1.4362  2.5560
   9923SM  C15F13485   0.218  -0.447   5.763 -0.6077  0.3438  0.5544
   9923SM  H15F13486   0.251  -0.547   5.799 -1.7870 -0.7429 -1.1972
   9923SM  H15G13487   0.114  -0.460   5.725 -0.2173  3.4722 -1.9983
   9923SM  C16F13488   0.208  -0.337   5.868 -0.0146  0.1913  0.1759
   9923SM  H16F13489   0.178  -0.242   5.817 -1.8578 -0.9387 -0.9525
   9923SM  H16G13490   0.307  -0.332   5.918 -0.7955 -0.1739  1.8030
   9923SM  C17F13491   0.109  -0.365   5.977  0.1795  0.3197 -0.7058
   9923SM  H17F13492   0.141  -0.465   6.013 -0.4506  0.1995 -0.4611
   9923SM  H17G13493   0.006  -0.363   5.936  0.2371 -0.1985 -0.8734
   9923SM  C18F13494   0.118  -0.258   6.087 -0.2588 -0.6841 -0.3819
   9923SM  H18F13495   0.068  -0.169   6.045 -1.7837 -1.5397 -0.4669
   9923SM  H18G13496   0.227  -0.240   6.100 -0.0256 -0.8607 -1.8858
   9923SM  C19F13497   0.053  -0.307   6.222 -0.4385  0.2876  1.7842
   9923SM  H19F13498   0.058  -0.418   6.219  0.7933  0.3380 -0.6028
   9923SM  H19G13499  -0.052  -0.274   6.210  0.3835  2.9485  1.4023
   9923SM  C20F13500   0.114  -0.248   6.350 -0.4391  0.7263  0.5606
   9923SM  H20F13501   0.213  -0.296   6.340 -1.2679 -1.0818  0.6042
   9923SM  H20G13502   0.058  -0.296   6.434  0.2583 -1.8056 -0.3520
   9923SM  C21F13503   0.105  -0.094   6.355  0.1576  0.1862  0.0705
   9923SM  H21F13504   0.002  -0.073   6.390 -0.0611  2.1181 -1.5332
   9923SM  H21G13505   0.114  -0.052   6.252 -1.1617  0.7024  0.1469
   9923SM  C22F13506   0.214  -0.031   6.444  0.1863 -0.3468 -0.9166
   9923SM  H22F13507   0.282  -0.101   6.497 -1.2567 -2.3841 -1.6406
   9923SM  H22G13508   0.167   0.010   6.536  2.5738 -0.8011  0.5799
   9923SM  C23F13509   0.292   0.080   6.379 -0.4844  0.4341 -0.1708
   9923SM  H23F13510   0.360   0.029   6.308  0.4849  1.2291  0.1696
   9923SM  H23G13511   0.343   0.141   6.456 -0.0168  0.5394 -0.5590
   9923SM  H23H13512   0.217   0.151   6.339 -0.2084  1.2361  0.7112
  10023SM     N13513   0.175   6.490   3.620 -0.0649  0.0437 -0.5133
  10023SM   C1513514   0.059   6.460   3.529  0.6835  0.2704 -0.2684
  10023SM  H15A13515   0.008   6.366   3.544 -0.6039  0.5944 -2.2811
  10023SM  H15B13516   0.100   6.456   3.429  1.2006  0.4710 -0.0720
  10023SM  H15C13517  -0.016   6.537   3.537 -0.7100 -1.2476  4.1507
  10023SM   C1413518   0.292   6.406   3.593  0.0481  0.5155  0.0014
  10023SM  H14A13519   0.281   6.298   3.596  0.8638  0.4318  0.2815
  10023SM  H14B13520   0.374   6.422   3.661 -0.2831  2.7440 -0.0529
  10023SM  H14C13521   0.335   6.423   3.495  0.8467 -0.0981  0.2245
  10023SM   C1313522   0.201   6.638   3.608 -0.3278 -0.0399 -0.1814
  10023SM  H13A13523   0.278   6.683   3.668  0.0777  0.3223 -0.9575
  10023SM  H13B13524   0.110   6.696   3.618 -0.0474  0.8089 -2.0967
  10023SM  H13C13525   0.244   6.650   3.510  1.3907 -1.4875  0.3389
  10023SM   C1213526   0.120   6.463   3.762 -0.5261 -0.2076 -0.0678
  10023SM  H12A13527   0.199   6.428   3.827 -1.9092  0.0969  1.8835
  10023SM  H12B13528   0.070   6.367   3.755  0.9605 -0.8781 -3.6434
  10023SM   C1113529   0.029   6.567   3.834  0.0757 -0.4553  0.5815
  10023SM  H11A13530   0.095   6.652   3.861 -0.9294 -0.3207  2.8096
  10023SM  H11B13531  -0.008   6.515   3.925  0.0229 -1.2974  0.0851
  10023SM     P13532  -0.187   6.708   3.801  0.0116  0.0605 -0.3333
  10023SM   O1313533  -0.197   6.815   3.702 -0.2401  0.1188  0.4065
  10023SM   O1413534  -0.308   6.635   3.835 -0.2182 -0.3796  0.3312
  10023SM   O1113535  -0.128   6.779   3.933 -0.2375 -0.5271  0.3694
  10023SM   O1213536  -0.086   6.600   3.759 -0.4843 -0.2499 -0.2353
  10023SM   C1S13537  -0.158   6.729   4.066 -0.0651 -0.2257  0.2670
  10023SM   H1S13538  -0.133   6.622   4.082 -0.7817 -0.6003 -0.9682
  10023SM   H1T13539  -0.268   6.725   4.077 -0.2001 -1.7286 -1.2706
  10023SM    NF13540  -0.128   6.754   4.315 -0.4264  0.1492 -0.5828
  10023SM   HNF13541  -0.209   6.796   4.354  2.2716  5.7141  0.0920
  10023SM   C2S13542  -0.101   6.814   4.187 -0.3909 -0.2581  0.5372
  10023SM   H2S13543   0.009   6.807   4.173 -0.5720  0.1820 -1.3736
  10023SM   C3S13544  -0.139   6.966   4.169  0.3776 -0.1654  0.4453
  10023SM   H3S13545  -0.249   6.979   4.175  0.6601  2.5857  0.9720
  10023SM    O313546  -0.091   7.015   4.044 -0.4926 -0.3057  0.0312
  10023SM   HO313547  -0.079   6.930   4.000  1.9738 -0.7097  1.3006
  10023SM   C4S13548  -0.087   7.049   4.280  0.2240  0.3126  0.2548
  10023SM   H4S13549  -0.160   7.056   4.362  0.6572 -0.3923  0.7081
  10023SM   C5S13550   0.043   7.095   4.294  0.1122 -0.0603  0.3040
  10023SM   H5S13551   0.114   7.061   4.218  0.3847  0.3871  0.3553
  10023SM   C6S13552   0.104   7.161   4.420 -0.2790  0.0722  0.6591
  10023SM   H6S13553   0.147   7.261   4.397 -1.5323  0.5812  0.4519
  10023SM   H6T13554   0.192   7.107   4.460 -0.4555 -2.3804 -1.9487
  10023SM   C7S13555   0.010   7.156   4.543 -0.4866 -0.0667  0.7057
  10023SM   H7S13556  -0.014   7.051   4.568 -2.1303 -0.2362 -1.3869
  10023SM   H7T13557  -0.088   7.200   4.516 -0.4850  0.6300  1.7542
  10023SM   C8S13558   0.069   7.234   4.659  0.1356  0.2400 -0.4529
  10023SM   H8S13559   0.097   7.335   4.622  0.7827  0.4215  0.5263
  10023SM   H8T13560   0.162   7.189   4.700  0.9194  0.5477 -1.8112
  10023SM   C9S13561  -0.039   7.257   4.775 -0.1574  0.5347 -0.3609
  10023SM   H9S13562  -0.058   7.155   4.814 -0.2465 -0.2540 -2.3496
  10023SM   H9T13563  -0.133   7.300   4.736 -1.1117 -1.8404 -0.8605
  10023SM  C10S13564   0.024   7.357   4.881 -0.0107  0.3116  0.2284
  10023SM  H10S13565   0.076   7.440   4.827 -0.8179  0.5985 -0.1118
  10023SM  H10T13566   0.096   7.297   4.942 -0.9356 -0.4557  0.5838
  10023SM  C11S13567  -0.095   7.419   4.965  0.5467  0.3460  0.2888
  10023SM  H11S13568  -0.145   7.332   5.015  1.1298 -1.5555 -2.2469
  10023SM  H11T13569  -0.168   7.468   4.898  1.0227 -0.7661 -1.0975
  10023SM  C12S13570  -0.047   7.516   5.074 -0.1409  0.3794 -0.2794
  10023SM  H12S13571  -0.137   7.557   5.125  0.4053  1.8671 -0.4602
  10023SM  H12T13572  -0.030   7.611   5.019 -2.9467  0.8837 -0.4491
  10023SM  C13S13573   0.069   7.463   5.167  0.3984  0.1490 -0.2073
  10023SM  H13S13574   0.101   7.543   5.237 -0.3327  0.4492 -0.2037
  10023SM  H13T13575   0.151   7.422   5.105  0.9350  0.4480  0.2949
  10023SM  C14S13576   0.010   7.349   5.248 -0.1327 -0.4059 -0.0925
  10023SM  H14S13577   0.094   7.300   5.304  1.0359 -0.0139 -1.4515
  10023SM  H14T13578  -0.041   7.259   5.209  0.4191 -1.7000  1.9642
  10023SM  C15S13579  -0.070   7.405   5.370  0.3106  0.0884  0.3419
  10023SM  H15S13580  -0.159   7.461   5.336  1.0911  2.0925  1.4098
  10023SM  H15T13581   0.005   7.470   5.420  0.7129 -0.3780  0.3595
  10023SM  C16S13582  -0.098   7.301   5.475  0.0005  0.2808 -0.1646
  10023SM  H16S13583   0.001   7.250   5.485 -0.3388 -0.4602 -0.5312
  10023SM  H16T13584  -0.169   7.230   5.427  0.2045 -0.0551  0.0266
  10023SM  C17S13585  -0.154   7.357   5.605 -0.6985 -0.2445 -0.5138
  10023SM  H17S13586  -0.169   7.271   5.673  0.5413  1.6215  2.2826
  10023SM  H17T13587  -0.254   7.401   5.581 -1.3205 -1.0271  0.5800
  10023SM  C18S13588  -0.065   7.466   5.677  0.3295  0.3773  0.7050
  10023SM  H18S13589  -0.104   7.481   5.780  1.8180  0.1418  1.3187
  10023SM  H18T13590  -0.063   7.558   5.616 -1.1943  0.4291  0.6842
  10023SM  H18U13591   0.041   7.433   5.683  0.3692  0.6801  1.8298
  10023SM   C1F13592  -0.066   6.642   4.349  0.7282  0.2201  0.1713
  10023SM    OF13593   0.024   6.599   4.281  0.0376  0.3182 -0.6057
  10023SM   C2F13594  -0.115   6.560   4.463 -0.2952  0.3188 -0.0621
  10023SM   H2F13595  -0.118   6.453   4.433  0.9831  0.1350  0.3915
  10023SM   H2G13596  -0.220   6.588   4.483 -0.8524 -0.2534 -1.9845
  10023SM   C3F13597  -0.032   6.564   4.598 -0.8824 -0.1890  0.2660
  10023SM   H3F13598  -0.024   6.671   4.628  0.1538  0.3133 -1.6468
  10023SM   H3G13599   0.073   6.527   4.601 -0.5228  0.8441  1.7007
  10023SM   C4F13600  -0.113   6.485   4.703 -0.4000 -0.0315  0.2025
  10023SM   H4F13601  -0.095   6.379   4.677 -1.3172 -0.6578  1.9134
  10023SM   H4G13602  -0.223   6.497   4.687 -0.1834  0.0029 -1.4287
  10023SM   C5F13603  -0.076   6.513   4.845 -0.0413 -0.2900 -0.0431
  10023SM   H5F13604  -0.062   6.623   4.850  1.3759 -0.5009  2.7687
  10023SM   H5G13605   0.026   6.476   4.867 -0.2145 -0.1460  1.1034
  10023SM   C6F13606  -0.170   6.467   4.958 -0.4534 -0.3807 -0.0698
  10023SM   H6F13607  -0.177   6.356   4.955  2.3361 -0.6715 -4.0979
  10023SM   H6G13608  -0.274   6.499   4.937  0.3263  0.9464 -2.2374
  10023SM   C7F13609  -0.129   6.533   5.095 -0.8327  1.1178  0.2188
  10023SM   H7F13610  -0.125   6.644   5.100 -0.2301  1.0925  0.3577
  10023SM   H7G13611  -0.029   6.491   5.121 -0.6344 -0.5249 -2.6866
  10023SM   C8F13612  -0.233   6.505   5.206  0.0343  0.3418  0.0629
  10023SM   H8F13613  -0.237   6.397   5.230 -1.3560  0.7022  1.6102
  10023SM   H8G13614  -0.327   6.553   5.171 -0.4316 -0.3789  0.3021
  10023SM   C9F13615  -0.198   6.573   5.337 -0.0006  0.0333 -0.5894
  10023SM   H9F13616  -0.208   6.684   5.337  1.4102  0.1893 -1.0541
  10023SM   H9G13617  -0.097   6.538   5.370 -0.0721 -0.7742 -1.1969
  10023SM  C10F13618  -0.283   6.527   5.456 -0.5772  0.2290  0.1102
  10023SM  H10F13619  -0.283   6.418   5.472  0.4731  0.5002  2.2979
  10023SM  H10G13620  -0.384   6.571   5.446 -0.0915  1.2338 -0.6090
  10023SM  C11F13621  -0.226   6.595   5.589  0.0227 -0.2973 -0.0599
  10023SM  H11F13622  -0.235   6.703   5.565  1.8995  0.2600  1.4729
  10023SM  H11G13623  -0.118   6.576   5.609  0.2580  1.6621  0.6998
  10023SM  C12F13624  -0.302   6.568   5.718 -0.6587 -0.3500  0.4830
  10023SM  H12F13625  -0.406   6.600   5.693 -0.4414 -0.7230 -0.9656
  10023SM  H12G13626  -0.265   6.640   5.795 -1.8820  0.4284  0.3645
  10023SM  C13F13627  -0.292   6.418   5.760  0.3465  0.1772 -1.1615
  10023SM  H13F13628  -0.186   6.386   5.764 -0.2912 -1.8912  0.3593
  10023SM  H13G13629  -0.349   6.349   5.694 -0.0357 -0.5128 -0.1319
  10023SM  C14F13630  -0.346   6.399   5.900 -0.6429 -0.2913 -0.2152
  10023SM  H14F13631  -0.456   6.387   5.890 -0.6080 -0.0575 -0.9641
  10023SM  H14G13632  -0.324   6.493   5.956 -1.4910  2.3707 -3.8970
  10023SM  C15F13633  -0.277   6.295   5.980 -0.0998  0.1841  0.6170
  10023SM  H15F13634  -0.179   6.323   6.023  1.2087  0.4855 -2.3283
  10023SM  H15G13635  -0.248   6.212   5.913  2.1763  2.2833 -1.1750
  10023SM  C16F13636  -0.355   6.229   6.100  0.1034 -0.9697 -0.5178
  10023SM  H16F13637  -0.426   6.161   6.048  0.7753 -1.7143 -0.4766
  10023SM  H16G13638  -0.403   6.308   6.162  1.0803 -0.4121 -0.4441
  10023SM  C17F13639  -0.264   6.151   6.200 -0.5090  0.0737 -0.1051
  10023SM  H17F13640  -0.177   6.215   6.223 -1.8039  1.7389  0.4111
  10023SM  H17G13641  -0.221   6.067   6.141  0.0867  0.0508  0.3620
  10023SM  C18F13642  -0.335   6.107   6.331 -0.2559  0.6716  0.1159
  10023SM  H18F13643  -0.423   6.045   6.303 -1.2756  1.1479  2.1124
  10023SM  H18G13644  -0.378   6.186   6.397 -0.1867  1.9063 -1.2677
  10023SM  C19F13645  -0.246   6.007   6.408 -0.3570  0.1366  0.3246
  10023SM  H19F13646  -0.185   5.949   6.335  0.6104 -0.3965  1.5126
  10023SM  H19G13647  -0.309   5.927   6.453  0.7519 -0.1055  1.5311
  10023SM  C20F13648  -0.176   6.067   6.529 -0.1112  0.4164  0.0741
  10023SM  H20F13649  -0.102   6.144   6.497  1.2955  0.2266  2.5679
  10023SM  H20G13650  -0.114   5.987   6.574 -0.7348 -0.3633 -0.4389
  10023SM  C21F13651  -0.276   6.118   6.632 -0.6552 -0.3862  0.7871
  10023SM  H21F13652  -0.360   6.045   6.635 -0.0466 -1.1843 -0.8252
  10023SM  H21G13653  -0.317   6.214   6.596 -1.1475 -0.9453 -0.1740
  10023SM  C22F13654  -0.205   6.136   6.760  0.3419 -0.6434 -0.7986
  10023SM  H22F13655  -0.130   6.218   6.770 -1.4364  0.9911 -0.2804
  10023SM  H22G13656  -0.156   6.040   6.787  0.2749 -0.3493  0.4139
  10023SM  C23F13657  -0.313   6.172   6.861 -0.9591  0.3381 -0.3046
  10023SM  H23F13658  -0.273   6.185   6.964  0.0009  0.6102 -0.6959
  10023SM  H23G13659  -0.393   6.095   6.865 -0.7438 -0.0073 -1.7427
  10023SM  H23H13660  -0.361   6.270   6.840  0.8303  1.0887 -1.1443
  101CHL1    C313661   3.305   3.893   7.668  0.6469 -0.7470  0.2061
  101CHL1    H313662   3.212   3.940   7.628  1.3162 -2.0131 -3.0526
  101CHL1    O313663   3.312   3.921   7.806  0.6357  0.0575 -0.2526
  101CHL1   H3'13664   3.279   3.844   7.855 -0.8843 -0.4501 -1.9412
  101CHL1    C413665   3.300   3.735   7.646 -0.1378 -0.3746  0.7364
  101CHL1   H4A13666   3.391   3.687   7.687  1.0505 -0.4407 -1.7706
  101CHL1   H4B13667   3.214   3.692   7.701 -1.3728 -1.5307 -1.9315
  101CHL1    C513668   3.292   3.715   7.490  0.3331 -0.1113  0.6184
  101CHL1    C613669   3.198   3.632   7.445  0.0983  0.4870  0.2244
  101CHL1    H613670   3.138   3.570   7.514  1.1484 -1.1627 -0.2789
  101CHL1    C713671   3.182   3.601   7.302  0.9656  0.2849 -0.0102
  101CHL1   H7A13672   3.184   3.490   7.292 -1.5271  0.1598  0.1095
  101CHL1   H7B13673   3.090   3.645   7.257  1.8462  1.9957 -0.2307
  101CHL1    C813674   3.294   3.656   7.216 -0.1568  0.4679  0.6225
  101CHL1    H813675   3.375   3.580   7.222 -2.3404 -2.2831 -2.0434
  101CHL1   C1413676   3.260   3.657   7.065  0.6232  0.4241  0.9658
  101CHL1   H1413677   3.175   3.728   7.053  1.3879  1.0283 -1.4173
  101CHL1   C1513678   3.194   3.531   7.000 -0.1610  0.0084 -0.2594
  101CHL1  H15A13679   3.254   3.444   7.033  0.4608  0.3581 -0.4522
  101CHL1  H15B13680   3.094   3.503   7.039  1.0312 -1.4893  1.9127
  101CHL1   C1613681   3.202   3.551   6.846 -0.6013  0.5577 -0.3369
  101CHL1  H16A13682   3.253   3.469   6.793  0.8086  0.5498  0.9489
  101CHL1  H16B13683   3.100   3.557   6.803 -1.2932  0.7388  1.2547
  101CHL1   C1713684   3.276   3.692   6.832  0.1688  0.2056  0.6885
  101CHL1   H1713685   3.184   3.754   6.832  0.2241  0.2873  1.0603
  101CHL1   C1313686   3.359   3.714   6.964 -0.7294 -0.4478  0.3662
  101CHL1   C1813687   3.486   3.624   6.968  0.1126 -0.0602  0.8317
  101CHL1  H18A13688   3.525   3.625   7.072  3.3167  0.2462 -0.2496
  101CHL1  H18B13689   3.468   3.517   6.946 -1.8582 -0.1216  2.4932
  101CHL1  H18C13690   3.559   3.667   6.896 -1.6477 -0.5406 -1.3510
  101CHL1   C1213691   3.390   3.858   7.005  0.1984  0.1830 -0.2546
  101CHL1  H12A13692   3.477   3.900   6.950  0.0498  0.3057 -0.3968
  101CHL1  H12B13693   3.296   3.915   6.990  0.5511  0.8494  0.0257
  101CHL1   C1113694   3.431   3.871   7.150 -0.4408  2.0947 -0.1855
  101CHL1  H11A13695   3.536   3.835   7.162 -0.4914  2.3878  1.2668
  101CHL1  H11B13696   3.432   3.979   7.173  0.1183  1.7599  1.4844
  101CHL1    C913697   3.339   3.800   7.258  0.0777  0.5714  0.3693
  101CHL1    H913698   3.246   3.859   7.272  1.1140  1.8403  2.3598
  101CHL1   C1013699   3.396   3.793   7.400  0.5815 -0.2913 -0.0709
  101CHL1   C1913700   3.532   3.722   7.419  0.0008  0.5033  0.2610
  101CHL1  H19A13701   3.616   3.776   7.370 -2.7427  1.7994 -3.5355
  101CHL1  H19B13702   3.547   3.694   7.525  1.3086 -0.7634 -0.2199
  101CHL1  H19C13703   3.528   3.623   7.369 -1.4983 -0.3905  2.0077
  101CHL1    C113704   3.409   3.946   7.449 -0.3994  0.6212 -0.5258
  101CHL1   H1A13705   3.498   3.987   7.397 -0.5475  2.6561  0.7056
  101CHL1   H1B13706   3.322   4.008   7.415 -1.5292  0.9608  2.6454
  101CHL1    C213707   3.426   3.961   7.599  0.4840  0.1651 -0.1009
  101CHL1   H2A13708   3.431   4.065   7.637 -2.0189 -0.0513  1.0029
  101CHL1   H2B13709   3.515   3.900   7.627  1.5260  2.7805  2.7805
  101CHL1   C2013710   3.344   3.703   6.696 -0.0515 -0.0595 -0.1418
  101CHL1   H2013711   3.433   3.638   6.684  2.0021  2.6917 -0.7512
  101CHL1   C2113712   3.382   3.852   6.671  0.0080  0.5462 -0.4779
  101CHL1  H21A13713   3.423   3.870   6.569  1.8770 -0.3971  0.0640
  101CHL1  H21B13714   3.454   3.882   6.750  0.4153  0.0805 -0.6657
  101CHL1  H21C13715   3.288   3.909   6.687 -0.4183  0.1926 -1.5966
  101CHL1   C2213716   3.254   3.655   6.581 -0.3864 -0.4910  0.2176
  101CHL1  H22A13717   3.253   3.544   6.585  1.6978 -0.6306 -1.3962
  101CHL1  H22B13718   3.158   3.704   6.608 -1.9488 -2.2542 -1.7294
  101CHL1   C2313719   3.296   3.682   6.432 -0.0056  0.3226  0.1071
  101CHL1  H23A13720   3.282   3.788   6.402 -0.2339  0.1816 -0.2915
  101CHL1  H23B13721   3.405   3.661   6.434  0.0415  0.5944  1.0380
  101CHL1   C2413722   3.216   3.600   6.330 -0.1664 -0.0823  0.7469
  101CHL1  H24A13723   3.207   3.491   6.349 -0.5530 -0.9120 -3.3511
  101CHL1  H24B13724   3.111   3.635   6.326 -0.6160 -1.2612  1.4771
  101CHL1   C2513725   3.261   3.620   6.178 -0.5499  0.7020 -0.3342
  101CHL1   H2513726   3.293   3.724   6.153 -0.8973  0.6556 -0.9838
  101CHL1   C2613727   3.372   3.520   6.142  0.5553  0.5047 -0.1906
  101CHL1  H26A13728   3.468   3.541   6.195  1.2758 -2.3283 -0.1681
  101CHL1  H26B13729   3.335   3.416   6.160 -2.7652  1.9168  2.1161
  101CHL1  H26C13730   3.395   3.542   6.036  3.3543  0.7222  0.3810
  101CHL1   C2713731   3.136   3.575   6.091  0.3481 -0.0380  0.1810
  101CHL1  H27A13732   3.103   3.476   6.129 -1.4729  1.2346  2.1665
  101CHL1  H27B13733   3.048   3.635   6.123 -0.2147 -1.0349  0.5585
  101CHL1  H27C13734   3.157   3.581   5.982  1.0657  0.8627  0.3546
  102CHL1    C313735   3.015   4.184   7.659 -0.4672  0.7301  0.1032
  102CHL1    H313736   3.124   4.162   7.664 -0.5664  0.2482  0.2419
  102CHL1    O313737   2.962   4.216   7.786  0.0707 -0.0777 -0.2226
  102CHL1   H3'13738   2.890   4.278   7.771  1.7823  2.2388  0.3650
  102CHL1    C413739   2.995   4.296   7.560  0.6780 -0.5158  0.2026
  102CHL1   H4A13740   2.897   4.348   7.572  0.1507 -1.9744  2.9273
  102CHL1   H4B13741   3.059   4.380   7.595 -0.4417  0.2541  0.4769
  102CHL1    C513742   3.033   4.252   7.421 -1.3720  0.4194 -0.2661
  102CHL1    C613743   3.131   4.311   7.351 -0.2609  0.6308  0.3036
  102CHL1    H613744   3.190   4.396   7.387  0.5313 -0.1484  0.8979
  102CHL1    C713745   3.170   4.261   7.210 -0.0450  0.0863 -0.6003
  102CHL1   H7A13746   3.211   4.342   7.145  0.8818  2.3541  2.5757
  102CHL1   H7B13747   3.255   4.190   7.215  1.1854  1.2848 -2.8547
  102CHL1    C813748   3.048   4.191   7.146 -0.2632  0.8425 -0.3131
  102CHL1    H813749   2.962   4.261   7.144 -3.3931 -2.5734  2.1817
  102CHL1   C1413750   3.086   4.146   7.006 -0.0634 -0.2594 -0.4086
  102CHL1   H1413751   3.167   4.072   7.023  1.9750  2.1295  0.9882
  102CHL1   C1513752   3.138   4.248   6.906 -0.0871  0.4176  0.2113
  102CHL1  H15A13753   3.080   4.342   6.922  1.1896  1.0159  1.5645
  102CHL1  H15B13754   3.240   4.289   6.922 -1.1241  2.3178  2.6290
  102CHL1   C1613755   3.109   4.194   6.769  0.5463  0.3521 -0.3395
  102CHL1  H16A13756   3.040   4.263   6.716 -0.2228 -0.2119 -0.0829
  102CHL1  H16B13757   3.201   4.183   6.707 -0.6639  1.2494 -2.3971
  102CHL1   C1713758   3.022   4.066   6.780 -0.0000 -0.1191 -0.9759
  102CHL1   H1713759   3.089   3.978   6.791  0.7475  0.6058  0.4439
  102CHL1   C1313760   2.966   4.083   6.929 -0.0418  0.2421  0.6074
  102CHL1   C1813761   2.842   4.178   6.929 -0.3075 -0.0750 -0.0634
  102CHL1  H18A13762   2.853   4.274   6.875 -2.0572  0.2620  0.1270
  102CHL1  H18B13763   2.761   4.123   6.875 -0.4204  2.2690 -2.4686
  102CHL1  H18C13764   2.805   4.197   7.032  0.1745 -3.4092  0.8475
  102CHL1   C1213765   2.935   3.953   7.012 -0.1744  0.3435  0.2521
  102CHL1  H12A13766   2.852   3.899   6.961  1.2783 -1.8588  0.0902
  102CHL1  H12B13767   3.027   3.892   7.009 -0.1338  0.4070  0.1885
  102CHL1   C1113768   2.899   3.978   7.160 -0.1773  0.2424 -0.0515
  102CHL1  H11A13769   2.795   4.016   7.151 -0.0321  0.6707  0.0178
  102CHL1  H11B13770   2.875   3.883   7.211 -2.0888  1.4591  1.4705
  102CHL1    C913771   3.007   4.071   7.228  0.4711  0.0711 -0.2684
  102CHL1    H913772   3.096   4.005   7.234  0.5560  0.0927 -1.1757
  102CHL1   C1013773   2.965   4.122   7.371 -0.3816 -0.0339  0.1389
  102CHL1   C1913774   2.809   4.166   7.369  0.2077 -0.5729  0.4628
  102CHL1  H19A13775   2.800   4.232   7.280 -0.7558 -1.0558  0.1852
  102CHL1  H19B13776   2.748   4.074   7.356  2.3612 -2.2013  1.3273
  102CHL1  H19C13777   2.776   4.224   7.458 -1.0353  0.4710 -0.6346
  102CHL1    C113778   2.985   4.006   7.474  0.4622  0.8330 -0.5364
  102CHL1   H1A13779   2.935   3.913   7.442 -1.1142  1.3158  0.4097
  102CHL1   H1B13780   3.093   3.982   7.461 -0.0155 -3.4740  1.6545
  102CHL1    C213781   2.949   4.048   7.615  0.2952 -0.2957  0.2154
  102CHL1   H2A13782   2.955   3.974   7.697  0.5536 -0.2658  0.2240
  102CHL1   H2B13783   2.839   4.062   7.618  0.1932 -0.8921 -0.3230
  102CHL1   C2013784   2.930   4.039   6.668  0.1138 -0.8755 -0.2696
  102CHL1   H2013785   2.847   4.113   6.664  0.8101 -0.0762 -0.0082
  102CHL1   C2113786   2.854   3.903   6.685  0.0485  0.1539  0.3754
  102CHL1  H21A13787   2.788   3.892   6.596 -1.7273  1.7103  1.4403
  102CHL1  H21B13788   2.793   3.916   6.776 -0.4351 -1.7063  0.3578
  102CHL1  H21C13789   2.925   3.819   6.699  2.6809  1.8325 -1.7149
  102CHL1   C2213790   3.005   4.056   6.530 -0.4757  0.4720  0.0072
  102CHL1  H22A13791   3.038   4.161   6.520 -1.7179  0.7487 -1.7282
  102CHL1  H22B13792   3.088   3.982   6.542 -1.7146 -0.9338  0.1867
  102CHL1   C2313793   2.921   4.031   6.413  0.1507 -0.3988  0.1783
  102CHL1  H23A13794   2.873   3.931   6.415  1.1257 -0.9951 -2.2113
  102CHL1  H23B13795   2.840   4.106   6.405  0.6525  0.2152  0.7484
  102CHL1   C2413796   2.994   4.017   6.279 -0.3120 -0.0055 -0.2887
  102CHL1  H24A13797   3.047   4.113   6.264  0.2660 -0.3997 -0.8006
  102CHL1  H24B13798   3.075   3.943   6.296  1.3466  1.8658  0.1972
  102CHL1   C2513799   2.907   3.978   6.154 -0.1946  0.5882  0.5755
  102CHL1   H2513800   2.853   3.882   6.170  1.3705 -0.3584  0.4037
  102CHL1   C2613801   2.813   4.097   6.116  0.7737  0.0589 -0.2353
  102CHL1  H26A13802   2.874   4.185   6.088  0.8469  0.1805  0.2987
  102CHL1  H26B13803   2.745   4.067   6.033 -0.8974  1.3049  0.6277
  102CHL1  H26C13804   2.750   4.129   6.202  0.4220 -1.9279  0.2877
  102CHL1   C2713805   2.994   3.952   6.027 -1.0361  0.5862 -0.5096
  102CHL1  H27A13806   3.062   3.866   6.046 -0.4099  0.8060 -1.6495
  102CHL1  H27B13807   2.928   3.912   5.946  0.9299  1.8245 -2.8425
  102CHL1  H27C13808   3.043   4.045   5.992  1.1030  0.1200  1.0814
  103CHL1    C313809   1.522   1.956   7.901  0.4638 -0.5450 -0.6134
  103CHL1    H313810   1.553   1.851   7.885 -1.9119 -1.3240 -0.5143
  103CHL1    O313811   1.511   1.967   8.042 -0.3441  0.4927  0.0117
  103CHL1   H3'13812   1.421   1.959   8.073  0.3988 -0.8039  2.0939
  103CHL1    C413813   1.613   2.068   7.838 -0.2865  0.1540 -0.0659
  103CHL1   H4A13814   1.568   2.160   7.881  0.6869  0.9444 -0.7031
  103CHL1   H4B13815   1.717   2.064   7.878 -0.3042  1.7222  0.1947
  103CHL1    C513816   1.606   2.058   7.683 -0.7410 -0.2903 -0.4933
  103CHL1    C613817   1.722   2.045   7.610 -0.3527  0.2657  1.1476
  103CHL1    H613818   1.821   2.039   7.656 -0.9778  0.2220  2.5356
  103CHL1    C713819   1.727   2.042   7.458 -0.3976  0.2613  0.2633
  103CHL1   H7A13820   1.812   2.097   7.412  1.0476 -2.5322 -0.6580
  103CHL1   H7B13821   1.733   1.936   7.427 -1.5176 -0.3467  1.9779
  103CHL1    C813822   1.595   2.093   7.402 -0.8481 -0.1059 -0.6586
  103CHL1    H813823   1.607   2.203   7.418 -1.2506 -0.1746  0.2034
  103CHL1   C1413824   1.581   2.067   7.250 -0.0320  0.1807  0.3814
  103CHL1   H1413825   1.582   1.958   7.230  2.1475  0.6597 -2.8062
  103CHL1   C1513826   1.701   2.121   7.157  0.3197  0.0227  0.0297
  103CHL1  H15A13827   1.736   2.219   7.197 -0.0611  0.5136 -0.8129
  103CHL1  H15B13828   1.781   2.045   7.163  0.1547 -0.2433 -0.9544
  103CHL1   C1613829   1.639   2.143   7.022  0.1116  0.6508  0.3067
  103CHL1  H16A13830   1.641   2.252   6.998 -0.1702  0.3648 -1.0671
  103CHL1  H16B13831   1.682   2.087   6.937  1.2236  1.0019  0.6282
  103CHL1   C1713832   1.488   2.108   7.045 -0.2349  0.2006 -0.1942
  103CHL1   H1713833   1.485   1.997   7.041  0.3279  0.1516  0.5608
  103CHL1   C1313834   1.455   2.126   7.189 -0.2791 -0.9007 -0.3248
  103CHL1   C1813835   1.447   2.276   7.215  0.8113 -0.0844 -0.1796
  103CHL1  H18A13836   1.434   2.309   7.320  1.2370 -0.0627 -0.1295
  103CHL1  H18B13837   1.546   2.325   7.202 -0.2647  2.7340  1.4043
  103CHL1  H18C13838   1.369   2.322   7.151 -0.4641 -1.5626  0.2419
  103CHL1   C1213839   1.335   2.044   7.242 -0.0113 -0.6005 -0.4863
  103CHL1  H12A13840   1.239   2.072   7.193  0.2126  0.3090 -0.4264
  103CHL1  H12B13841   1.341   1.935   7.222 -1.1018 -0.6324 -0.6902
  103CHL1   C1113842   1.333   2.063   7.398  0.6221  0.1427 -0.3614
  103CHL1  H11A13843   1.298   2.167   7.416 -1.7714 -0.7345  0.4482
  103CHL1  H11B13844   1.247   2.003   7.435  0.3290  1.0276  0.4375
  103CHL1    C913845   1.469   2.037   7.478  0.3730  0.3116  0.9623
  103CHL1    H913846   1.478   1.928   7.460  1.5024  0.5226  0.1321
  103CHL1   C1013847   1.466   2.065   7.624 -0.2361  0.6685 -0.2339
  103CHL1   C1913848   1.403   2.207   7.640  0.1632  0.7823 -0.4263
  103CHL1  H19A13849   1.424   2.245   7.742  0.4545  1.5488 -0.7583
  103CHL1  H19B13850   1.446   2.280   7.568  1.8527  0.6255  0.3727
  103CHL1  H19C13851   1.293   2.201   7.626  0.3833  0.6187 -2.3649
  103CHL1    C113852   1.380   1.951   7.689 -0.2526 -1.1683 -0.1044
  103CHL1   H1A13853   1.278   1.951   7.644  0.3567 -1.6787 -1.5497
  103CHL1   H1B13854   1.434   1.855   7.674 -1.6388 -1.8917 -0.6555
  103CHL1    C213855   1.377   1.969   7.842 -0.3470  0.6037  0.1668
  103CHL1   H2A13856   1.312   1.893   7.891  0.3239  0.8875  1.5405
  103CHL1   H2B13857   1.346   2.073   7.866  1.5193  1.2580 -0.0405
  103CHL1   C2013858   1.396   2.149   6.930  0.0324 -0.6477 -0.4723
  103CHL1   H2013859   1.291   2.139   6.965 -0.3558  0.7446 -1.1332
  103CHL1   C2113860   1.424   2.041   6.824  0.1491  0.5047  0.8216
  103CHL1  H21A13861   1.343   2.056   6.750 -0.3058 -0.6069  1.0747
  103CHL1  H21B13862   1.412   1.935   6.854  2.6255 -1.1400 -3.1998
  103CHL1  H21C13863   1.523   2.050   6.775 -0.3055 -0.2587 -0.2555
  103CHL1   C2213864   1.413   2.288   6.866  0.4978  0.1272  0.1599
  103CHL1  H22A13865   1.465   2.358   6.935  0.7430 -1.8462  2.0519
  103CHL1  H22B13866   1.474   2.266   6.775 -3.7041 -1.1145 -2.6444
  103CHL1   C2313867   1.284   2.352   6.811 -0.0757  0.0797  0.0165
  103CHL1  H23A13868   1.243   2.275   6.742  2.5233 -2.5244  1.1414
  103CHL1  H23B13869   1.219   2.377   6.898  3.3311  1.0481  2.5254
  103CHL1   C2413870   1.305   2.482   6.730  0.9635 -0.1327 -0.3650
  103CHL1  H24A13871   1.383   2.538   6.786  0.1237 -1.6237  2.4913
  103CHL1  H24B13872   1.330   2.456   6.625 -3.1994 -2.1781 -1.0847
  103CHL1   C2513873   1.180   2.574   6.713 -0.4913  0.3151  0.5687
  103CHL1   H2513874   1.107   2.502   6.669 -1.0231  1.4370 -0.4419
  103CHL1   C2613875   1.133   2.645   6.839 -0.2121  0.2917  0.1418
  103CHL1  H26A13876   1.210   2.707   6.888 -0.3665 -0.6321  1.6083
  103CHL1  H26B13877   1.043   2.705   6.813 -0.6468 -0.2700  0.3250
  103CHL1  H26C13878   1.098   2.581   6.923  1.5704 -0.7752  0.1134
  103CHL1   C2713879   1.207   2.666   6.594 -0.4496 -0.0048  0.6445
  103CHL1  H27A13880   1.293   2.734   6.614  0.1489  0.2096 -2.2511
  103CHL1  H27B13881   1.233   2.608   6.503  1.4366 -2.6134  2.6846
  103CHL1  H27C13882   1.116   2.727   6.575  1.0020  2.5057  1.2627
  104CHL1    C313883   5.208   3.927   7.606 -0.5809 -0.0849 -1.3718
  104CHL1    H313884   5.277   4.014   7.612 -2.2318  1.1766  1.0659
  104CHL1    O313885   5.134   3.915   7.731 -0.1288  0.2970  0.3037
  104CHL1   H3'13886   5.090   4.000   7.730  1.2416  1.0364  0.0428
  104CHL1    C413887   5.107   3.956   7.494 -0.1670 -0.2800 -0.1959
  104CHL1   H4A13888   5.027   3.878   7.499  0.4417 -1.1927 -3.0249
  104CHL1   H4B13889   5.055   4.051   7.517 -0.6702 -0.3713 -0.9141
  104CHL1    C513890   5.166   3.955   7.353  0.3694  0.6755 -0.4538
  104CHL1    C613891   5.147   4.058   7.271 -0.3254 -0.5062 -0.3192
  104CHL1    H613892   5.090   4.149   7.296  1.0380 -0.3366  2.5343
  104CHL1    C713893   5.201   4.059   7.127 -0.1713 -0.1216  0.0525
  104CHL1   H7A13894   5.121   4.116   7.076 -0.1697 -0.2160 -0.0547
  104CHL1   H7B13895   5.295   4.117   7.135 -0.5232  0.6531 -1.2205
  104CHL1    C813896   5.231   3.913   7.082 -0.7369  0.3008 -0.2215
  104CHL1    H813897   5.132   3.864   7.075 -0.1277 -0.7961 -1.8708
  104CHL1   C1413898   5.308   3.912   6.943  0.4639  0.0846 -0.6924
  104CHL1   H1413899   5.404   3.958   6.975 -0.6860  2.3318 -0.2985
  104CHL1   C1513900   5.249   4.009   6.836 -0.0389  0.3038  0.3789
  104CHL1  H15A13901   5.138   3.994   6.834 -0.0454 -0.0498  1.9175
  104CHL1  H15B13902   5.271   4.115   6.861  0.0368  0.3768  0.0031
  104CHL1   C1613903   5.302   3.952   6.703 -0.3141  0.0430  0.0526
  104CHL1  H16A13904   5.216   3.940   6.633 -2.0275  3.6086  1.2609
  104CHL1  H16B13905   5.373   4.021   6.653  1.5187 -0.5615  1.7062
  104CHL1   C1713906   5.381   3.824   6.738  0.0536  0.0025 -0.0213
  104CHL1   H1713907   5.488   3.846   6.758  0.1466 -0.1482 -0.3393
  104CHL1   C1313908   5.326   3.778   6.881 -0.6481 -0.7045  0.0332
  104CHL1   C1813909   5.193   3.698   6.870 -0.3292  0.2391  0.1326
  104CHL1  H18A13910   5.197   3.593   6.833 -3.7100 -1.3142  3.4808
  104CHL1  H18B13911   5.143   3.692   6.969 -0.6611 -0.6321 -0.0777
  104CHL1  H18C13912   5.130   3.760   6.803  1.3009  1.4275 -0.3569
  104CHL1   C1213913   5.424   3.701   6.975 -0.5506 -0.2685  0.2425
  104CHL1  H12A13914   5.450   3.598   6.941  1.9442  0.8047 -1.3134
  104CHL1  H12B13915   5.522   3.751   6.988  0.5352 -2.2929  0.2081
  104CHL1   C1113916   5.372   3.698   7.122  0.5537  0.1052 -0.4684
  104CHL1  H11A13917   5.290   3.624   7.121 -0.4027  1.0141  1.8351
  104CHL1  H11B13918   5.452   3.646   7.179 -1.2117 -3.5698 -1.0960
  104CHL1    C913919   5.318   3.832   7.182 -0.3520  0.6561  0.9777
  104CHL1    H913920   5.401   3.905   7.194 -0.1533  0.7019 -0.4771
  104CHL1   C1013921   5.239   3.828   7.313 -0.5871 -0.2374  0.4070
  104CHL1   C1913922   5.131   3.716   7.311  0.3893 -0.0464 -0.2172
  104CHL1  H19A13923   5.052   3.728   7.233  0.0758  0.8995  0.2322
  104CHL1  H19B13924   5.191   3.624   7.296  1.1174  0.2867  0.6004
  104CHL1  H19C13925   5.086   3.701   7.411 -0.8068 -0.0898 -0.7403
  104CHL1    C113926   5.340   3.802   7.430 -0.3376 -0.0500  0.3681
  104CHL1   H1A13927   5.382   3.701   7.411  0.0418 -0.4313  2.9515
  104CHL1   H1B13928   5.424   3.874   7.423 -0.2250 -0.0634  1.4498
  104CHL1    C213929   5.286   3.800   7.577 -1.2415  0.5004  0.0933
  104CHL1   H2A13930   5.370   3.794   7.650 -1.8399  1.0357  0.8484
  104CHL1   H2B13931   5.217   3.714   7.587 -0.8632  0.1082 -0.5762
  104CHL1   C2013932   5.387   3.729   6.624  0.5401  0.2445  0.7560
  104CHL1   H2013933   5.289   3.694   6.585  0.8544  0.5073 -0.3022
  104CHL1   C2113934   5.465   3.604   6.666  0.1076  0.4448  0.2468
  104CHL1  H21A13935   5.409   3.550   6.746 -2.7508  1.3914 -0.9988
  104CHL1  H21B13936   5.564   3.639   6.702 -0.8009  0.7220  2.7133
  104CHL1  H21C13937   5.484   3.539   6.578  1.0439 -0.1386  0.8606
  104CHL1   C2213938   5.445   3.783   6.484 -0.4788  0.8858  0.2217
  104CHL1  H22A13939   5.390   3.876   6.458  0.1537  1.0872 -0.4249
  104CHL1  H22B13940   5.552   3.808   6.497  0.0526 -1.2554  0.3208
  104CHL1   C2313941   5.404   3.680   6.368  0.4708 -0.1034 -0.4710
  104CHL1  H23A13942   5.459   3.586   6.392  1.9208  1.3477  2.4802
  104CHL1  H23B13943   5.294   3.665   6.376  0.2731  1.8148  1.1936
  104CHL1   C2413944   5.450   3.727   6.233  0.8563 -0.3069  0.3193
  104CHL1  H24A13945   5.556   3.761   6.237  0.3161  1.3278  2.3059
  104CHL1  H24B13946   5.448   3.642   6.161  3.5610 -0.8306  0.7372
  104CHL1   C2513947   5.368   3.841   6.165  0.1657 -0.1306 -0.5100
  104CHL1   H2513948   5.367   3.930   6.232  3.1685 -0.1851 -0.2856
  104CHL1   C2613949   5.425   3.887   6.028 -0.7045 -0.4480 -0.1595
  104CHL1  H26A13950   5.359   3.970   5.996 -0.8153 -0.1063  0.9159
  104CHL1  H26B13951   5.532   3.907   6.047 -0.3114 -1.1380 -1.5107
  104CHL1  H26C13952   5.420   3.801   5.958 -1.0916  0.3706 -1.1695
  104CHL1   C2713953   5.225   3.796   6.146  0.0858  0.5202 -0.0669
  104CHL1  H27A13954   5.226   3.698   6.093 -0.1042  1.9951 -2.9400
  104CHL1  H27B13955   5.183   3.791   6.249  1.3566  0.4190  0.4645
  104CHL1  H27C13956   5.161   3.871   6.096  0.9607  0.1755 -1.7867
  105CHL1    C313957   5.849   2.987   7.946 -0.0293  0.3010  0.2602
  105CHL1    H313958   5.949   2.943   7.928 -0.8038 -0.6990 -1.9173
  105CHL1    O313959   5.825   3.003   8.081  0.1678  0.3696 -0.2933
  105CHL1   H3'13960   5.733   3.030   8.088  0.3103  0.7965 -0.0531
  105CHL1    C413961   5.838   3.129   7.875  0.2041  0.2076 -0.2695
  105CHL1   H4A13962   5.745   3.184   7.904  0.5346  0.9141 -0.5229
  105CHL1   H4B13963   5.913   3.197   7.921  0.5838  0.0417 -0.6454
  105CHL1    C513964   5.851   3.112   7.725  0.1419 -0.1430  0.1236
  105CHL1    C613965   5.938   3.182   7.647 -0.2217  0.4802 -0.0783
  105CHL1    H613966   5.997   3.252   7.708 -1.0942 -0.1623  1.5769
  105CHL1    C713967   5.965   3.167   7.500  0.3523  0.2631 -0.1765
  105CHL1   H7A13968   5.960   3.263   7.446 -0.5695 -1.3499 -3.1785
  105CHL1   H7B13969   6.060   3.114   7.476  0.5597 -0.1255  1.3767
  105CHL1    C813970   5.849   3.090   7.431 -0.3090  0.2782 -0.4218
  105CHL1    H813971   5.762   3.159   7.427 -0.3979  0.2541  0.6201
  105CHL1   C1413972   5.894   3.042   7.289 -0.2379 -0.7993 -0.2583
  105CHL1   H1413973   5.971   2.968   7.318 -1.8572 -2.4266  0.0690
  105CHL1   C1513974   5.955   3.147   7.197  0.5250 -0.0351  0.0107
  105CHL1  H15A13975   5.891   3.237   7.207  1.0642  0.4138 -0.5512
  105CHL1  H15B13976   6.057   3.175   7.230  0.4876  0.2125 -0.0817
  105CHL1   C1613977   5.942   3.084   7.056 -0.2610 -0.9748 -0.2871
  105CHL1  H16A13978   5.878   3.147   6.990 -0.5133  0.3026  1.1240
  105CHL1  H16B13979   6.038   3.069   7.002 -0.5560  0.2547 -1.1850
  105CHL1   C1713980   5.863   2.950   7.078  0.2713  0.3201  0.7465
  105CHL1   H1713981   5.937   2.868   7.089 -2.8782 -2.9871 -0.5507
  105CHL1   C1313982   5.790   2.964   7.211  0.3876  0.8097 -1.1303
  105CHL1   C1813983   5.656   3.044   7.188 -0.4326  0.1274 -0.1259
  105CHL1  H18A13984   5.591   3.041   7.278  0.8723 -0.9379  0.8323
  105CHL1  H18B13985   5.677   3.149   7.160  0.1158  0.1212  0.2581
  105CHL1  H18C13986   5.589   2.998   7.111  1.3917 -0.2268 -1.5740
  105CHL1   C1213987   5.761   2.832   7.285  0.0812  0.2239 -0.0907
  105CHL1  H12A13988   5.687   2.767   7.233  1.1101 -0.9407 -0.1569
  105CHL1  H12B13989   5.860   2.784   7.301  0.2684  0.4814 -0.4842
  105CHL1   C1113990   5.709   2.874   7.425  0.3154  0.4636 -0.5055
  105CHL1  H11A13991   5.617   2.936   7.430  0.5630  0.8246 -0.3449
  105CHL1  H11B13992   5.699   2.778   7.480 -0.2619  0.7339 -0.1279
  105CHL1    C913993   5.810   2.966   7.509  0.5428 -0.1404 -0.5720
  105CHL1    H913994   5.903   2.906   7.518  0.0904 -1.0852 -1.9080
  105CHL1   C1013995   5.768   2.998   7.656  0.3992 -0.2714 -0.2490
  105CHL1   C1913996   5.624   3.046   7.656  0.4786  0.1792  0.0417
  105CHL1  H19A13997   5.592   3.075   7.758 -0.2226 -0.6652  0.0775
  105CHL1  H19B13998   5.603   3.137   7.596 -0.0185  0.1926  0.2331
  105CHL1  H19C13999   5.556   2.968   7.616  0.3306  0.1797  0.2914
  105CHL1    C114000   5.776   2.869   7.745 -0.2960  0.5193 -0.1405
  105CHL1   H1A14001   5.707   2.794   7.699 -0.4463  1.1450 -0.9616
  105CHL1   H1B14002   5.880   2.830   7.741  0.0068  1.0440  1.7243
  105CHL1    C214003   5.736   2.894   7.890 -0.1265  0.4877  0.2903
  105CHL1   H2A14004   5.737   2.796   7.943 -0.5400  1.1938  1.6703
  105CHL1   H2B14005   5.630   2.925   7.898 -0.4255 -0.7699  1.7503
  105CHL1   C2014006   5.787   2.919   6.950  0.4093 -0.7296  0.5733
  105CHL1   H2014007   5.721   3.002   6.918  0.6996 -1.6232 -2.7919
  105CHL1   C2114008   5.703   2.783   6.961  0.7892 -0.0091  0.1926
  105CHL1  H21A14009   5.617   2.789   7.031 -0.7773  0.7323 -1.6928
  105CHL1  H21B14010   5.772   2.705   7.000  0.1389 -0.6827  0.0245
  105CHL1  H21C14011   5.649   2.752   6.869  0.1212  1.8614 -0.0747
  105CHL1   C2214012   5.885   2.899   6.828 -0.5770 -0.0980  0.2515
  105CHL1  H22A14013   5.940   2.991   6.802  0.2884 -0.8051 -0.4488
  105CHL1  H22B14014   5.955   2.821   6.866  0.7869  0.2320 -1.4718
  105CHL1   C2314015   5.830   2.835   6.701  0.0458  0.6502 -0.1434
  105CHL1  H23A14016   5.917   2.809   6.637 -0.7329 -3.9042  0.2897
  105CHL1  H23B14017   5.778   2.740   6.727  0.8003  0.7900  2.0816
  105CHL1   C2414018   5.740   2.932   6.627  0.4567 -0.3054 -0.0554
  105CHL1  H24A14019   5.659   2.960   6.698  1.0438  0.3311  0.3716
  105CHL1  H24B14020   5.800   3.024   6.611  0.7416 -0.5243 -0.2498
  105CHL1   C2514021   5.679   2.895   6.485 -0.4040  0.0105 -0.1685
  105CHL1   H2514022   5.767   2.856   6.432  0.1954  1.2983 -0.1543
  105CHL1   C2614023   5.566   2.794   6.495  0.7499  0.1407  0.3040
  105CHL1  H26A14024   5.542   2.764   6.390 -0.3557 -1.5451  0.9955
  105CHL1  H26B14025   5.611   2.708   6.548  0.4706  0.2434  0.7144
  105CHL1  H26C14026   5.471   2.834   6.537  1.0282  2.3320 -0.9516
  105CHL1   C2714027   5.621   3.019   6.413  0.3549 -0.2756 -0.7530
  105CHL1  H27A14028   5.693   3.104   6.416  0.4879 -0.3432 -1.6594
  105CHL1  H27B14029   5.604   2.998   6.305 -1.3248  0.6640 -0.7000
  105CHL1  H27C14030   5.524   3.053   6.454  0.3321 -2.8192  1.5711
  106CHL1    C314031   0.621   2.324   8.403 -0.2773  0.2343 -0.1026
  106CHL1    H314032   0.534   2.255   8.394  0.6039 -1.6496  3.6404
  106CHL1    O314033   0.621   2.395   8.527  0.4577  0.0846 -0.1431
  106CHL1   H3'14034   0.541   2.378   8.577  1.1384  0.9533  1.3307
  106CHL1    C414035   0.759   2.241   8.398  0.5668  0.4592  0.1121
  106CHL1   H4A14036   0.836   2.319   8.418  0.9868  0.2152 -0.4990
  106CHL1   H4B14037   0.752   2.161   8.474  1.8340  0.1826 -0.0313
  106CHL1    C514038   0.795   2.179   8.261 -0.4750  0.2352 -0.2169
  106CHL1    C614039   0.835   2.047   8.249  0.2712  0.4368  0.5244
  106CHL1    H614040   0.839   1.982   8.339 -0.6225 -0.2490  0.0890
  106CHL1    C714041   0.865   1.984   8.115  0.5583 -0.6000  0.3381
  106CHL1   H7A14042   0.964   1.934   8.121  1.6170  1.4368  0.8764
  106CHL1   H7B14043   0.790   1.906   8.092 -0.9726  0.7389  0.6051
  106CHL1    C814044   0.868   2.077   7.991 -0.0473 -0.0504 -1.1009
  106CHL1    H814045   0.968   2.124   7.990 -0.4293  0.8277 -0.3235
  106CHL1   C1414046   0.844   2.006   7.861 -0.5624 -0.5564 -0.7882
  106CHL1   H1414047   0.739   1.970   7.864 -0.5931 -0.4221  0.2771
  106CHL1   C1514048   0.924   1.877   7.843  0.3440 -0.4887 -0.1069
  106CHL1  H15A14049   1.029   1.891   7.878 -0.3020  0.1037  1.7050
  106CHL1  H15B14050   0.868   1.801   7.902 -1.8719  1.2029  0.0789
  106CHL1   C1614051   0.930   1.850   7.687  0.1496  0.3834  0.5905
  106CHL1  H16A14052   1.035   1.852   7.653 -0.1621 -1.3985 -0.5752
  106CHL1  H16B14053   0.889   1.752   7.654 -3.2364  0.7172  3.2146
  106CHL1   C1714054   0.845   1.972   7.628 -0.0544 -0.0783 -0.1564
  106CHL1   H1714055   0.742   1.932   7.640  0.3617 -1.5274 -1.1631
  106CHL1   C1314056   0.862   2.081   7.731 -0.7520  0.1964 -0.0477
  106CHL1   C1814057   1.003   2.142   7.723 -0.2010 -0.4611  0.2908
  106CHL1  H18A14058   1.025   2.224   7.794  0.4348 -0.0616 -0.3584
  106CHL1  H18B14059   1.079   2.063   7.741 -0.6890 -0.9457  0.2664
  106CHL1  H18C14060   1.017   2.195   7.627  1.4445  1.0748  1.3297
  106CHL1   C1214061   0.751   2.191   7.738 -0.2476  0.6552 -0.1510
  106CHL1  H12A14062   0.772   2.257   7.651 -1.9685 -0.2860 -1.3321
  106CHL1  H12B14063   0.655   2.143   7.709 -0.7841  1.4445  0.2701
  106CHL1   C1114064   0.747   2.269   7.871  0.1057 -0.2449 -0.2198
  106CHL1  H11A14065   0.825   2.345   7.850 -1.0696  0.7758 -1.0692
  106CHL1  H11B14066   0.647   2.318   7.879 -0.5375 -1.4075 -0.9050
  106CHL1    C914067   0.761   2.191   7.998  0.2629 -0.1825 -1.0528
  106CHL1    H914068   0.665   2.137   8.010 -1.3016  2.9750  3.4950
  106CHL1   C1014069   0.766   2.273   8.135  0.3094  0.2835 -0.1016
  106CHL1   C1914070   0.883   2.368   8.132  0.3563  0.3661 -0.0138
  106CHL1  H19A14071   0.846   2.455   8.074 -0.9182  1.2952  2.0680
  106CHL1  H19B14072   0.912   2.404   8.233  0.0293 -0.4060  0.3695
  106CHL1  H19C14073   0.975   2.333   8.082  1.0366 -0.3262  1.6293
  106CHL1    C114074   0.628   2.350   8.147 -0.2603 -0.2479 -0.8749
  106CHL1   H1A14075   0.614   2.416   8.059  1.8099  1.9433  0.2944
  106CHL1   H1B14076   0.551   2.270   8.152 -0.4298 -0.0400  1.9572
  106CHL1    C214077   0.602   2.419   8.283 -0.5927  0.0602  0.6647
  106CHL1   H2A14078   0.500   2.464   8.286 -1.1271 -1.1594  1.3022
  106CHL1   H2B14079   0.672   2.502   8.307  1.1921 -1.4372  0.8575
  106CHL1   C2014080   0.882   1.990   7.485  0.0867 -0.6757  0.6669
  106CHL1   H2014081   0.972   2.054   7.484 -1.0235  0.9351 -0.7551
  106CHL1   C2114082   0.768   2.076   7.429  0.5141 -1.0004 -0.0900
  106CHL1  H21A14083   0.761   2.076   7.318 -1.3423  1.2808 -0.0356
  106CHL1  H21B14084   0.773   2.178   7.472  0.7578 -2.1841  2.8981
  106CHL1  H21C14085   0.670   2.046   7.471 -0.4353 -0.0208 -1.5291
  106CHL1   C2214086   0.909   1.870   7.390  0.2603  0.5645  0.2961
  106CHL1  H22A14087   0.997   1.814   7.428  0.7970 -0.7938 -2.6273
  106CHL1  H22B14088   0.832   1.792   7.374  0.8040 -0.3756  1.9689
  106CHL1   C2314089   0.948   1.906   7.242  0.1173 -0.1813  0.3575
  106CHL1  H23A14090   0.852   1.927   7.190  0.1752  1.6875  0.9471
  106CHL1  H23B14091   0.988   2.009   7.248 -2.6931  1.0592 -0.5757
  106CHL1   C2414092   1.040   1.811   7.167  0.3933  1.5078 -0.3256
  106CHL1  H24A14093   1.132   1.797   7.228  0.8261 -1.2059 -1.4159
  106CHL1  H24B14094   0.988   1.712   7.167  1.3064  1.0021  1.3683
  106CHL1   C2514095   1.083   1.865   7.027 -0.2065 -0.0194 -0.4286
  106CHL1   H2514096   1.128   1.966   7.035 -0.6433  0.0556  1.9681
  106CHL1   C2614097   1.188   1.777   6.956 -0.4726 -0.2212 -0.2061
  106CHL1  H26A14098   1.281   1.773   7.016 -0.0571 -1.8661 -0.8896
  106CHL1  H26B14099   1.132   1.683   6.934 -0.0630 -0.2835 -1.0333
  106CHL1  H26C14100   1.215   1.815   6.855  3.4978 -3.3480 -0.5518
  106CHL1   C2714101   0.957   1.889   6.937 -0.2273 -0.1084  0.9914
  106CHL1  H27A14102   0.883   1.806   6.936 -0.4279  0.0659 -0.8296
  106CHL1  H27B14103   0.901   1.982   6.960  1.5633  0.5007  3.3641
  106CHL1  H27C14104   0.990   1.902   6.832 -0.9864  0.7564  0.8477
  107CHL1    C314105   4.135   5.851   7.817  0.2733  0.1839 -0.1620
  107CHL1    H314106   4.197   5.761   7.803  1.7136  0.9231  1.1250
  107CHL1    O314107   4.128   5.874   7.955  0.4977 -0.2866 -0.0407
  107CHL1   H3'14108   4.103   5.966   7.963  0.9841 -0.0157 -1.2875
  107CHL1    C414109   4.192   5.979   7.751 -0.0847  0.2692  0.5328
  107CHL1   H4A14110   4.123   6.056   7.791  0.5642  0.7269  0.7896
  107CHL1   H4B14111   4.295   5.997   7.789  0.4385 -0.8943 -0.2645
  107CHL1    C514112   4.181   5.979   7.600 -0.0010 -0.1636 -0.9984
  107CHL1    C614113   4.293   5.996   7.527 -0.4556 -0.8903  0.3150
  107CHL1    H614114   4.388   6.021   7.578  0.7992 -1.9697 -1.4053
  107CHL1    C714115   4.301   5.988   7.378  0.4325 -0.4311  0.2242
  107CHL1   H7A14116   4.362   6.071   7.337 -0.5920 -0.3386 -1.2292
  107CHL1   H7B14117   4.346   5.892   7.346 -1.3646 -1.0823 -0.5415
  107CHL1    C814118   4.157   5.990   7.316 -0.2076  0.3732 -0.2648
  107CHL1    H814119   4.134   6.098   7.306  3.0118  1.1123 -1.0995
  107CHL1   C1414120   4.157   5.939   7.171 -0.0513 -0.3116 -1.4013
  107CHL1   H1414121   4.190   5.833   7.177  0.8543 -0.0162  3.7279
  107CHL1   C1514122   4.271   6.002   7.084 -0.0229 -0.0984  0.3202
  107CHL1  H15A14123   4.276   6.112   7.100 -0.3734 -0.0448  0.0720
  107CHL1  H15B14124   4.372   5.958   7.093  0.6362  0.4751 -3.0702
  107CHL1   C1614125   4.223   5.976   6.937  0.3484 -1.0460  0.0358
  107CHL1  H16A14126   4.202   6.077   6.894 -0.9570 -0.8834  0.9946
  107CHL1  H16B14127   4.299   5.933   6.870  1.6016  1.9276 -0.6232
  107CHL1   C1714128   4.087   5.904   6.951  0.0154  0.1359  0.6076
  107CHL1   H1714129   4.099   5.793   6.957  0.9451  0.1208 -1.0032
  107CHL1   C1314130   4.031   5.939   7.090  0.4015  0.1303 -0.2130
  107CHL1   C1814131   3.974   6.080   7.083  0.4763 -0.6600  0.4701
  107CHL1  H18A14132   4.041   6.146   7.023 -1.5931  1.7219  0.6012
  107CHL1  H18B14133   3.870   6.076   7.044  0.1268 -2.3699  1.5068
  107CHL1  H18C14134   3.975   6.128   7.183  2.1671 -1.6599  0.9763
  107CHL1   C1214135   3.938   5.848   7.170 -0.0056 -0.4573 -0.1192
  107CHL1  H12A14136   3.837   5.847   7.124  1.2571 -2.5414 -3.1661
  107CHL1  H12B14137   3.978   5.745   7.168  0.6815 -0.2055  0.5598
  107CHL1   C1114138   3.924   5.889   7.318  0.0356 -0.2545 -0.7256
  107CHL1  H11A14139   3.869   5.986   7.315  0.5757  0.0465 -0.9586
  107CHL1  H11B14140   3.869   5.802   7.361  0.8185 -1.0747 -1.3425
  107CHL1    C914141   4.060   5.906   7.391  0.0953  0.4445  0.5359
  107CHL1    H914142   4.104   5.804   7.382  1.3557  0.9237  1.0592
  107CHL1   C1014143   4.047   5.941   7.540 -0.1597 -0.2723 -0.5741
  107CHL1   C1914144   3.955   6.066   7.552 -0.6842  0.0922 -0.6818
  107CHL1  H19A14145   3.848   6.039   7.537 -0.1400 -0.7441 -3.8643
  107CHL1  H19B14146   3.961   6.119   7.649  0.2058 -1.8332  0.3700
  107CHL1  H19C14147   3.994   6.140   7.479  1.1999 -0.1853 -0.0049
  107CHL1    C114148   3.988   5.810   7.615 -0.0497  0.3368 -0.0218
  107CHL1   H1A14149   3.889   5.785   7.571 -0.3629  1.2413  0.1418
  107CHL1   H1B14150   4.051   5.723   7.588  1.6603  1.2277  0.8986
  107CHL1    C214151   3.987   5.820   7.769 -0.4327  0.4007 -0.2569
  107CHL1   H2A14152   3.957   5.722   7.813 -2.1506  1.7745  1.8805
  107CHL1   H2B14153   3.911   5.898   7.792 -4.4051 -3.0845 -0.3659
  107CHL1   C2014154   4.005   5.922   6.818 -0.1233  0.2683  0.2005
  107CHL1   H2014155   3.981   6.029   6.799 -1.1941  0.1145  0.5954
  107CHL1   C2114156   3.864   5.847   6.827  0.2205  0.1739 -0.0123
  107CHL1  H21A14157   3.887   5.744   6.863 -2.1208 -1.0506 -1.7534
  107CHL1  H21B14158   3.812   5.835   6.730  2.5502 -1.2627 -1.1960
  107CHL1  H21C14159   3.792   5.894   6.897 -1.3708 -2.2657  0.1123
  107CHL1   C2214160   4.082   5.874   6.693 -0.0975 -0.3283 -0.9790
  107CHL1  H22A14161   4.189   5.906   6.694 -0.6900  1.7574 -0.7351
  107CHL1  H22B14162   4.095   5.764   6.699 -0.9025 -0.5042 -2.0640
  107CHL1   C2314163   4.018   5.905   6.555  0.0876 -0.8524 -0.6059
  107CHL1  H23A14164   3.925   5.847   6.537 -1.8340  1.6994  0.5322
  107CHL1  H23B14165   3.985   6.010   6.561  1.8885 -0.2997  0.5530
  107CHL1   C2414166   4.103   5.874   6.429  0.5735 -0.1099  0.7491
  107CHL1  H24A14167   4.176   5.956   6.410 -0.7008  0.6778 -0.9139
  107CHL1  H24B14168   4.162   5.780   6.438 -0.8492 -0.9793  1.2741
  107CHL1   C2514169   4.011   5.868   6.309  0.5900 -0.8809 -0.2581
  107CHL1   H2514170   3.942   5.955   6.312  1.8610  0.4148 -3.6231
  107CHL1   C2614171   4.102   5.905   6.192 -0.5388  0.2186  0.3386
  107CHL1  H26A14172   4.045   5.895   6.097 -2.6307 -2.0733  1.7111
  107CHL1  H26B14173   4.146   6.005   6.214 -0.6103 -0.5469  4.7606
  107CHL1  H26C14174   4.184   5.830   6.185  0.7747  1.4624  1.8340
  107CHL1   C2714175   3.947   5.734   6.289  0.8650 -0.3948 -0.2343
  107CHL1  H27A14176   3.919   5.678   6.380  2.6623  0.7571  1.0921
  107CHL1  H27B14177   3.856   5.746   6.226 -0.8711 -2.0386  1.7995
  107CHL1  H27C14178   4.020   5.664   6.243  0.8448 -1.6552  1.5487
  108CHL1    C314179   5.135   3.064   7.804  0.4117 -0.6792  0.8038
  108CHL1    H314180   5.144   3.166   7.760 -1.6480 -0.4736  0.7862
  108CHL1    O314181   5.135   3.076   7.944 -0.0389 -0.4122  0.2255
  108CHL1   H3'14182   5.203   3.142   7.961 -1.0371  0.0434  2.8561
  108CHL1    C414183   4.999   3.014   7.752  0.6803 -0.0608 -0.4118
  108CHL1   H4A14184   4.990   2.910   7.789 -1.6550  1.1213  2.7653
  108CHL1   H4B14185   4.914   3.078   7.786 -0.2213 -0.4731 -1.8167
  108CHL1    C514186   4.992   3.012   7.601 -0.2826 -0.6173  0.6453
  108CHL1    C614187   4.905   3.083   7.526  0.4943  0.2664 -0.4052
  108CHL1    H614188   4.826   3.138   7.579  0.6712  1.2903 -1.1738
  108CHL1    C714189   4.900   3.082   7.377 -0.0832 -0.2520 -0.6248
  108CHL1   H7A14190   4.796   3.081   7.337 -0.1641 -0.9754 -0.4174
  108CHL1   H7B14191   4.942   3.176   7.336  0.0415  1.0559  2.2389
  108CHL1    C814192   4.984   2.965   7.320  0.2402  0.0505 -0.3905
  108CHL1    H814193   4.922   2.874   7.332  0.2772 -0.0074 -0.6277
  108CHL1   C1414194   4.996   2.992   7.167  0.0443 -0.1257 -0.0616
  108CHL1   H1414195   5.050   3.088   7.157 -3.6354  2.2543  1.0542
  108CHL1   C1514196   4.869   3.022   7.088  0.1767  0.0642 -0.5200
  108CHL1  H15A14197   4.782   2.959   7.116  0.8867 -1.0078 -0.6552
  108CHL1  H15B14198   4.837   3.128   7.096 -1.5231 -0.4273 -0.5046
  108CHL1   C1614199   4.902   2.990   6.949 -0.2697  0.8362  0.8030
  108CHL1  H16A14200   4.838   2.903   6.922 -1.1528  1.6943  0.0272
  108CHL1  H16B14201   4.895   3.079   6.883 -1.2232  0.6935  0.6934
  108CHL1   C1714202   5.046   2.929   6.947 -0.2550  0.3987  0.2410
  108CHL1   H1714203   5.120   3.009   6.924  0.3325 -0.9892 -3.2411
  108CHL1   C1314204   5.074   2.884   7.090  0.6323 -1.2845 -0.0164
  108CHL1   C1814205   5.002   2.751   7.114  0.3601  1.2824 -0.7080
  108CHL1  H18A14206   5.047   2.673   7.049 -0.9620 -0.7166  0.6856
  108CHL1  H18B14207   5.007   2.714   7.218  0.8210  1.0732 -0.8005
  108CHL1  H18C14208   4.896   2.750   7.081 -0.1776  0.6316  0.9569
  108CHL1   C1214209   5.218   2.882   7.156  0.2457  0.0936  0.3244
  108CHL1  H12A14210   5.269   2.795   7.110 -0.3799 -1.4870  2.5022
  108CHL1  H12B14211   5.279   2.973   7.137  1.8269 -1.3477 -1.9633
  108CHL1   C1114212   5.216   2.857   7.307 -0.5840 -0.1670 -0.1108
  108CHL1  H11A14213   5.186   2.751   7.324  0.8705 -0.4216  1.1845
  108CHL1  H11B14214   5.321   2.860   7.344 -0.0063 -4.2898 -0.8534
  108CHL1    C914215   5.119   2.953   7.388  1.0171  0.3806 -0.0028
  108CHL1    H914216   5.166   3.052   7.372 -0.1516  0.9957  0.3115
  108CHL1   C1014217   5.110   2.929   7.535 -0.1248  0.0235 -0.3882
  108CHL1   C1914218   5.086   2.782   7.562 -0.0414  0.6266 -0.1569
  108CHL1  H19A14219   5.080   2.759   7.670  0.1293 -1.7994 -0.6107
  108CHL1  H19B14220   4.990   2.753   7.515 -0.6309 -0.7920  1.7960
  108CHL1  H19C14221   5.165   2.711   7.531 -2.2037 -1.7824 -0.4878
  108CHL1    C114222   5.249   2.969   7.601  0.0149  0.5526  0.8802
  108CHL1   H1A14223   5.328   2.899   7.566  0.1943  0.8472  0.6885
  108CHL1   H1B14224   5.283   3.068   7.564 -1.4049  0.8827  0.3994
  108CHL1    C214225   5.254   2.984   7.754  0.3713 -0.4631  0.4182
  108CHL1   H2A14226   5.351   3.032   7.781 -1.1030  3.2345 -0.1762
  108CHL1   H2B14227   5.251   2.881   7.795  0.2865 -0.4490  0.4479
  108CHL1   C2014228   5.070   2.826   6.828 -0.0011 -0.3831 -0.4194
  108CHL1   H2014229   4.987   2.752   6.829 -1.0729  0.7355 -1.6934
  108CHL1   C2114230   5.207   2.758   6.852  0.2475  0.2292  0.4689
  108CHL1  H21A14231   5.234   2.692   6.767 -1.1652  0.3919 -0.1262
  108CHL1  H21B14232   5.211   2.687   6.938  1.9022 -0.6334 -0.2733
  108CHL1  H21C14233   5.286   2.835   6.858  0.9237 -0.4520  0.4651
  108CHL1   C2214234   5.065   2.879   6.687  0.4144  0.1924  0.0731
  108CHL1  H22A14235   4.978   2.945   6.668  0.4867 -0.5859 -3.9246
  108CHL1  H22B14236   5.156   2.941   6.672 -0.6765  1.5809 -1.0842
  108CHL1   C2314237   5.054   2.770   6.573  0.5757  0.5692  0.6148
  108CHL1  H23A14238   5.146   2.707   6.567  0.5447  0.5460  0.3900
  108CHL1  H23B14239   4.971   2.700   6.598  1.2575 -0.0307  1.2670
  108CHL1   C2414240   5.028   2.835   6.439 -0.1223 -0.3339  0.1586
  108CHL1  H24A14241   4.922   2.865   6.428  0.0538  0.9375  1.4670
  108CHL1  H24B14242   5.097   2.922   6.435 -0.0823 -0.3933 -0.4159
  108CHL1   C2514243   5.044   2.744   6.313  0.0883  0.5154  0.2353
  108CHL1   H2514244   5.139   2.687   6.324 -0.4102 -0.4884 -0.4629
  108CHL1   C2614245   4.923   2.652   6.297  0.4145 -0.7033  1.1792
  108CHL1  H26A14246   4.829   2.711   6.297  0.3556 -0.7766  0.1064
  108CHL1  H26B14247   4.916   2.605   6.197 -1.0673  0.8116  0.5350
  108CHL1  H26C14248   4.930   2.572   6.374  0.8130 -0.4420  1.4245
  108CHL1   C2714249   5.051   2.833   6.190  0.3975 -0.4362 -0.7341
  108CHL1  H27A14250   4.957   2.890   6.171  0.4599 -0.1864 -0.3057
  108CHL1  H27B14251   5.132   2.908   6.185 -3.0322  3.6615 -0.7153
  108CHL1  H27C14252   5.068   2.769   6.101 -2.0400  0.6417 -2.0910
  109CHL1    C314253   2.724   5.324   7.800 -0.0273 -0.0569  0.2426
  109CHL1    H314254   2.766   5.422   7.769  0.5951  0.0484  1.3844
  109CHL1    O314255   2.695   5.327   7.937 -0.1199 -0.1989 -0.3449
  109CHL1   H3'14256   2.759   5.272   7.982 -1.2639 -0.7171  0.7148
  109CHL1    C414257   2.594   5.292   7.720 -0.2499 -0.5885  0.3648
  109CHL1   H4A14258   2.553   5.195   7.755 -0.7957 -0.4786  0.0301
  109CHL1   H4B14259   2.523   5.374   7.744  2.4656  2.8549 -2.1250
  109CHL1    C514260   2.618   5.277   7.571 -0.4800  0.4822 -0.3714
  109CHL1    C614261   2.571   5.369   7.490  0.4118 -0.3112 -0.1411
  109CHL1    H614262   2.507   5.447   7.533  1.1931  0.2634  0.0114
  109CHL1    C714263   2.598   5.379   7.335  0.0861  0.5254 -0.5348
  109CHL1   H7A14264   2.514   5.410   7.270  0.1414  2.3038  0.2024
  109CHL1   H7B14265   2.681   5.453   7.334  0.6254 -0.0667 -1.9175
  109CHL1    C814266   2.655   5.241   7.288  0.7048  0.7682  1.2663
  109CHL1    H814267   2.572   5.167   7.291 -0.7407  2.2560 -0.1759
  109CHL1   C1414268   2.700   5.249   7.146  0.2807  0.0674  1.4358
  109CHL1   H1414269   2.773   5.332   7.160  2.0442 -0.8448 -1.5014
  109CHL1   C1514270   2.617   5.305   7.026  0.6338  0.3778  0.3746
  109CHL1  H15A14271   2.519   5.253   7.029  1.2787 -0.9210 -0.0919
  109CHL1  H15B14272   2.594   5.414   7.027 -1.5422 -0.0431  0.7303
  109CHL1   C1614273   2.692   5.266   6.898 -0.5047  0.1882  0.6219
  109CHL1  H16A14274   2.632   5.202   6.830  1.6311 -1.4230  0.1259
  109CHL1  H16B14275   2.725   5.358   6.844  0.8976 -0.5903  0.1053
  109CHL1   C1714276   2.822   5.189   6.943 -0.2164  0.5096  0.5389
  109CHL1   H1714277   2.910   5.256   6.947 -0.5375  0.9074  1.3552
  109CHL1   C1314278   2.782   5.138   7.088  0.1087 -0.2766  0.1150
  109CHL1   C1814279   2.688   5.019   7.073  0.1036 -0.0706  0.6017
  109CHL1  H18A14280   2.747   4.942   7.020  0.7877  0.3530  0.7379
  109CHL1  H18B14281   2.660   4.977   7.172 -2.6021  2.5380  1.0781
  109CHL1  H18C14282   2.593   5.034   7.016 -0.9726  0.3642  2.4217
  109CHL1   C1214283   2.904   5.110   7.180 -0.2765 -0.1641  0.0341
  109CHL1  H12A14284   2.963   5.025   7.140 -0.4875 -0.1141 -0.3869
  109CHL1  H12B14285   2.965   5.203   7.181 -0.2402  0.0124 -3.8841
  109CHL1   C1114286   2.856   5.077   7.324  0.2145 -0.4827 -0.4713
  109CHL1  H11A14287   2.817   4.973   7.333 -1.4426 -0.1165 -2.5247
  109CHL1  H11B14288   2.944   5.069   7.391  0.7524 -1.6584 -1.2822
  109CHL1    C914289   2.764   5.195   7.380 -1.2432 -0.7576  0.2739
  109CHL1    H914290   2.838   5.278   7.385 -0.9274 -1.0609  0.6694
  109CHL1   C1014291   2.724   5.169   7.525  0.2174  0.9251 -0.3139
  109CHL1   C1914292   2.653   5.034   7.537  0.0200 -0.0196  0.2635
  109CHL1  H19A14293   2.594   5.027   7.631 -3.0050  0.4553 -1.4565
  109CHL1  H19B14294   2.580   5.020   7.455 -0.6035 -2.4383  1.1486
  109CHL1  H19C14295   2.723   4.949   7.533 -0.3541 -0.4175  1.6227
  109CHL1    C114296   2.850   5.183   7.613 -0.9188  0.2766 -0.1662
  109CHL1   H1A14297   2.917   5.094   7.608 -0.5716  0.5612 -0.5832
  109CHL1   H1B14298   2.920   5.263   7.579 -0.5584  0.0438  0.0169
  109CHL1    C214299   2.825   5.212   7.763 -0.6695  0.0911 -0.1841
  109CHL1   H2A14300   2.922   5.234   7.813 -0.6789  1.5863 -0.7490
  109CHL1   H2B14301   2.793   5.116   7.808  1.8329 -0.3144  0.9505
  109CHL1   C2014302   2.868   5.082   6.840 -0.1366 -0.4009  0.2002
  109CHL1   H2014303   2.775   5.023   6.824  0.7245 -1.0469 -3.1241
  109CHL1   C2114304   2.976   4.986   6.891 -0.8561  0.3687  0.8311
  109CHL1  H21A14305   3.061   5.054   6.911 -0.2053  0.1288 -0.9576
  109CHL1  H21B14306   3.012   4.914   6.814 -1.6107  1.5554 -0.6876
  109CHL1  H21C14307   2.935   4.928   6.977 -0.9463  0.8449  1.1119
  109CHL1   C2214308   2.907   5.152   6.704  0.1009  0.0160  0.3388
  109CHL1  H22A14309   2.811   5.186   6.661 -0.3784  1.2335  2.2292
  109CHL1  H22B14310   2.968   5.244   6.718 -1.0089  1.1410 -1.6831
  109CHL1   C2314311   2.980   5.060   6.607 -0.6484  0.7220 -0.2994
  109CHL1  H23A14312   3.087   5.056   6.635 -1.1075 -1.9835  1.4833
  109CHL1  H23B14313   2.937   4.957   6.613  1.6614 -0.2229  2.0770
  109CHL1   C2414314   2.974   5.112   6.468 -0.6712 -0.8355  0.5936
  109CHL1  H24A14315   2.871   5.125   6.429  0.1705 -0.4695 -1.6443
  109CHL1  H24B14316   3.021   5.213   6.473 -0.8704 -0.5399 -2.1676
  109CHL1   C2514317   3.059   5.032   6.365 -0.4061 -0.1942 -0.2595
  109CHL1   H2514318   2.992   4.943   6.358  1.4367 -1.7580  0.9213
  109CHL1   C2614319   3.067   5.106   6.233  0.8617 -0.2433 -0.5384
  109CHL1  H26A14320   2.961   5.137   6.217 -0.2718 -2.6408  1.6074
  109CHL1  H26B14321   3.142   5.187   6.243  0.5726 -0.1029  0.5540
  109CHL1  H26C14322   3.085   5.032   6.152 -0.9783 -2.0320  0.6011
  109CHL1   C2714323   3.199   4.978   6.407  0.0069  0.4537 -0.0770
  109CHL1  H27A14324   3.203   4.906   6.492  0.5183  0.4640 -0.0884
  109CHL1  H27B14325   3.250   4.931   6.320  1.2644  2.4668 -0.5051
  109CHL1  H27C14326   3.255   5.066   6.446 -1.1691  0.2335  2.3323
  110CHL1    C314327   1.753   4.596   7.871 -0.1756 -1.0687 -0.1283
  110CHL1    H314328   1.727   4.495   7.908  2.6512 -1.2676  1.5283
  110CHL1    O314329   1.757   4.691   7.971 -1.1072 -0.5632  0.0953
  110CHL1   H3'14330   1.838   4.742   7.967 -1.1417 -0.5076  0.0991
  110CHL1    C414331   1.888   4.592   7.797  0.0673 -0.7144  0.3975
  110CHL1   H4A14332   1.914   4.699   7.783 -3.9330  0.2907 -0.5144
  110CHL1   H4B14333   1.974   4.556   7.858 -0.7504  0.0161  2.0444
  110CHL1    C514334   1.872   4.509   7.670  0.3306  0.1953 -0.6908
  110CHL1    C614335   1.965   4.416   7.638  0.6516 -0.1717  0.0431
  110CHL1    H614336   2.050   4.399   7.707  1.6727  1.1642 -0.8328
  110CHL1    C714337   1.969   4.329   7.515 -0.6128  0.3787 -0.4042
  110CHL1   H7A14338   2.075   4.330   7.482  0.6227 -0.2141  3.0988
  110CHL1   H7B14339   1.935   4.227   7.542 -0.8217  0.9087  1.4598
  110CHL1    C814340   1.875   4.396   7.413  0.1103  0.4872  0.0583
  110CHL1    H814341   1.920   4.487   7.368 -2.4722  1.5753 -0.5159
  110CHL1   C1414342   1.866   4.299   7.292 -0.4165 -0.3628  0.0217
  110CHL1   H1414343   1.822   4.204   7.329  0.2807 -1.0575 -0.8708
  110CHL1   C1514344   1.995   4.258   7.218  0.5642  0.0362  0.4257
  110CHL1  H15A14345   2.063   4.343   7.194 -0.3284  0.5510 -0.3227
  110CHL1  H15B14346   2.053   4.190   7.285 -0.4168  0.3373  1.6239
  110CHL1   C1614347   1.937   4.202   7.090  0.3996 -0.5741 -0.1876
  110CHL1  H16A14348   2.001   4.237   7.006 -0.6644 -0.9563 -1.2042
  110CHL1  H16B14349   1.941   4.091   7.089 -0.1426 -0.5988 -0.6212
  110CHL1   C1714350   1.787   4.243   7.081  0.0077  0.8922 -0.6096
  110CHL1   H1714351   1.743   4.151   7.125  2.9307  0.2883  1.4217
  110CHL1   C1314352   1.769   4.354   7.183 -0.2108 -0.7043 -0.1830
  110CHL1   C1814353   1.824   4.486   7.118 -0.7550 -0.0018 -0.0387
  110CHL1  H18A14354   1.857   4.564   7.190  1.6401 -0.7798 -0.1802
  110CHL1  H18B14355   1.902   4.463   7.042 -2.8866 -2.9278 -1.5398
  110CHL1  H18C14356   1.748   4.543   7.062 -0.4595  0.2451 -0.1904
  110CHL1   C1214357   1.637   4.366   7.249 -0.1119  0.3271 -0.6283
  110CHL1  H12A14358   1.569   4.415   7.176 -0.4163  1.9392  0.6902
  110CHL1  H12B14359   1.590   4.270   7.282  2.3934 -0.3025  1.3877
  110CHL1   C1114360   1.638   4.466   7.361 -0.6275  0.2645  0.2141
  110CHL1  H11A14361   1.638   4.566   7.311  0.1934  1.7640  3.0348
  110CHL1  H11B14362   1.536   4.480   7.403 -0.9676  0.1702 -0.5651
  110CHL1    C914363   1.742   4.438   7.468 -0.1811  0.3957  0.0958
  110CHL1    H914364   1.704   4.348   7.520  0.7012  1.5432  2.9619
  110CHL1   C1014365   1.755   4.544   7.573  0.0415 -0.2649  0.3467
  110CHL1   C1914366   1.775   4.684   7.508  0.4146  0.2561 -0.1387
  110CHL1  H19A14367   1.676   4.721   7.474  0.6224  0.2039 -0.8097
  110CHL1  H19B14368   1.826   4.759   7.572 -0.1080 -0.4929  1.1907
  110CHL1  H19C14369   1.849   4.672   7.426  0.4647  0.3394 -0.1053
  110CHL1    C114370   1.622   4.547   7.659 -0.0202 -0.2028  0.5347
  110CHL1   H1A14371   1.542   4.580   7.589  1.5065  0.3672 -1.0007
  110CHL1   H1B14372   1.593   4.442   7.683 -0.7000 -0.3400 -0.7919
  110CHL1    C214373   1.631   4.637   7.781  0.6544  0.4698 -0.4292
  110CHL1   H2A14374   1.542   4.635   7.847 -0.0346  0.3085 -1.3380
  110CHL1   H2B14375   1.656   4.741   7.750  0.9320  1.0973  1.7177
  110CHL1   C2014376   1.731   4.265   6.946 -0.3462 -0.4713 -0.0825
  110CHL1   H2014377   1.767   4.365   6.912 -0.0088 -1.1404 -1.8122
  110CHL1   C2114378   1.581   4.264   6.949 -0.0834  0.0072 -0.8594
  110CHL1  H21A14379   1.535   4.249   6.849 -0.2918  0.3382 -0.8152
  110CHL1  H21B14380   1.533   4.358   6.983  0.2694  0.1931 -0.8759
  110CHL1  H21C14381   1.553   4.175   7.009  0.8141 -0.2348 -0.7829
  110CHL1   C2214382   1.779   4.168   6.838  0.1205  0.1176  0.2238
  110CHL1  H22A14383   1.889   4.184   6.828 -0.1430  1.9780 -0.1512
  110CHL1  H22B14384   1.761   4.062   6.866  1.2225 -0.7808 -2.1877
  110CHL1   C2314385   1.729   4.200   6.697  0.2622 -0.1989  0.3152
  110CHL1  H23A14386   1.622   4.224   6.679  1.1898  2.0197 -3.1557
  110CHL1  H23B14387   1.784   4.295   6.684 -2.1511  1.3284  0.6834
  110CHL1   C2414388   1.756   4.086   6.595  0.0370 -0.7165 -0.5572
  110CHL1  H24A14389   1.866   4.068   6.602  0.5508  1.9457 -0.6290
  110CHL1  H24B14390   1.693   3.998   6.620  1.8366 -2.7551 -2.6815
  110CHL1   C2514391   1.712   4.126   6.449 -0.8352  0.9298 -1.4300
  110CHL1   H2514392   1.762   4.051   6.384 -0.0554  0.5726 -0.4379
  110CHL1   C2614393   1.563   4.114   6.419  0.0095 -0.2528  0.5674
  110CHL1  H26A14394   1.539   4.125   6.311 -0.1098  0.6165  0.6741
  110CHL1  H26B14395   1.529   4.016   6.460 -0.5636  0.5262  2.0263
  110CHL1  H26C14396   1.510   4.183   6.487 -0.8776  0.0757 -0.4247
  110CHL1   C2714397   1.768   4.261   6.412 -0.1538  0.4403 -0.1531
  110CHL1  H27A14398   1.740   4.275   6.306 -1.9984 -1.5208  0.0047
  110CHL1  H27B14399   1.728   4.342   6.478  2.5400  2.4944 -0.8644
  110CHL1  H27C14400   1.879   4.264   6.421  0.0333 -2.3458 -0.5700
  111CHL1    C314401   2.844   0.435   7.978 -0.3720 -0.6282 -0.6264
  111CHL1    H314402   2.933   0.368   7.973  1.2416  1.4492 -0.7977
  111CHL1    O314403   2.828   0.448   8.118  0.0553 -0.2597 -0.3251
  111CHL1   H3'14404   2.773   0.370   8.130 -0.0991  0.0426  1.1219
  111CHL1    C414405   2.885   0.570   7.913  0.6144  0.6983 -0.2150
  111CHL1   H4A14406   2.807   0.647   7.930 -1.6849 -1.7199  0.8425
  111CHL1   H4B14407   2.978   0.601   7.965  0.4910 -2.2645  2.0608
  111CHL1    C514408   2.892   0.556   7.765  0.8354  0.3453 -0.2885
  111CHL1    C614409   3.001   0.602   7.697  0.2774  0.0238 -0.7468
  111CHL1    H614410   3.079   0.652   7.756 -1.9025  1.3541  1.1815
  111CHL1    C714411   3.007   0.605   7.546 -0.3237 -0.0349 -0.3981
  111CHL1   H7A14412   3.047   0.704   7.513  0.9323 -0.7495 -1.0961
  111CHL1   H7B14413   3.078   0.527   7.510  0.1765  0.1075  0.2434
  111CHL1    C814414   2.876   0.578   7.476  0.0731 -0.0380 -0.1723
  111CHL1    H814415   2.817   0.671   7.482 -0.5271 -0.3305 -1.1218
  111CHL1   C1414416   2.895   0.546   7.329 -0.0512 -0.6513  0.2700
  111CHL1   H1414417   2.960   0.457   7.320 -0.9253 -1.0876 -3.5343
  111CHL1   C1514418   2.975   0.647   7.233 -0.0840 -0.7871  0.7447
  111CHL1  H15A14419   2.946   0.748   7.269 -2.4480 -0.9091 -0.5874
  111CHL1  H15B14420   3.084   0.629   7.231 -0.0734 -1.0154 -2.7958
  111CHL1   C1614421   2.914   0.622   7.094  0.6050  0.5117 -0.1284
  111CHL1  H16A14422   2.847   0.705   7.063 -1.0141 -1.4777 -2.2845
  111CHL1  H16B14423   2.982   0.612   7.006  1.0605 -0.9785  0.3639
  111CHL1   C1714424   2.821   0.496   7.109 -0.2750  0.2542  0.1013
  111CHL1   H1714425   2.886   0.406   7.108  0.4629  0.7811 -0.1622
  111CHL1   C1314426   2.768   0.506   7.254 -0.0636 -0.4879 -0.0727
  111CHL1   C1814427   2.669   0.623   7.260  0.8150 -0.0591 -0.3806
  111CHL1  H18A14428   2.707   0.716   7.212 -0.7413 -0.0770 -1.7656
  111CHL1  H18B14429   2.581   0.596   7.197 -0.3385  0.1695  1.0901
  111CHL1  H18C14430   2.627   0.643   7.361  0.7659 -2.9427  0.2586
  111CHL1   C1214431   2.714   0.381   7.318 -0.2519  0.4104 -0.3997
  111CHL1  H12A14432   2.620   0.342   7.275  1.4161 -2.0125 -2.1619
  111CHL1  H12B14433   2.784   0.294   7.310  0.6965  1.1443 -0.3316
  111CHL1   C1114434   2.683   0.396   7.469  0.3233 -0.1238  0.0684
  111CHL1  H11A14435   2.593   0.460   7.480 -0.9006 -1.2089 -2.5889
  111CHL1  H11B14436   2.652   0.301   7.518 -0.8686  0.6447  0.8467
  111CHL1    C914437   2.798   0.462   7.553 -0.0475 -0.2095 -0.1844
  111CHL1    H914438   2.869   0.377   7.539  2.9044  2.1714 -0.7657
  111CHL1   C1014439   2.770   0.484   7.700 -0.5894 -1.1419  1.0329
  111CHL1   C1914440   2.661   0.597   7.702  0.2803 -0.0999 -0.4609
  111CHL1  H19A14441   2.643   0.632   7.806  0.5145 -0.3043 -0.3492
  111CHL1  H19B14442   2.675   0.686   7.638  1.7049 -1.4853 -2.1737
  111CHL1  H19C14443   2.567   0.549   7.667 -0.5105  0.4709  0.7801
  111CHL1    C114444   2.727   0.352   7.768 -0.3838  1.3647  0.0915
  111CHL1   H1A14445   2.624   0.322   7.740 -0.5088  2.3250 -0.5286
  111CHL1   H1B14446   2.803   0.273   7.748 -1.5448  0.4913 -0.9612
  111CHL1    C214447   2.721   0.369   7.919  0.3889 -0.3924 -0.7924
  111CHL1   H2A14448   2.710   0.268   7.964  2.8101 -0.4469 -0.1404
  111CHL1   H2B14449   2.627   0.421   7.945  1.1531  0.1958  0.9203
  111CHL1   C2014450   2.711   0.475   7.004 -0.2865  0.0784 -0.7527
  111CHL1   H2014451   2.624   0.425   7.053  1.5135 -3.3965 -0.7885
  111CHL1   C2114452   2.777   0.370   6.903  0.4205  0.4659 -0.3414
  111CHL1  H21A14453   2.796   0.278   6.963  0.0248  0.8123  0.3284
  111CHL1  H21B14454   2.872   0.411   6.865  0.4868  0.0703 -0.6132
  111CHL1  H21C14455   2.708   0.357   6.816  0.5006  0.7742 -0.4505
  111CHL1   C2214456   2.673   0.605   6.930  1.3612  0.2250  0.0011
  111CHL1  H22A14457   2.642   0.677   7.009  1.6664 -1.2944  1.5818
  111CHL1  H22B14458   2.759   0.648   6.875  2.0480 -0.8683  0.1915
  111CHL1   C2314459   2.549   0.583   6.844 -0.5164 -0.1153  0.4791
  111CHL1  H23A14460   2.556   0.483   6.795 -0.4963 -0.4088  1.0690
  111CHL1  H23B14461   2.457   0.576   6.907 -1.3394 -0.9912 -0.7757
  111CHL1   C2414462   2.536   0.677   6.725 -0.3895  0.2421  0.5602
  111CHL1  H24A14463   2.437   0.690   6.675 -0.3734  0.0422  0.4725
  111CHL1  H24B14464   2.574   0.777   6.752  0.7539  0.2161 -0.8171
  111CHL1   C2514465   2.630   0.638   6.601  0.6983 -0.1370 -0.1774
  111CHL1   H2514466   2.737   0.640   6.631  0.0202 -0.2221  2.4831
  111CHL1   C2614467   2.595   0.501   6.533 -0.1995 -0.4303  0.1411
  111CHL1  H26A14468   2.485   0.501   6.518 -0.0652 -0.6341 -0.8820
  111CHL1  H26B14469   2.647   0.486   6.436  0.2590 -0.4564  0.3893
  111CHL1  H26C14470   2.626   0.418   6.600  2.1101 -0.4492 -0.8614
  111CHL1   C2714471   2.611   0.748   6.502 -0.4682 -0.7739 -0.3904
  111CHL1  H27A14472   2.669   0.731   6.409  1.5316  0.4116  0.5565
  111CHL1  H27B14473   2.507   0.759   6.464 -0.0370 -0.2508 -1.4383
  111CHL1  H27C14474   2.637   0.847   6.546 -1.3544  0.1793 -1.9407
  112CHL1    C314475   3.711   1.363   8.187  0.0901 -0.4521  0.0530
  112CHL1    H314476   3.700   1.470   8.159  0.9630  0.1977  1.9880
  112CHL1    O314477   3.704   1.351   8.333 -0.0555  0.6064 -0.7005
  112CHL1   H3'14478   3.615   1.363   8.366  0.6821  0.1386  1.5970
  112CHL1    C414479   3.592   1.288   8.120 -0.5447  0.4038 -0.5673
  112CHL1   H4A14480   3.589   1.184   8.160 -0.2064 -0.0189 -1.5968
  112CHL1   H4B14481   3.499   1.334   8.159  0.1713  0.5477  1.0821
  112CHL1    C514482   3.609   1.275   7.971 -0.3464  0.0205 -0.3563
  112CHL1    C614483   3.514   1.321   7.888  0.6784 -0.3398 -0.7366
  112CHL1    H614484   3.424   1.361   7.936  1.6439  0.9937  0.0390
  112CHL1    C714485   3.528   1.315   7.739  0.4777  0.1669 -0.3947
  112CHL1   H7A14486   3.434   1.295   7.683 -0.0056  2.3521 -0.4563
  112CHL1   H7B14487   3.562   1.414   7.703  1.3661  0.1868  0.4550
  112CHL1    C814488   3.636   1.212   7.690  0.6760 -0.8465  0.5465
  112CHL1    H814489   3.601   1.110   7.715 -1.6277 -0.4176 -0.6280
  112CHL1   C1414490   3.659   1.233   7.544  0.3214 -0.2928 -0.6367
  112CHL1   H1414491   3.682   1.341   7.540 -1.5116  0.0802 -2.6104
  112CHL1   C1514492   3.537   1.219   7.451 -0.5469 -0.4915  0.1851
  112CHL1  H15A14493   3.487   1.120   7.452  0.8225 -1.2012  0.3235
  112CHL1  H15B14494   3.455   1.294   7.455 -2.0304 -1.8614 -2.1629
  112CHL1   C1614495   3.609   1.235   7.316  0.2661  0.6942 -0.2028
  112CHL1  H16A14496   3.562   1.160   7.249  0.5756  0.7691 -0.5077
  112CHL1  H16B14497   3.595   1.333   7.265 -0.3741  1.2020  0.9187
  112CHL1   C1714498   3.767   1.209   7.336 -0.2171  0.3293 -0.3099
  112CHL1   H1714499   3.810   1.312   7.342  1.0806 -0.2534  3.6659
  112CHL1   C1314500   3.777   1.162   7.481 -0.3088  0.1438  0.3041
  112CHL1   C1814501   3.745   1.011   7.502  0.5910  0.0769  0.2926
  112CHL1  H18A14502   3.845   0.965   7.485  2.3692  3.0669  1.7587
  112CHL1  H18B14503   3.713   0.982   7.604 -0.4787 -0.0500 -0.0712
  112CHL1  H18C14504   3.675   0.970   7.425 -0.1914  0.3702  0.8388
  112CHL1   C1214505   3.911   1.198   7.554  0.8746  0.2139  0.0689
  112CHL1  H12A14506   3.991   1.131   7.518 -0.6627 -1.8157  0.2366
  112CHL1  H12B14507   3.939   1.303   7.531  1.7009 -0.1580 -0.6542
  112CHL1   C1114508   3.897   1.174   7.705 -0.6585  0.6702  0.1636
  112CHL1  H11A14509   3.901   1.064   7.720  1.3202  0.7951  0.8226
  112CHL1  H11B14510   3.988   1.220   7.749 -0.3912  1.6328 -1.3254
  112CHL1    C914511   3.771   1.241   7.763  0.1374 -0.4162 -0.5949
  112CHL1    H914512   3.784   1.351   7.761 -1.1969 -0.0313  3.2875
  112CHL1   C1014513   3.748   1.226   7.919  0.1692 -0.4612  0.8653
  112CHL1   C1914514   3.761   1.069   7.947  0.5090 -0.0090  0.4149
  112CHL1  H19A14515   3.684   1.023   7.883 -0.3227  0.6033  0.9521
  112CHL1  H19B14516   3.865   1.033   7.931  0.6193  0.7147 -0.5432
  112CHL1  H19C14517   3.724   1.038   8.047  0.8639 -1.7377  0.0470
  112CHL1    C114518   3.862   1.304   7.985 -0.7986  0.5610 -0.9812
  112CHL1   H1A14519   3.955   1.254   7.947 -1.0412  1.0743 -2.3279
  112CHL1   H1B14520   3.850   1.408   7.950  0.0081  1.1228  0.3531
  112CHL1    C214521   3.849   1.306   8.136  0.2284 -0.1685 -1.0883
  112CHL1   H2A14522   3.934   1.372   8.162  0.4024 -0.3583 -1.1697
  112CHL1   H2B14523   3.864   1.206   8.181 -0.8219 -1.1926 -2.8766
  112CHL1   C2014524   3.828   1.124   7.229  0.1327  0.8096 -0.6861
  112CHL1   H2014525   3.793   1.019   7.240 -1.2968  1.3245 -0.1244
  112CHL1   C2114526   3.986   1.122   7.243  1.3888 -0.1545  0.5985
  112CHL1  H21A14527   4.027   1.076   7.335 -1.8870 -0.0717  2.2474
  112CHL1  H21B14528   4.016   1.227   7.221 -0.8552 -0.0551 -2.8162
  112CHL1  H21C14529   4.027   1.060   7.161 -0.8189  0.0990 -0.7936
  112CHL1   C2214530   3.783   1.163   7.085  0.1388  0.1821  0.2845
  112CHL1  H22A14531   3.672   1.170   7.082 -0.1010 -2.3841  0.2317
  112CHL1  H22B14532   3.823   1.265   7.069 -0.2683  0.4213  0.7569
  112CHL1   C2314533   3.841   1.078   6.972  0.2889 -1.0611 -1.0010
  112CHL1  H23A14534   3.944   1.114   6.953  0.3914 -0.7829  0.0093
  112CHL1  H23B14535   3.843   0.970   6.997 -1.0670 -0.3849  2.7879
  112CHL1   C2414536   3.755   1.102   6.851  0.3376 -0.6186  0.0545
  112CHL1  H24A14537   3.656   1.054   6.866  0.3068 -1.9928 -3.4673
  112CHL1  H24B14538   3.736   1.212   6.855 -3.7406 -1.1272 -0.2712
  112CHL1   C2514539   3.806   1.057   6.712  0.2416 -0.2479  0.0431
  112CHL1   H2514540   3.903   1.110   6.703 -0.4670  0.7663 -2.8603
  112CHL1   C2614541   3.836   0.902   6.709  0.8048 -0.2128 -0.5637
  112CHL1  H26A14542   3.746   0.836   6.717 -0.5213  1.5093 -0.6423
  112CHL1  H26B14543   3.886   0.883   6.612 -1.5611  1.7172 -2.3052
  112CHL1  H26C14544   3.911   0.872   6.785  1.8934  1.2935 -0.9954
  112CHL1   C2714545   3.712   1.091   6.595  0.2806 -0.1922  0.3267
  112CHL1  H27A14546   3.766   1.079   6.498  2.9411  1.4866  1.4982
  112CHL1  H27B14547   3.632   1.014   6.595  0.4096 -0.3244  0.5098
  112CHL1  H27C14548   3.664   1.191   6.596 -3.7490 -1.8023 -3.0199
  113CHL1    C314549   1.140   4.464   7.833  0.0827  0.0496 -0.3423
  113CHL1    H314550   1.071   4.547   7.807 -0.9676 -0.8159 -0.4327
  113CHL1    O314551   1.143   4.451   7.973  0.0380 -0.0594  0.0950
  113CHL1   H3'14552   1.193   4.376   8.004 -2.3988 -1.0814  1.8576
  113CHL1    C414553   1.061   4.342   7.774 -0.2961  0.3537 -0.0794
  113CHL1   H4A14554   1.110   4.253   7.819  0.4416  0.5828 -0.4197
  113CHL1   H4B14555   0.963   4.344   7.826 -0.7886 -0.5073 -0.9435
  113CHL1    C514556   1.051   4.330   7.620 -0.2814 -0.7052 -1.0475
  113CHL1    C614557   0.936   4.308   7.564  0.6950 -0.0344  0.1823
  113CHL1    H614558   0.854   4.290   7.635  1.0256 -2.1712  0.0896
  113CHL1    C714559   0.914   4.299   7.417 -0.1533  0.3318 -0.5444
  113CHL1   H7A14560   0.859   4.209   7.382  1.1295  0.2056 -2.4128
  113CHL1   H7B14561   0.852   4.389   7.395 -2.8211 -1.0678  0.7547
  113CHL1    C814562   1.048   4.300   7.329  0.2873  0.2091 -0.6793
  113CHL1    H814563   1.082   4.195   7.341 -2.1071 -0.5825 -0.2856
  113CHL1   C1414564   1.025   4.344   7.190  0.2205  0.6167  0.4497
  113CHL1   H1414565   0.996   4.451   7.199 -1.9837 -0.0504  2.3961
  113CHL1   C1514566   0.904   4.284   7.118  0.0857  0.1286  0.5529
  113CHL1  H15A14567   0.895   4.176   7.144  0.4630 -0.3023 -0.9749
  113CHL1  H15B14568   0.810   4.334   7.148 -0.9322 -1.3174 -0.1072
  113CHL1   C1614569   0.936   4.289   6.967 -0.4251 -0.4554 -0.6369
  113CHL1  H16A14570   0.941   4.192   6.913 -0.4436  0.7951 -3.0007
  113CHL1  H16B14571   0.872   4.357   6.907  2.3956  2.1595 -0.9157
  113CHL1   C1714572   1.067   4.365   6.962 -0.5109  0.2641 -0.4688
  113CHL1   H1714573   1.057   4.473   6.988 -0.1155 -0.3173  2.3295
  113CHL1   C1314574   1.142   4.327   7.092 -0.1826 -0.6404 -0.5163
  113CHL1   C1814575   1.192   4.181   7.082  0.6419 -0.1245 -0.1079
  113CHL1  H18A14576   1.119   4.112   7.035 -1.6910  2.7658 -1.0564
  113CHL1  H18B14577   1.281   4.192   7.017 -0.3056  1.6594 -1.2187
  113CHL1  H18C14578   1.239   4.148   7.177  0.3033  0.8098  0.4072
  113CHL1   C1214579   1.254   4.419   7.152 -0.0625  0.4506  0.4150
  113CHL1  H12A14580   1.346   4.410   7.091 -1.0109 -0.0297 -0.9821
  113CHL1  H12B14581   1.216   4.523   7.150 -2.4817 -0.3824 -1.0335
  113CHL1   C1114582   1.278   4.399   7.308 -0.4812 -0.0973  0.7104
  113CHL1  H11A14583   1.330   4.303   7.327 -0.4022 -0.2357 -0.1741
  113CHL1  H11B14584   1.347   4.483   7.333  0.9413 -1.2409  0.6897
  113CHL1    C914585   1.152   4.393   7.392 -0.0461  0.4555 -0.7266
  113CHL1    H914586   1.104   4.493   7.388 -2.2760 -0.4642  0.9732
  113CHL1   C1014587   1.175   4.376   7.541 -0.2763  0.5283  0.4609
  113CHL1   C1914588   1.264   4.250   7.562 -0.2041  0.2010 -0.5163
  113CHL1  H19A14589   1.367   4.273   7.527 -0.9757  2.2709 -1.6480
  113CHL1  H19B14590   1.280   4.231   7.670  1.1798  0.5159 -0.6465
  113CHL1  H19C14591   1.221   4.157   7.521  0.1829  0.2888 -1.1313
  113CHL1    C114592   1.246   4.499   7.606 -0.6797 -0.2263 -0.1608
  113CHL1   H1A14593   1.347   4.517   7.563 -1.8870 -1.4343 -3.8592
  113CHL1   H1B14594   1.186   4.586   7.571  0.3008 -0.4167 -2.4837
  113CHL1    C214595   1.270   4.494   7.765 -0.7990  0.2697  0.3565
  113CHL1   H2A14596   1.299   4.598   7.793 -1.0870  0.9491 -1.7209
  113CHL1   H2B14597   1.350   4.420   7.785 -1.5290 -0.4323  0.7421
  113CHL1   C2014598   1.153   4.364   6.835  0.1184  0.1908 -0.1297
  113CHL1   H2014599   1.261   4.368   6.863 -0.2716 -1.0078  1.7262
  113CHL1   C2114600   1.121   4.489   6.750  0.0458 -0.3773  0.6998
  113CHL1  H21A14601   1.011   4.488   6.731 -0.0476  2.1082  0.7074
  113CHL1  H21B14602   1.172   4.486   6.651  2.4109  0.4845  1.8300
  113CHL1  H21C14603   1.140   4.578   6.813 -0.8649 -1.1594  2.1266
  113CHL1   C2214604   1.119   4.240   6.753  0.6359  0.7234  0.2611
  113CHL1  H22A14605   1.117   4.149   6.818  0.4176  0.3639 -0.2413
  113CHL1  H22B14606   1.019   4.254   6.708 -0.4012 -2.6583  1.1935
  113CHL1   C2314607   1.230   4.205   6.649 -0.1259 -0.6157  0.0806
  113CHL1  H23A14608   1.230   4.280   6.567  1.4139  1.2713  1.7050
  113CHL1  H23B14609   1.331   4.214   6.694  0.3681  0.4415 -1.1599
  113CHL1   C2414610   1.204   4.072   6.591  0.1309 -0.0321  0.3846
  113CHL1  H24A14611   1.296   4.018   6.559 -0.2598  0.6404 -2.0778
  113CHL1  H24B14612   1.163   4.010   6.674 -0.7275  1.9976  1.5360
  113CHL1   C2514613   1.101   4.070   6.473 -0.1564  0.2398 -0.0807
  113CHL1   H2514614   1.027   4.152   6.486  0.1117  0.4571  0.0933
  113CHL1   C2614615   1.176   4.102   6.340  0.4000 -0.7330  0.4027
  113CHL1  H26A14616   1.103   4.115   6.258  1.0307  1.7619  0.1646
  113CHL1  H26B14617   1.242   4.191   6.350  1.0567 -1.1575 -0.0953
  113CHL1  H26C14618   1.238   4.013   6.317  0.5943 -0.3776 -0.4880
  113CHL1   C2714619   1.015   3.945   6.462 -0.0164  0.4031  0.4870
  113CHL1  H27A14620   1.086   3.865   6.430  0.7336  0.1168  2.6925
  113CHL1  H27B14621   0.983   3.907   6.561  0.6806  0.7490  0.8538
  113CHL1  H27C14622   0.929   3.960   6.393 -0.7836 -0.7922  1.1396
  114CHL1    C314623   4.606   0.534   8.051  0.4506 -0.8401  0.2870
  114CHL1    H314624   4.673   0.451   8.022 -1.1617 -1.8412 -0.7734
  114CHL1    O314625   4.608   0.563   8.188 -0.2029  0.0622 -0.0833
  114CHL1   H3'14626   4.694   0.600   8.209 -0.1011  1.0155 -1.9397
  114CHL1    C414627   4.643   0.660   7.971 -0.1039 -0.4683 -0.8914
  114CHL1   H4A14628   4.567   0.734   8.003 -0.9437 -1.2981 -0.9079
  114CHL1   H4B14629   4.737   0.708   8.006 -0.9177 -1.3308  2.9738
  114CHL1    C514630   4.641   0.631   7.822 -0.2896 -0.4728  0.6161
  114CHL1    C614631   4.751   0.641   7.752 -0.5211 -0.1360  0.3674
  114CHL1    H614632   4.839   0.691   7.795 -0.5294  0.3302 -0.1512
  114CHL1    C714633   4.763   0.611   7.606  0.0452  0.2202 -0.4802
  114CHL1   H7A14634   4.823   0.691   7.557 -0.2849  1.8146  1.5786
  114CHL1   H7B14635   4.808   0.510   7.598 -1.7198 -0.7390  1.0281
  114CHL1    C814636   4.615   0.589   7.542  0.1408 -0.4275 -0.2369
  114CHL1    H814637   4.572   0.691   7.527 -2.4511 -1.2645  0.9628
  114CHL1   C1414638   4.645   0.527   7.409  1.2942 -0.1865 -0.4098
  114CHL1   H1414639   4.676   0.424   7.436  0.3199 -0.4906 -0.3975
  114CHL1   C1514640   4.751   0.584   7.317  0.0174 -0.5374  0.1748
  114CHL1  H15A14641   4.736   0.693   7.303  1.0687 -0.3649  0.2959
  114CHL1  H15B14642   4.853   0.557   7.352  1.1377  0.5692 -2.0115
  114CHL1   C1614643   4.708   0.509   7.190 -0.1825 -0.6871 -0.7206
  114CHL1  H16A14644   4.697   0.584   7.108 -2.6762  0.1395  0.2837
  114CHL1  H16B14645   4.791   0.441   7.161 -1.6155 -1.7424 -2.5897
  114CHL1   C1714646   4.574   0.437   7.206  0.4662  0.8043 -0.0563
  114CHL1   H1714647   4.598   0.331   7.228 -0.9164  0.3925 -0.4083
  114CHL1   C1314648   4.514   0.494   7.331 -0.3209 -0.5123  0.1188
  114CHL1   C1814649   4.431   0.621   7.291  0.5386  0.2515  0.1809
  114CHL1  H18A14650   4.386   0.665   7.383 -1.5813 -0.7978 -0.2723
  114CHL1  H18B14651   4.496   0.700   7.249 -0.8383  0.5371 -1.5410
  114CHL1  H18C14652   4.347   0.598   7.222 -0.6411 -0.1392  1.6800
  114CHL1   C1214653   4.425   0.407   7.419 -0.0964 -0.3998  0.2665
  114CHL1  H12A14654   4.326   0.392   7.371 -0.2650  2.2194 -0.3842
  114CHL1  H12B14655   4.475   0.308   7.428 -0.5827 -1.0238 -2.7792
  114CHL1   C1114656   4.403   0.458   7.560 -0.2687 -0.1680  0.0651
  114CHL1  H11A14657   4.332   0.540   7.539 -0.2558 -0.4620 -1.2688
  114CHL1  H11B14658   4.351   0.380   7.620 -0.1927 -0.8081 -0.6799
  114CHL1    C914659   4.526   0.505   7.637  0.0489  0.0761 -0.0729
  114CHL1    H914660   4.583   0.411   7.649  0.1613  0.2151  0.5372
  114CHL1   C1014661   4.506   0.569   7.772  0.4869 -0.1743 -0.2578
  114CHL1   C1914662   4.401   0.685   7.752  0.1539 -0.0135  0.0245
  114CHL1  H19A14663   4.300   0.644   7.732 -0.3175  0.5606  1.1123
  114CHL1  H19B14664   4.375   0.746   7.841  0.2937  0.5938 -0.3497
  114CHL1  H19C14665   4.433   0.758   7.675  1.3799  0.9845  1.4055
  114CHL1    C114666   4.462   0.450   7.867 -0.5264  0.2620  0.3942
  114CHL1   H1A14667   4.359   0.409   7.855 -0.2575 -0.4703  0.5907
  114CHL1   H1B14668   4.533   0.366   7.854  1.4697  2.1511 -1.7754
  114CHL1    C214669   4.470   0.486   8.017 -0.6931  0.4207  0.2704
  114CHL1   H2A14670   4.456   0.396   8.080  0.2158 -0.7973 -1.1989
  114CHL1   H2B14671   4.391   0.559   8.048 -0.6740  0.7440 -0.4129
  114CHL1   C2014672   4.496   0.424   7.078  0.1448  0.1494 -0.4685
  114CHL1   H2014673   4.458   0.523   7.046  0.4271  0.5538  0.4350
  114CHL1   C2114674   4.370   0.335   7.107  0.7227 -0.0262  0.5296
  114CHL1  H21A14675   4.386   0.241   7.163  0.6323  0.1733  0.8892
  114CHL1  H21B14676   4.325   0.316   7.007  2.9906  1.3118 -0.8367
  114CHL1  H21C14677   4.297   0.401   7.158  0.1039 -1.2252  1.2303
  114CHL1   C2214678   4.589   0.352   6.966 -0.0801 -1.0133 -0.7036
  114CHL1  H22A14679   4.677   0.416   6.942 -1.3264  0.7581 -0.8015
  114CHL1  H22B14680   4.629   0.256   7.004 -0.1223 -0.1895  1.5965
  114CHL1   C2314681   4.521   0.329   6.829  0.2159  0.1379 -0.0494
  114CHL1  H23A14682   4.427   0.272   6.843 -1.0517  2.4508  1.4501
  114CHL1  H23B14683   4.486   0.425   6.785  0.1852  0.4529  0.6617
  114CHL1   C2414684   4.616   0.262   6.730  0.7614  0.2016 -0.1369
  114CHL1  H24A14685   4.714   0.312   6.744 -0.7408  3.5032 -0.4550
  114CHL1  H24B14686   4.619   0.154   6.756 -1.9795 -0.9011 -3.5646
  114CHL1   C2514687   4.585   0.282   6.579 -0.4751  0.0896  0.1473
  114CHL1   H2514688   4.659   0.225   6.519  0.0375  0.8928  0.0044
  114CHL1   C2614689   4.442   0.231   6.536  0.7721  0.0965  0.0115
  114CHL1  H26A14690   4.420   0.136   6.588 -0.4508  1.2882  1.7843
  114CHL1  H26B14691   4.370   0.305   6.579  1.5791  0.5746  0.5672
  114CHL1  H26C14692   4.437   0.214   6.426  3.5729 -0.8452 -0.0410
  114CHL1   C2714693   4.614   0.427   6.535  0.0750 -0.3479  0.2122
  114CHL1  H27A14694   4.607   0.421   6.424 -1.6574 -0.6131  0.3084
  114CHL1  H27B14695   4.550   0.502   6.586 -0.1349 -0.8435  0.6784
  114CHL1  H27C14696   4.721   0.446   6.560 -0.3296 -0.1026  1.8118
  115CHL1    C314697   1.471   0.886   8.444 -0.4932 -0.0028  0.3895
  115CHL1    H314698   1.465   0.780   8.410  1.5626  0.4296 -1.6015
  115CHL1    O314699   1.479   0.881   8.586 -0.0433 -0.0413  0.6112
  115CHL1   H3'14700   1.501   0.969   8.616  0.0090  0.3558 -0.5777
  115CHL1    C414701   1.604   0.924   8.385  0.8633 -0.2617  0.3770
  115CHL1   H4A14702   1.640   1.019   8.429  0.9565 -1.2465  2.5494
  115CHL1   H4B14703   1.678   0.852   8.427 -0.0788 -0.9093  0.9741
  115CHL1    C514704   1.609   0.931   8.235 -0.5524 -0.4606 -0.4267
  115CHL1    C614705   1.695   0.859   8.165 -0.1161  0.0561  0.2452
  115CHL1    H614706   1.766   0.793   8.215 -3.6592 -2.4267  2.4488
  115CHL1    C714707   1.704   0.868   8.014 -0.5393 -0.1960  0.7398
  115CHL1   H7A14708   1.808   0.877   7.976 -1.3659  1.1776 -1.3856
  115CHL1   H7B14709   1.676   0.767   7.978  1.2195 -0.8545  1.1055
  115CHL1    C814710   1.620   0.976   7.955  0.4247  0.2499 -0.4137
  115CHL1    H814711   1.659   1.081   7.957 -0.9546  0.8686 -2.4483
  115CHL1   C1414712   1.599   0.946   7.806  0.0900 -0.1831 -0.1651
  115CHL1   H1414713   1.556   0.843   7.802  0.1937 -0.2268 -0.1687
  115CHL1   C1514714   1.720   0.922   7.728 -0.2855  0.1021  0.7476
  115CHL1  H15A14715   1.808   0.988   7.743  0.0709 -0.5806  1.7883
  115CHL1  H15B14716   1.764   0.822   7.744  1.2138  0.2262 -2.0162
  115CHL1   C1614717   1.683   0.940   7.581 -0.2112  0.6259 -0.1778
  115CHL1  H16A14718   1.744   1.010   7.521  0.0717  0.7273  0.2263
  115CHL1  H16B14719   1.686   0.838   7.538  2.0627  0.0101  1.2603
  115CHL1   C1714720   1.532   0.989   7.582  0.2034 -0.3914  0.1623
  115CHL1   H1714721   1.465   0.900   7.583  1.5755 -1.4657  0.3896
  115CHL1   C1314722   1.508   1.039   7.724 -0.2878  0.2771 -0.0208
  115CHL1   C1814723   1.566   1.185   7.724  0.6662 -0.2116  0.1150
  115CHL1  H18A14724   1.507   1.264   7.673  0.4538  0.1502  0.8911
  115CHL1  H18B14725   1.583   1.221   7.828 -1.5596 -2.1735  1.2374
  115CHL1  H18C14726   1.668   1.188   7.679  1.4442  2.8708  1.7333
  115CHL1   C1214727   1.370   1.027   7.792 -0.7357  0.0651  0.9754
  115CHL1  H12A14728   1.287   1.079   7.740 -0.0937  0.1330  0.0063
  115CHL1  H12B14729   1.346   0.919   7.786 -0.8573  0.1480 -0.2059
  115CHL1   C1114730   1.381   1.066   7.942  0.5086 -0.1901 -0.0581
  115CHL1  H11A14731   1.412   1.172   7.942  0.2394 -0.1103  0.1759
  115CHL1  H11B14732   1.287   1.049   8.000 -0.7066  1.7760 -1.3468
  115CHL1    C914733   1.484   0.985   8.022  0.4493 -0.1560  0.2468
  115CHL1    H914734   1.436   0.885   8.021 -0.7280  0.3182 -3.1546
  115CHL1   C1014735   1.498   1.020   8.176  0.5208  0.7247  0.1514
  115CHL1   C1914736   1.529   1.169   8.207 -0.0854 -0.3014 -0.2027
  115CHL1  H19A14737   1.616   1.203   8.147  1.2881 -1.9333  0.7670
  115CHL1  H19B14738   1.442   1.232   8.179 -0.6003 -1.1027 -0.4330
  115CHL1  H19C14739   1.545   1.185   8.315 -2.4967 -1.6160  0.4246
  115CHL1    C114740   1.365   0.984   8.254  0.1272 -0.1030 -0.3034
  115CHL1   H1A14741   1.300   1.065   8.215  0.4092 -0.0885 -0.7438
  115CHL1   H1B14742   1.334   0.889   8.205 -0.9040 -0.7701  1.5172
  115CHL1    C214743   1.361   0.986   8.409 -0.4400  0.4749 -0.3414
  115CHL1   H2A14744   1.259   0.954   8.438 -1.2837  0.4599 -3.0662
  115CHL1   H2B14745   1.373   1.089   8.449 -0.5575  0.4465 -0.2331
  115CHL1   C2014746   1.481   1.065   7.452 -0.0301  0.3453 -0.5625
  115CHL1   H2014747   1.542   1.157   7.444 -1.3578  1.1672 -1.6878
  115CHL1   C2114748   1.340   1.120   7.462 -0.0503 -0.1779 -0.3028
  115CHL1  H21A14749   1.310   1.175   7.370 -2.5240 -1.0043 -0.0700
  115CHL1  H21B14750   1.334   1.197   7.542 -1.3210 -0.2480 -0.3198
  115CHL1  H21C14751   1.265   1.042   7.486 -1.4500  1.0057 -0.6477
  115CHL1   C2214752   1.506   0.970   7.333  0.9132 -0.5208  0.8956
  115CHL1  H22A14753   1.608   0.928   7.334 -0.0365 -3.2512 -1.7747
  115CHL1  H22B14754   1.435   0.887   7.353 -1.2243  1.0560  0.3076
  115CHL1   C2314755   1.467   1.033   7.197  0.3667  0.3381  0.5823
  115CHL1  H23A14756   1.371   1.089   7.204 -0.3604 -0.3300 -2.6761
  115CHL1  H23B14757   1.547   1.107   7.175  0.4739  0.0782  0.0927
  115CHL1   C2414758   1.453   0.930   7.083  0.6071 -0.2261 -0.2409
  115CHL1  H24A14759   1.547   0.877   7.056  0.7635  0.0022 -0.1537
  115CHL1  H24B14760   1.382   0.853   7.118 -0.7194  0.4244 -1.4073
  115CHL1   C2514761   1.398   0.994   6.957 -0.1915 -0.3824  0.1239
  115CHL1   H2514762   1.446   1.092   6.937 -0.4217 -0.4014 -0.5578
  115CHL1   C2614763   1.426   0.906   6.832 -0.2676  0.0609 -0.4393
  115CHL1  H26A14764   1.389   0.946   6.736  2.8151  3.1931 -0.5347
  115CHL1  H26B14765   1.534   0.906   6.804 -0.6679 -2.2610 -2.3979
  115CHL1  H26C14766   1.384   0.804   6.843 -3.5410  1.1781 -1.5814
  115CHL1   C2714767   1.250   1.031   6.966  0.0761  0.1629  0.2143
  115CHL1  H27A14768   1.225   1.080   6.869 -0.3638 -1.5774 -0.6005
  115CHL1  H27B14769   1.176   0.952   6.990 -0.4343  0.4395 -0.4206
  115CHL1  H27C14770   1.236   1.107   7.045  1.5681 -0.3017  0.9479
  116CHL1    C314771   2.223   0.240   8.096 -0.2068  0.6366  0.3776
  116CHL1    H314772   2.226   0.350   8.113 -1.0725  1.2439 -2.7113
  116CHL1    O314773   2.240   0.166   8.221 -0.3773 -0.1429 -0.0386
  116CHL1   H3'14774   2.290   0.089   8.194  1.3307  1.0893 -0.5183
  116CHL1    C414775   2.092   0.197   8.022  0.3086 -0.2028  0.0858
  116CHL1   H4A14776   2.084   0.087   8.012  0.7214 -0.3336  1.0531
  116CHL1   H4B14777   2.004   0.230   8.081  0.6110  2.8700 -0.9982
  116CHL1    C514778   2.091   0.257   7.881 -0.4295  0.5097  0.4373
  116CHL1    C614779   1.982   0.325   7.837  0.1344 -0.5149 -0.0264
  116CHL1    H614780   1.898   0.350   7.904  0.2238  3.8574 -1.2745
  116CHL1    C714781   1.972   0.388   7.703 -0.6726  0.4508 -0.3541
  116CHL1   H7A14782   1.868   0.366   7.671 -1.9726  0.6034  3.2493
  116CHL1   H7B14783   1.984   0.498   7.708  2.2633  0.2806 -1.2836
  116CHL1    C814784   2.079   0.339   7.600 -0.4110 -0.2091 -0.3719
  116CHL1    H814785   2.046   0.236   7.576 -0.1457 -0.9580  2.1458
  116CHL1   C1414786   2.076   0.434   7.483  0.1796 -0.2748  0.4014
  116CHL1   H1414787   2.118   0.533   7.513  0.4104  0.0203 -0.8489
  116CHL1   C1514788   1.935   0.463   7.429 -0.5037  0.0118  0.3576
  116CHL1  H15A14789   1.883   0.365   7.439  0.3216 -0.3085  1.9764
  116CHL1  H15B14790   1.884   0.546   7.484 -1.5396  0.1955 -0.8395
  116CHL1   C1614791   1.958   0.487   7.284  0.3510 -1.1048  0.1174
  116CHL1  H16A14792   1.899   0.409   7.232 -0.9445  0.2038 -0.4624
  116CHL1  H16B14793   1.913   0.585   7.256  1.4229  0.1697  2.5063
  116CHL1   C1714794   2.110   0.488   7.260 -0.5387  0.7049  0.4612
  116CHL1   H1714795   2.167   0.578   7.293  0.2205 -0.3018  2.0205
  116CHL1   C1314796   2.166   0.394   7.371 -0.1032  0.5410  0.4590
  116CHL1   C1814797   2.136   0.245   7.316 -0.2169 -0.1193 -1.0623
  116CHL1  H18A14798   2.202   0.218   7.232  0.2272 -0.3638 -0.6409
  116CHL1  H18B14799   2.151   0.165   7.392 -0.0214 -0.4558 -1.4529
  116CHL1  H18C14800   2.032   0.239   7.277 -0.7387 -1.5161  0.4271
  116CHL1   C1214801   2.314   0.409   7.428 -0.2417 -0.4244 -0.3917
  116CHL1  H12A14802   2.373   0.357   7.350  0.4729 -0.8106  0.3805
  116CHL1  H12B14803   2.345   0.515   7.422  0.4548 -0.7034 -2.6829
  116CHL1   C1114804   2.336   0.329   7.559 -0.1550 -0.1468  0.0268
  116CHL1  H11A14805   2.337   0.222   7.530  0.9660  0.1752 -1.2347
  116CHL1  H11B14806   2.433   0.349   7.611 -0.0729 -2.1655  0.7329
  116CHL1    C914807   2.220   0.343   7.665  0.1431 -0.2965 -0.4498
  116CHL1    H914808   2.235   0.445   7.706  3.9850 -1.6187  1.8878
  116CHL1   C1014809   2.217   0.242   7.785  0.5907 -0.6943 -0.5608
  116CHL1   C1914810   2.219   0.099   7.741 -0.2613 -0.4331  0.2715
  116CHL1  H19A14811   2.306   0.081   7.674 -1.8001  1.7827 -2.4961
  116CHL1  H19B14812   2.206   0.035   7.831 -0.7535 -2.9412 -1.4861
  116CHL1  H19C14813   2.132   0.065   7.681 -0.9953  2.8451 -0.7098
  116CHL1    C114814   2.345   0.274   7.865  0.3103  0.5385  0.0897
  116CHL1   H1A14815   2.426   0.250   7.792 -0.4304  0.3087 -0.6724
  116CHL1   H1B14816   2.351   0.383   7.882 -0.5607  1.0669 -2.5428
  116CHL1    C214817   2.349   0.204   7.999 -0.1489  0.5880  0.2483
  116CHL1   H2A14818   2.440   0.224   8.059  0.6382  1.7754 -1.2771
  116CHL1   H2B14819   2.342   0.093   7.992  0.2224  0.6567 -1.7321
  116CHL1   C2014820   2.155   0.464   7.110  0.5730 -0.0910  0.5582
  116CHL1   H2014821   2.147   0.355   7.089 -2.1097  0.1186  0.0414
  116CHL1   C2114822   2.302   0.496   7.087  0.2415  0.3479 -0.1184
  116CHL1  H21A14823   2.343   0.428   7.009 -0.5807 -0.1687 -0.1154
  116CHL1  H21B14824   2.358   0.471   7.179 -0.4958  0.7880  0.4631
  116CHL1  H21C14825   2.316   0.601   7.055 -1.1572  0.5454 -0.1538
  116CHL1   C2214826   2.065   0.539   7.011 -0.9418 -0.1624 -0.0418
  116CHL1  H22A14827   1.957   0.523   7.031 -0.6687 -1.3235  0.5612
  116CHL1  H22B14828   2.094   0.647   7.015  0.9135 -0.5775 -1.4873
  116CHL1   C2314829   2.090   0.497   6.865 -0.2307 -0.2844 -0.2594
  116CHL1  H23A14830   2.199   0.519   6.853 -0.7487  1.8284 -1.7057
  116CHL1  H23B14831   2.062   0.393   6.841  1.0165 -0.8694  0.7294
  116CHL1   C2414832   2.018   0.585   6.759  1.0499 -0.5740 -0.5861
  116CHL1  H24A14833   1.909   0.594   6.777  1.2589  3.8348 -0.2657
  116CHL1  H24B14834   2.048   0.692   6.757 -0.6306 -0.0421  0.3073
  116CHL1   C2514835   2.036   0.534   6.616 -0.4289 -0.2850  0.4059
  116CHL1   H2514836   1.979   0.607   6.555 -0.5922  0.4092  1.3620
  116CHL1   C2614837   2.186   0.524   6.576 -0.9024  0.2514  0.1684
  116CHL1  H26A14838   2.238   0.622   6.586  1.5120 -0.8780 -0.4145
  116CHL1  H26B14839   2.239   0.449   6.639 -0.9170 -1.2560 -1.5570
  116CHL1  H26C14840   2.189   0.494   6.470 -1.8381  0.2102  0.1455
  116CHL1   C2714841   1.986   0.402   6.574  0.3199 -0.1197  0.5528
  116CHL1  H27A14842   2.054   0.314   6.583 -0.1466 -1.0893 -3.4659
  116CHL1  H27B14843   1.887   0.371   6.613  0.5707 -0.0255  1.2883
  116CHL1  H27C14844   1.983   0.400   6.463  0.3686  0.4059  0.5390
  117CHL1    C314845   4.792   1.151   7.966  0.1140  0.4463 -0.1692
  117CHL1    H314846   4.731   1.234   7.926 -0.0106 -0.8668 -2.9706
  117CHL1    O314847   4.771   1.141   8.104 -0.0991  0.3029 -0.8906
  117CHL1   H3'14848   4.786   1.052   8.136  0.3670  1.0181  1.0047
  117CHL1    C414849   4.749   1.022   7.897  0.2863  0.2759 -0.0611
  117CHL1   H4A14850   4.807   0.937   7.940 -1.4280 -1.4636 -1.0383
  117CHL1   H4B14851   4.640   1.005   7.911  0.1333  0.2400 -1.1923
  117CHL1    C514852   4.791   1.019   7.747 -0.5419 -0.7703 -0.0474
  117CHL1    C614853   4.692   1.000   7.658  1.0595  0.2916  0.1619
  117CHL1    H614854   4.589   0.994   7.697  1.1960 -0.2137  0.4490
  117CHL1    C714855   4.709   1.002   7.507  0.3241  0.0632  0.0363
  117CHL1   H7A14856   4.673   0.910   7.457  0.2742  0.3062 -0.3836
  117CHL1   H7B14857   4.644   1.085   7.470  1.5606  0.3238 -1.6754
  117CHL1    C814858   4.858   1.014   7.463 -0.7103 -0.3896 -0.0566
  117CHL1    H814859   4.903   0.913   7.474  0.5546 -0.0145 -1.4575
  117CHL1   C1414860   4.875   1.064   7.325  0.4116 -1.3069  0.1309
  117CHL1   H1414861   4.843   1.171   7.324 -0.0688 -1.4443 -0.6456
  117CHL1   C1514862   4.803   0.994   7.213 -0.5076 -0.0371  0.4072
  117CHL1  H15A14863   4.791   0.885   7.231 -0.5003 -0.4557 -1.8397
  117CHL1  H15B14864   4.702   1.040   7.220  0.6778  2.4960  2.5883
  117CHL1   C1614865   4.884   1.019   7.089 -0.5172  0.2790  0.1201
  117CHL1  H16A14866   4.919   0.924   7.043 -0.4761 -0.1479  1.0099
  117CHL1  H16B14867   4.829   1.069   7.006 -1.4010  0.3111  0.7203
  117CHL1   C1714868   5.003   1.109   7.128  0.0770 -0.0134  0.3490
  117CHL1   H1714869   4.977   1.217   7.117 -1.0187 -0.4846 -2.6204
  117CHL1   C1314870   5.025   1.089   7.281  0.1847  0.1496 -0.0942
  117CHL1   C1814871   5.100   0.955   7.296 -0.1642 -0.1567  0.2082
  117CHL1  H18A14872   5.210   0.965   7.285 -0.0565 -1.7670 -0.4529
  117CHL1  H18B14873   5.102   0.928   7.403 -0.4380 -1.7676 -0.1778
  117CHL1  H18C14874   5.053   0.879   7.229  2.2139  0.6218 -2.5306
  117CHL1   C1214875   5.090   1.202   7.368 -0.6714  0.4539  0.0827
  117CHL1  H12A14876   5.201   1.202   7.357 -0.3122 -1.1897  2.7522
  117CHL1  H12B14877   5.050   1.300   7.335  0.2707  1.0282  0.5956
  117CHL1   C1114878   5.081   1.155   7.515  0.7924 -0.2733  0.0787
  117CHL1  H11A14879   5.158   1.075   7.525  0.4812 -0.6292 -0.3597
  117CHL1  H11B14880   5.112   1.241   7.578 -0.1011 -1.4219  2.1914
  117CHL1    C914881   4.935   1.112   7.553  0.1593  0.2321 -0.3703
  117CHL1    H914882   4.874   1.205   7.550  0.8963  0.8099  1.1465
  117CHL1   C1014883   4.927   1.060   7.704 -0.5835  0.4991 -0.2493
  117CHL1   C1914884   5.027   0.945   7.727 -0.1352  0.1725 -0.6036
  117CHL1  H19A14885   5.003   0.875   7.644 -0.6932  0.2484 -0.5165
  117CHL1  H19B14886   5.128   0.989   7.718  0.7713 -1.6094  0.4880
  117CHL1  H19C14887   5.016   0.902   7.828  1.5193  1.0028 -0.0351
  117CHL1    C114888   4.973   1.180   7.789  0.3243  0.5218 -0.1075
  117CHL1   H1A14889   5.080   1.202   7.768  0.0952  1.3455 -0.4744
  117CHL1   H1B14890   4.913   1.269   7.760  0.0816  0.1501 -0.7745
  117CHL1    C214891   4.942   1.181   7.938  0.2194 -0.1355  0.7703
  117CHL1   H2A14892   4.983   1.272   7.987  1.6415  0.1413 -0.8767
  117CHL1   H2B14893   5.003   1.092   7.964 -1.7674 -2.5279 -2.1048
  117CHL1   C2014894   5.125   1.084   7.043  1.0293  0.2208 -0.7419
  117CHL1   H2014895   5.178   0.990   7.067  2.4712  0.6206 -2.1956
  117CHL1   C2114896   5.228   1.190   7.086  0.1128 -0.7290  0.2319
  117CHL1  H21A14897   5.288   1.155   7.173  1.0070 -0.3176 -0.2097
  117CHL1  H21B14898   5.179   1.287   7.110  2.7679  0.1182  2.8141
  117CHL1  H21C14899   5.287   1.226   7.000 -0.6213  0.0895  0.0544
  117CHL1   C2214900   5.089   1.093   6.896  0.3585 -0.0660  0.0266
  117CHL1  H22A14901   5.035   1.000   6.869  1.3121 -0.8755  0.8240
  117CHL1  H22B14902   5.022   1.179   6.877 -1.3974 -1.5663 -0.8660
  117CHL1   C2314903   5.211   1.089   6.800 -0.3446  0.0740 -0.1357
  117CHL1  H23A14904   5.220   1.199   6.788 -2.9650  0.8115  2.9909
  117CHL1  H23B14905   5.305   1.051   6.845  0.3712  0.0916 -1.5871
  117CHL1   C2414906   5.172   1.017   6.672  0.2396 -0.8438  0.0355
  117CHL1  H24A14907   5.137   0.914   6.691  0.6014 -0.9546  0.1113
  117CHL1  H24B14908   5.083   1.068   6.629  0.7907 -0.3945 -0.5963
  117CHL1   C2514909   5.287   1.018   6.561  0.2558 -0.3378  0.3164
  117CHL1   H2514910   5.368   0.968   6.619  1.0400  1.4993  0.8692
  117CHL1   C2614911   5.258   0.941   6.436  0.7305 -0.0323 -0.7777
  117CHL1  H26A14912   5.218   0.840   6.462 -2.3640  0.5632 -2.7777
  117CHL1  H26B14913   5.167   0.986   6.392  0.1671 -0.9328 -0.5651
  117CHL1  H26C14914   5.339   0.936   6.361  0.1246 -4.4150 -1.4200
  117CHL1   C2714915   5.313   1.165   6.521 -0.1855 -0.5841 -0.3892
  117CHL1  H27A14916   5.385   1.184   6.438 -0.5408  0.0207 -0.5578
  117CHL1  H27B14917   5.219   1.215   6.489  0.7486  0.0599 -2.2816
  117CHL1  H27C14918   5.348   1.219   6.612  0.5628 -0.4444 -0.7496
  118CHL1    C314919   6.575   0.928   8.336 -0.5201  0.4617  0.5398
  118CHL1    H314920   6.501   0.973   8.267  1.8346 -0.2769 -2.6624
  118CHL1    O314921   6.543   0.954   8.472 -0.3355  0.3884 -0.7509
  118CHL1   H3'14922   6.630   0.959   8.513 -1.3393  0.1132  1.5486
  118CHL1    C414923   6.589   0.779   8.315 -0.0711 -0.4941  0.2494
  118CHL1   H4A14924   6.661   0.743   8.391  0.4006  0.8595  0.4666
  118CHL1   H4B14925   6.493   0.727   8.338 -0.0667 -0.7470 -0.2820
  118CHL1    C514926   6.635   0.745   8.174 -0.8851 -0.1451 -1.0071
  118CHL1    C614927   6.563   0.661   8.102 -0.7863 -0.0198 -0.4024
  118CHL1    H614928   6.472   0.622   8.149  1.8181 -3.0668  2.6095
  118CHL1    C714929   6.605   0.624   7.961  0.0886  0.1853  0.2075
  118CHL1   H7A14930   6.603   0.514   7.946 -0.5276  0.1836  0.2572
  118CHL1   H7B14931   6.532   0.675   7.894  0.6143  1.5171  0.6040
  118CHL1    C814932   6.748   0.663   7.928  1.0243 -0.3585  0.3749
  118CHL1    H814933   6.819   0.595   7.978  1.3367 -0.5849 -0.3640
  118CHL1   C1414934   6.767   0.650   7.770 -0.1342  0.2858  0.0117
  118CHL1   H1414935   6.703   0.732   7.729  0.0464  0.0557 -0.7584
  118CHL1   C1514936   6.722   0.523   7.704 -0.0328 -0.1602 -0.1668
  118CHL1  H15A14937   6.740   0.425   7.752 -0.6783 -0.8917 -1.3615
  118CHL1  H15B14938   6.611   0.527   7.700 -0.0906  2.6332  1.1584
  118CHL1   C1614939   6.798   0.517   7.568 -0.1057 -0.0400  0.4069
  118CHL1  H16A14940   6.867   0.430   7.575  0.8886  0.6161 -0.8892
  118CHL1  H16B14941   6.727   0.516   7.484 -0.5970  1.6084  0.7679
  118CHL1   C1714942   6.887   0.641   7.564  0.6690  0.3885  0.1408
  118CHL1   H1714943   6.821   0.718   7.519 -1.0964 -0.3620  1.3472
  118CHL1   C1314944   6.904   0.684   7.717  0.0244  0.9073  0.6974
  118CHL1   C1814945   7.007   0.580   7.775 -0.6133 -0.6151 -0.0422
  118CHL1  H18A14946   6.975   0.474   7.765 -1.0809 -0.2584 -3.0969
  118CHL1  H18B14947   7.107   0.581   7.728  0.0731 -0.9895  1.3653
  118CHL1  H18C14948   7.026   0.595   7.884 -0.3796 -0.4656 -0.1048
  118CHL1   C1214949   6.921   0.829   7.759  0.6319  0.5098 -0.1657
  118CHL1  H12A14950   7.021   0.865   7.728  1.0428 -0.4338  0.0525
  118CHL1  H12B14951   6.850   0.882   7.692  2.8286  0.7720 -2.4120
  118CHL1   C1114952   6.904   0.856   7.908 -0.2043  0.3853  0.0275
  118CHL1  H11A14953   6.991   0.805   7.956 -0.8587 -1.3036 -0.4940
  118CHL1  H11B14954   6.910   0.965   7.928 -2.2734  0.3533  1.1054
  118CHL1    C914955   6.776   0.805   7.975 -0.2492 -0.5307 -0.0622
  118CHL1    H914956   6.698   0.868   7.928 -0.1355 -0.4916 -0.1978
  118CHL1   C1014957   6.764   0.822   8.128 -0.3998 -0.5721  0.2193
  118CHL1   C1914958   6.894   0.764   8.200 -0.5455  0.5124  1.1578
  118CHL1  H19A14959   6.980   0.818   8.155 -0.7226 -0.5639 -0.5683
  118CHL1  H19B14960   6.891   0.785   8.309 -0.3621  2.2243  0.8489
  118CHL1  H19C14961   6.907   0.656   8.178 -1.6412  0.1191  2.3120
  118CHL1    C114962   6.757   0.968   8.161  0.0501 -0.7782 -0.6820
  118CHL1   H1A14963   6.859   1.012   8.146  0.1115 -1.0419 -1.0656
  118CHL1   H1B14964   6.679   1.007   8.092 -3.5124 -1.2382  2.7519
  118CHL1    C214965   6.707   0.999   8.300 -0.2205 -0.5318  0.1522
  118CHL1   H2A14966   6.666   1.102   8.289 -0.3156 -0.4895  0.8558
  118CHL1   H2B14967   6.782   0.985   8.380 -1.4650 -1.9691  1.1222
  118CHL1   C2014968   7.016   0.633   7.478 -0.1967  0.2506  0.0817
  118CHL1   H2014969   7.082   0.550   7.510  0.4051 -0.0300 -1.8057
  118CHL1   C2114970   7.106   0.751   7.512 -0.6493 -0.6091 -0.1029
  118CHL1  H21A14971   7.049   0.846   7.515 -0.8765 -0.7676  0.6700
  118CHL1  H21B14972   7.196   0.758   7.447  1.4122 -2.2651  2.3450
  118CHL1  H21C14973   7.163   0.746   7.607 -0.8484  0.3363  0.0707
  118CHL1   C2214974   6.990   0.607   7.326 -0.0053  1.1302 -0.5085
  118CHL1  H22A14975   7.088   0.572   7.288 -1.4115 -1.1498 -2.3085
  118CHL1  H22B14976   6.925   0.517   7.319  1.4638 -0.2016  1.7433
  118CHL1   C2314977   6.939   0.724   7.250 -0.1810 -0.3002  0.7709
  118CHL1  H23A14978   6.841   0.758   7.289 -1.0097 -2.2985  0.5410
  118CHL1  H23B14979   7.021   0.800   7.254  0.3342 -0.9069  2.3657
  118CHL1   C2414980   6.921   0.685   7.103  0.2923 -0.1044 -0.4092
  118CHL1  H24A14981   7.018   0.652   7.060 -0.2090 -1.8955 -0.2359
  118CHL1  H24B14982   6.865   0.589   7.110 -1.3925  0.9712  2.3908
  118CHL1   C2514983   6.861   0.799   7.012 -0.1360  0.5006  0.4275
  118CHL1   H2514984   6.756   0.823   7.039 -0.7443 -0.3821 -1.0703
  118CHL1   C2614985   6.954   0.914   7.016  0.0457 -0.7779  0.3522
  118CHL1  H26A14986   7.058   0.876   7.008  1.4700  2.1004  3.1315
  118CHL1  H26B14987   6.943   0.991   6.937 -1.2904 -0.2349  1.0335
  118CHL1  H26C14988   6.939   0.971   7.110  0.3764  0.8005 -0.5143
  118CHL1   C2714989   6.847   0.756   6.865 -0.6893  0.0022  0.1530
  118CHL1  H27A14990   6.798   0.835   6.804 -0.9345 -0.8574 -0.7874
  118CHL1  H27B14991   6.950   0.731   6.831 -0.1210 -1.3330  2.6584
  118CHL1  H27C14992   6.784   0.665   6.858 -0.9616  0.2522 -0.8463
  119CHL1    C314993   1.348   6.407   8.238 -0.5725  0.2486  0.1566
  119CHL1    H314994   1.359   6.297   8.232  0.8239  0.3398  0.7393
  119CHL1    O314995   1.317   6.441   8.370  0.2694 -0.0965 -0.2886
  119CHL1   H3'14996   1.312   6.537   8.375 -0.7960 -0.1787  0.4061
  119CHL1    C414997   1.484   6.463   8.187 -0.0693 -0.2443  0.0041
  119CHL1   H4A14998   1.486   6.571   8.211 -0.9508  0.0325 -1.1053
  119CHL1   H4B14999   1.573   6.419   8.237 -0.2778 -0.3873  0.2513
  119CHL1    C515000   1.502   6.448   8.041 -0.8722  0.4985  0.5801
  119CHL1    C615001   1.611   6.388   7.990 -0.0215  0.4268 -0.2764
  119CHL1    H615002   1.694   6.370   8.059  0.6172  4.5850  0.3280
  119CHL1    C715003   1.644   6.372   7.847 -0.3399 -0.0329 -0.5675
  119CHL1   H7A15004   1.747   6.410   7.829 -0.7700  2.7650  2.0440
  119CHL1   H7B15005   1.638   6.262   7.831 -1.7449  0.1680 -1.5446
  119CHL1    C815006   1.546   6.448   7.755 -0.0680 -0.0701  0.0564
  119CHL1    H815007   1.560   6.558   7.764 -0.5061  0.0547 -0.7536
  119CHL1   C1415008   1.549   6.401   7.614  0.1929  0.1579  0.3033
  119CHL1   H1415009   1.503   6.300   7.615 -2.1046  1.1208  2.1340
  119CHL1   C1515010   1.685   6.383   7.558 -0.4240  0.2883 -0.1594
  119CHL1  H15A15011   1.750   6.460   7.605 -1.1163 -0.8573  2.8482
  119CHL1  H15B15012   1.727   6.282   7.577  1.1867  1.1803  1.3775
  119CHL1   C1615013   1.671   6.410   7.409  0.3464 -0.2328  1.0331
  119CHL1  H16A15014   1.731   6.501   7.388 -0.9115  0.7676  1.6424
  119CHL1  H16B15015   1.728   6.336   7.349  0.2818  0.7077 -0.2448
  119CHL1   C1715016   1.519   6.430   7.383  0.8513  0.2629  0.3185
  119CHL1   H1715017   1.466   6.332   7.377 -2.1627  1.7813  0.2208
  119CHL1   C1315018   1.462   6.483   7.511 -0.5767  0.3352 -0.6018
  119CHL1   C1815019   1.497   6.635   7.511 -0.5495 -0.1843 -0.5990
  119CHL1  H18A15020   1.598   6.666   7.475 -1.3164  3.1637 -0.2164
  119CHL1  H18B15021   1.422   6.697   7.458 -0.6824  0.4574  0.3121
  119CHL1  H18C15022   1.491   6.685   7.610  0.8956  0.1862 -0.6763
  119CHL1   C1215023   1.316   6.442   7.548 -0.5782 -0.3592  0.2922
  119CHL1  H12A15024   1.247   6.479   7.470 -0.4712 -1.2526 -0.2392
  119CHL1  H12B15025   1.312   6.333   7.530  1.2329  0.0174 -3.0406
  119CHL1   C1115026   1.291   6.477   7.696 -0.0794  0.6059  0.3656
  119CHL1  H11A15027   1.299   6.588   7.692 -1.3969  0.6850 -0.3711
  119CHL1  H11B15028   1.187   6.445   7.716 -0.1682  1.3695  1.1848
  119CHL1    C915029   1.400   6.430   7.802 -0.5854  0.0889  0.0991
  119CHL1    H915030   1.393   6.322   7.823  0.2676  0.1104  0.5286
  119CHL1   C1015031   1.388   6.484   7.948  0.1788  0.0358  0.1738
  119CHL1   C1915032   1.376   6.642   7.942 -0.5399 -0.2468  0.1465
  119CHL1  H19A15033   1.293   6.674   7.875 -2.6658 -3.7197  0.8673
  119CHL1  H19B15034   1.362   6.686   8.044 -0.2213  0.0071  0.0836
  119CHL1  H19C15035   1.475   6.683   7.912 -0.8270 -0.2905 -0.8833
  119CHL1    C115036   1.258   6.426   8.004  0.7371 -0.5223 -0.6755
  119CHL1   H1A15037   1.168   6.457   7.945  2.6818  1.4615 -2.8073
  119CHL1   H1B15038   1.266   6.315   7.998 -1.0018 -0.7501  0.4481
  119CHL1    C215039   1.232   6.458   8.153  0.1620  0.0319  0.1027
  119CHL1   H2A15040   1.138   6.411   8.189  0.2789 -0.1375  0.1879
  119CHL1   H2B15041   1.219   6.568   8.167  1.4400 -0.0404  2.4293
  119CHL1   C2015042   1.490   6.500   7.247 -0.2461  0.7769 -0.0735
  119CHL1   H2015043   1.530   6.603   7.255  1.0282  0.2155  1.6670
  119CHL1   C2115044   1.332   6.506   7.228  0.2322  0.1849 -0.3031
  119CHL1  H21A15045   1.318   6.536   7.122  2.1057 -0.6119 -0.8049
  119CHL1  H21B15046   1.299   6.591   7.293  1.0998 -1.6698  2.7952
  119CHL1  H21C15047   1.278   6.412   7.253  0.3974  0.1575 -0.0453
  119CHL1   C2215048   1.557   6.433   7.123 -0.0216 -0.2186 -0.0517
  119CHL1  H22A15049   1.665   6.413   7.138 -0.3485 -1.6394  0.6106
  119CHL1  H22B15050   1.520   6.329   7.114  1.8339 -0.9311  0.1634
  119CHL1   C2315051   1.552   6.515   6.996 -0.2250 -0.0251 -0.0645
  119CHL1  H23A15052   1.447   6.524   6.962  0.4961  1.1402 -2.2274
  119CHL1  H23B15053   1.595   6.615   7.016  0.4003 -0.5529  1.3105
  119CHL1   C2415054   1.639   6.440   6.893  0.0007  0.5741  0.3469
  119CHL1  H24A15055   1.740   6.428   6.936  0.0431  2.4105  0.8493
  119CHL1  H24B15056   1.585   6.344   6.881  0.9292  0.1263 -0.3195
  119CHL1   C2515057   1.644   6.493   6.744  0.2723 -0.2670 -0.1173
  119CHL1   H2515058   1.651   6.604   6.751  0.8718 -0.2205 -1.2730
  119CHL1   C2615059   1.759   6.450   6.662 -0.0368  0.2570  0.4214
  119CHL1  H26A15060   1.849   6.503   6.700  0.0339  0.6554 -0.2903
  119CHL1  H26B15061   1.789   6.344   6.678 -0.6289  0.4112  3.0387
  119CHL1  H26C15062   1.747   6.478   6.556 -1.6010  0.2505  0.5724
  119CHL1   C2715063   1.503   6.478   6.673 -0.3533  0.3298 -0.1567
  119CHL1  H27A15064   1.424   6.528   6.734 -1.0189 -1.1041  0.1981
  119CHL1  H27B15065   1.507   6.515   6.568 -0.8708 -0.9245 -0.6351
  119CHL1  H27C15066   1.476   6.370   6.675  2.8660 -0.5690  0.2531
  120CHL1    C315067   6.040   6.280   8.357  0.9895  0.2067 -0.2890
  120CHL1    H315068   6.084   6.178   8.359 -0.3901 -0.4159 -0.9051
  120CHL1    O315069   6.016   6.343   8.480  0.1073  0.2435 -0.2436
  120CHL1   H3'15070   5.953   6.412   8.458 -0.4220  0.7032  2.3867
  120CHL1    C415071   6.144   6.368   8.275 -0.6909  0.1497 -0.8482
  120CHL1   H4A15072   6.112   6.473   8.289 -1.7735 -0.1080 -1.2734
  120CHL1   H4B15073   6.242   6.360   8.326 -0.3833  0.9572 -1.2924
  120CHL1    C515074   6.154   6.339   8.130 -0.0403 -1.2387  0.1697
  120CHL1    C615075   6.279   6.327   8.083  0.8778  0.1528 -0.6663
  120CHL1    H615076   6.361   6.346   8.153  0.9647  1.2479 -1.0482
  120CHL1    C715077   6.310   6.280   7.943 -0.5326 -0.1166 -0.0121
  120CHL1   H7A15078   6.390   6.334   7.889  0.2681 -2.4163 -1.2775
  120CHL1   H7B15079   6.342   6.174   7.953 -0.9580 -0.6661 -3.2637
  120CHL1    C815080   6.182   6.279   7.849  0.3690 -0.2188 -0.3123
  120CHL1    H815081   6.173   6.387   7.823  2.0468  0.0495  0.0940
  120CHL1   C1415082   6.211   6.197   7.721 -0.1551  0.2705 -0.3093
  120CHL1   H1415083   6.231   6.094   7.758  1.2872  0.1618 -1.3408
  120CHL1   C1515084   6.332   6.237   7.627 -0.2473  0.1416  0.0720
  120CHL1  H15A15085   6.334   6.348   7.619 -0.3767  0.1168 -0.3543
  120CHL1  H15B15086   6.436   6.206   7.652  0.3903 -0.7234 -3.2044
  120CHL1   C1615087   6.291   6.166   7.496  0.1109 -0.4425  0.5675
  120CHL1  H16A15088   6.306   6.246   7.420 -1.8798 -0.9180 -0.3958
  120CHL1  H16B15089   6.351   6.073   7.495  2.9136  1.2448 -1.0310
  120CHL1   C1715090   6.142   6.126   7.499 -0.6811  0.2491  0.4971
  120CHL1   H1715091   6.135   6.016   7.517 -0.3506 -0.0608 -1.1113
  120CHL1   C1315092   6.095   6.189   7.627  0.1162  0.3401 -0.7168
  120CHL1   C1815093   6.044   6.330   7.590 -0.0645 -0.7213  0.5288
  120CHL1  H18A15094   5.939   6.327   7.554 -0.4015 -1.1578  1.5297
  120CHL1  H18B15095   6.023   6.392   7.679 -1.8490 -1.9039  0.9720
  120CHL1  H18C15096   6.118   6.383   7.525  2.4401 -1.5041  2.5711
  120CHL1   C1215097   5.987   6.112   7.708 -0.3100  0.2467 -0.0615
  120CHL1  H12A15098   5.899   6.092   7.643 -1.9654 -1.4757  2.5191
  120CHL1  H12B15099   6.036   6.012   7.719 -0.8237 -0.2235 -1.8265
  120CHL1   C1115100   5.945   6.177   7.838  0.7129  0.3541 -0.2229
  120CHL1  H11A15101   5.870   6.254   7.811 -1.0739 -1.7562 -1.7050
  120CHL1  H11B15102   5.894   6.096   7.895  1.3594  0.5353  0.6349
  120CHL1    C915103   6.067   6.219   7.927  0.1601 -0.4264  0.0243
  120CHL1    H915104   6.107   6.125   7.971  1.5828 -0.1672 -0.6664
  120CHL1   C1015105   6.028   6.305   8.053 -0.3621  0.4704  0.3055
  120CHL1   C1915106   5.952   6.428   7.998 -0.0961 -0.0279  0.0927
  120CHL1  H19A15107   5.849   6.400   7.967 -0.9583 -0.3665  2.9915
  120CHL1  H19B15108   5.940   6.505   8.077  0.8628 -0.3526  0.5618
  120CHL1  H19C15109   6.001   6.481   7.913 -0.5942  1.2958  0.6028
  120CHL1    C115110   5.938   6.217   8.141  0.1261 -0.1156 -0.8292
  120CHL1   H1A15111   5.841   6.211   8.087 -0.0173  0.8646 -0.7052
  120CHL1   H1B15112   5.981   6.116   8.158 -2.4704 -1.0895  0.6252
  120CHL1    C215113   5.908   6.279   8.278  0.0480  0.3285  0.3818
  120CHL1   H2A15114   5.833   6.217   8.331  1.0953 -0.8235  0.5558
  120CHL1   H2B15115   5.860   6.379   8.267  0.3450  0.4198 -0.1257
  120CHL1   C2015116   6.064   6.146   7.370 -0.4365 -0.2181 -0.6283
  120CHL1   H2015117   6.059   6.254   7.347 -0.2292  0.5026  2.2845
  120CHL1   C2115118   5.931   6.070   7.374 -0.9632  0.1788  0.3784
  120CHL1  H21A15119   5.872   6.089   7.282  0.4143 -0.1727 -0.6157
  120CHL1  H21B15120   5.867   6.107   7.456  0.7625 -0.4616  2.0735
  120CHL1  H21C15121   5.938   5.961   7.392  1.8993 -0.1815 -2.0247
  120CHL1   C2215122   6.144   6.072   7.260 -0.3717 -0.7738 -0.8333
  120CHL1  H22A15123   6.248   6.112   7.256 -0.6514  0.0194 -0.2554
  120CHL1  H22B15124   6.139   5.963   7.283 -1.5343 -0.5315  0.1454
  120CHL1   C2315125   6.088   6.092   7.113 -0.3459 -0.2714 -0.4781
  120CHL1  H23A15126   5.983   6.057   7.107 -0.5419 -0.4947  2.6593
  120CHL1  H23B15127   6.096   6.202   7.100 -0.0915  0.1592  2.6032
  120CHL1   C2415128   6.175   6.034   6.998  0.1497 -0.3522  0.1771
  120CHL1  H24A15129   6.280   6.068   7.009 -0.1584  0.9305 -0.6635
  120CHL1  H24B15130   6.188   5.925   7.014  0.7105 -0.3003  0.0824
  120CHL1   C2515131   6.121   6.046   6.856 -0.3445  0.0362  0.7596
  120CHL1   H2515132   6.023   5.995   6.850  0.0692 -0.6874 -0.2401
  120CHL1   C2615133   6.093   6.190   6.811  0.2391 -1.0111  0.2410
  120CHL1  H26A15134   6.013   6.235   6.874  0.1186  3.4011 -2.6158
  120CHL1  H26B15135   6.176   6.262   6.824 -1.1955  0.6710  0.4003
  120CHL1  H26C15136   6.062   6.179   6.705  1.3741  0.5899 -0.2938
  120CHL1   C2715137   6.209   5.972   6.745  0.1927  0.2979  0.0512
  120CHL1  H27A15138   6.204   5.861   6.749 -1.2888  0.3622  1.3768
  120CHL1  H27B15139   6.178   5.999   6.642  0.0468 -1.9633 -0.5328
  120CHL1  H27C15140   6.314   6.007   6.750  0.4920 -0.4832 -0.7452
  121CHL1    C315141   3.078   2.353   4.456  0.1338 -0.5498 -0.6544
  121CHL1    H315142   3.120   2.267   4.510  1.6136 -0.8943 -2.2637
  121CHL1    O315143   3.094   2.343   4.316 -0.2505  0.3257 -0.2565
  121CHL1   H3'15144   3.105   2.434   4.288 -1.2727  1.4058  2.5050
  121CHL1    C415145   2.933   2.378   4.515  1.0429 -0.1456 -0.2708
  121CHL1   H4A15146   2.884   2.463   4.465  1.0083 -0.8066 -1.3830
  121CHL1   H4B15147   2.873   2.290   4.483  0.0159  0.2017  0.6622
  121CHL1    C515148   2.942   2.382   4.665  0.0018 -0.2907 -0.6460
  121CHL1    C615149   2.884   2.296   4.742 -0.0955 -0.1264 -0.2607
  121CHL1    H615150   2.832   2.215   4.689 -1.5560  1.2367 -0.9732
  121CHL1    C715151   2.892   2.289   4.894 -1.0987 -0.0399  0.3735
  121CHL1   H7A15152   2.797   2.258   4.942 -0.1602 -2.7768  0.6559
  121CHL1   H7B15153   2.971   2.212   4.910 -0.4790  0.5062  0.0054
  121CHL1    C815154   2.927   2.426   4.950 -0.1575 -0.1909  0.3077
  121CHL1    H815155   2.836   2.488   4.938 -0.2070 -0.0457  1.3553
  121CHL1   C1415156   2.967   2.427   5.092 -0.0088 -0.0145 -0.5546
  121CHL1   H1415157   3.052   2.357   5.098  1.2288  1.3955 -0.9365
  121CHL1   C1515158   2.860   2.373   5.188  0.2095  0.4294 -0.7505
  121CHL1  H15A15159   2.766   2.430   5.170 -0.6276 -0.6703  0.0168
  121CHL1  H15B15160   2.830   2.267   5.173 -1.5322  0.7994 -0.1238
  121CHL1   C1615161   2.919   2.399   5.328 -0.6387 -0.0644 -0.4910
  121CHL1  H16A15162   2.836   2.446   5.385 -1.3303 -1.7127 -0.0809
  121CHL1  H16B15163   2.937   2.305   5.385 -2.4247 -0.2010 -0.1087
  121CHL1   C1715164   3.046   2.491   5.304  0.7829 -0.0763  0.1014
  121CHL1   H1715165   3.126   2.417   5.288  0.4877 -0.3578 -0.0890
  121CHL1   C1315166   3.024   2.549   5.162 -0.0734 -0.5916 -0.5831
  121CHL1   C1815167   2.917   2.664   5.172 -0.0292  0.0618 -0.5921
  121CHL1  H18A15168   2.878   2.670   5.068  0.6421  1.1431 -0.7999
  121CHL1  H18B15169   2.836   2.627   5.238  0.7780 -0.4850  0.1267
  121CHL1  H18C15170   2.953   2.762   5.211 -1.4145  0.7276 -0.9477
  121CHL1   C1215171   3.145   2.588   5.081  0.2669  0.2594 -0.1523
  121CHL1  H12A15172   3.185   2.677   5.134 -0.5785  0.8428 -0.4792
  121CHL1  H12B15173   3.218   2.507   5.101 -0.8253 -0.3022  1.8937
  121CHL1   C1115174   3.099   2.613   4.936 -0.2284 -0.1322 -0.5872
  121CHL1  H11A15175   3.030   2.699   4.947  0.0005  0.4851 -3.3110
  121CHL1  H11B15176   3.182   2.645   4.869  0.7674  2.6749  1.7718
  121CHL1    C915177   3.050   2.481   4.872  0.4030 -0.8515 -0.2115
  121CHL1    H915178   3.136   2.414   4.895  0.3204 -0.8402  0.1321
  121CHL1   C1015179   3.022   2.497   4.725 -0.2973  0.3548 -0.1018
  121CHL1   C1915180   2.938   2.631   4.704  0.3566  0.1012 -0.4777
  121CHL1  H19A15181   3.015   2.711   4.715 -0.4344  0.7201  0.8120
  121CHL1  H19B15182   2.878   2.639   4.611 -2.1027  2.1087  1.1690
  121CHL1  H19C15183   2.873   2.645   4.793 -1.5613  3.0540 -2.1710
  121CHL1    C115184   3.160   2.492   4.650  0.7370 -0.1090  0.0924
  121CHL1   H1A15185   3.208   2.592   4.652 -0.2764  0.5965 -3.8109
  121CHL1   H1B15186   3.226   2.415   4.696 -0.3257 -0.0335  1.8304
  121CHL1    C215187   3.162   2.470   4.504  0.1610  0.4811  0.1234
  121CHL1   H2A15188   3.264   2.464   4.461  0.2774  0.5046  0.3946
  121CHL1   H2B15189   3.114   2.559   4.459 -0.6983  1.0773  2.1049
  121CHL1   C2015190   3.092   2.578   5.424 -0.1978 -0.5099 -0.0727
  121CHL1   H2015191   3.036   2.674   5.431  1.7660  0.6143  1.2471
  121CHL1   C2115192   3.243   2.613   5.408 -0.3511  0.2806 -0.4933
  121CHL1  H21A15193   3.284   2.624   5.511 -2.0506  1.5806  0.0877
  121CHL1  H21B15194   3.263   2.707   5.353  2.4713  1.2712  1.9518
  121CHL1  H21C15195   3.312   2.535   5.368  0.7514  0.0719  1.6701
  121CHL1   C2215196   3.063   2.525   5.563  0.4583 -0.2834  0.0136
  121CHL1  H22A15197   2.953   2.508   5.569 -0.0613  2.3912 -0.5869
  121CHL1  H22B15198   3.120   2.431   5.579  1.4461  0.3754  0.4975
  121CHL1   C2315199   3.090   2.612   5.683 -0.1713 -0.2549 -0.8191
  121CHL1  H23A15200   3.189   2.662   5.686 -0.2778  0.1039  3.1389
  121CHL1  H23B15201   3.019   2.697   5.685 -0.5831 -0.5798 -1.4590
  121CHL1   C2415202   3.079   2.523   5.816  0.7709  0.1128  0.7484
  121CHL1  H24A15203   2.973   2.491   5.817  1.0707 -0.9253  1.3035
  121CHL1  H24B15204   3.148   2.436   5.807  0.3700 -0.0310 -1.3136
  121CHL1   C2515205   3.111   2.597   5.951  0.2727 -0.5835  0.1611
  121CHL1   H2515206   3.214   2.638   5.940  0.5416 -1.3888 -0.4604
  121CHL1   C2615207   3.016   2.716   5.992 -0.4592  0.8650 -0.0207
  121CHL1  H26A15208   3.011   2.788   5.907 -0.9348 -0.6814 -1.3401
  121CHL1  H26B15209   2.911   2.681   6.004 -0.5158  1.0674  0.0972
  121CHL1  H26C15210   3.050   2.759   6.089  0.7727 -1.7150  0.7581
  121CHL1   C2715211   3.116   2.502   6.071 -0.0220 -0.0931  0.2433
  121CHL1  H27A15212   3.134   2.565   6.161 -0.4280 -2.3105  1.9538
  121CHL1  H27B15213   3.019   2.452   6.091  0.2531 -2.0021 -2.6258
  121CHL1  H27C15214   3.197   2.429   6.049  0.1353  1.0261 -3.4811
  122CHL1    C315215   1.171   3.376   4.666  0.3022 -0.6176  0.3611
  122CHL1    H315216   1.087   3.448   4.681 -0.0461 -0.5520 -1.6084
  122CHL1    O315217   1.190   3.364   4.525 -0.0504  0.4098  0.7319
  122CHL1   H3'15218   1.276   3.320   4.523 -0.8542 -1.3194 -2.2687
  122CHL1    C415219   1.292   3.455   4.734  0.2904 -0.2123  0.1678
  122CHL1   H4A15220   1.386   3.406   4.699 -0.6374  0.0907 -3.1022
  122CHL1   H4B15221   1.307   3.553   4.685 -2.1630  0.4651  0.6496
  122CHL1    C515222   1.269   3.463   4.883  0.0294 -0.6013 -0.0360
  122CHL1    C615223   1.266   3.586   4.943 -0.2594  0.0614  0.5863
  122CHL1    H615224   1.287   3.670   4.875 -3.2613  0.1254 -0.3832
  122CHL1    C715225   1.246   3.606   5.084  0.2105 -0.0491 -0.0380
  122CHL1   H7A15226   1.319   3.670   5.139  0.9061 -1.1679  0.3824
  122CHL1   H7B15227   1.152   3.659   5.109  1.1046  0.1309  3.5445
  122CHL1    C815228   1.254   3.476   5.172  0.2826  0.1886  0.5836
  122CHL1    H815229   1.362   3.448   5.176 -0.2746 -2.3920 -0.1807
  122CHL1   C1415230   1.202   3.493   5.310 -0.3972 -0.1553 -0.2244
  122CHL1   H1415231   1.093   3.507   5.297 -0.2331  0.5582 -0.8617
  122CHL1   C1515232   1.261   3.608   5.389 -0.9253 -0.6651  0.0091
  122CHL1  H15A15233   1.367   3.631   5.369 -0.5811 -0.5192  1.8985
  122CHL1  H15B15234   1.210   3.703   5.362  1.7087  0.8155 -0.0520
  122CHL1   C1615235   1.236   3.581   5.534  0.2455  0.0971  0.5969
  122CHL1  H16A15236   1.333   3.583   5.588 -0.0947  1.8624  1.1942
  122CHL1  H16B15237   1.173   3.652   5.591  3.2387  2.0744  1.6744
  122CHL1   C1715238   1.173   3.433   5.540 -0.1421  0.1703  0.0533
  122CHL1   H1715239   1.063   3.446   5.548 -0.1501  0.5221 -0.5672
  122CHL1   C1315240   1.210   3.371   5.403  0.2641 -0.8169  0.0225
  122CHL1   C1815241   1.352   3.322   5.420  0.2569 -0.5412 -0.3940
  122CHL1  H18A15242   1.411   3.409   5.457  2.7343 -2.0948 -0.4548
  122CHL1  H18B15243   1.346   3.227   5.475 -0.7894 -0.5572 -0.5239
  122CHL1  H18C15244   1.393   3.285   5.323  0.7431 -4.9931  1.2841
  122CHL1   C1215245   1.121   3.266   5.338 -0.1742 -0.1143  0.1844
  122CHL1  H12A15246   1.110   3.175   5.401 -0.6801 -0.4316 -0.3631
  122CHL1  H12B15247   1.019   3.310   5.335  0.1076  0.5912  0.5388
  122CHL1   C1115248   1.172   3.240   5.198 -0.2937  0.0675  0.9943
  122CHL1  H11A15249   1.269   3.186   5.201  0.3068  0.6978 -2.5410
  122CHL1  H11B15250   1.092   3.177   5.153 -1.3954  2.3306 -0.4005
  122CHL1    C915251   1.180   3.363   5.104  0.1260  0.8267  0.6174
  122CHL1    H915252   1.079   3.408   5.096 -0.4229 -0.6045 -1.7935
  122CHL1   C1015253   1.225   3.329   4.960 -0.1568 -0.4469  0.7712
  122CHL1   C1915254   1.343   3.228   4.966  0.0935  0.0782  0.0560
  122CHL1  H19A15255   1.293   3.129   4.978 -1.1210  0.5824 -0.6630
  122CHL1  H19B15256   1.404   3.223   4.873  0.7240  2.6103  0.2537
  122CHL1  H19C15257   1.411   3.252   5.050 -1.6985 -0.6007  1.7848
  122CHL1    C115258   1.109   3.270   4.880 -0.3115 -0.1298 -0.0688
  122CHL1   H1A15259   1.088   3.171   4.926  2.9066 -1.8658 -1.9135
  122CHL1   H1B15260   1.025   3.342   4.872 -0.1828 -0.0787 -1.1101
  122CHL1    C215261   1.143   3.245   4.733 -0.0776  0.0771 -0.3624
  122CHL1   H2A15262   1.061   3.198   4.676 -0.8536  3.3086 -2.1584
  122CHL1   H2B15263   1.234   3.182   4.733  0.1958  0.4449  0.6829
  122CHL1   C2015264   1.203   3.364   5.670 -0.1326 -0.0263 -0.0239
  122CHL1   H2015265   1.310   3.336   5.666 -0.2225 -1.3736  3.4677
  122CHL1   C2115266   1.128   3.232   5.692  0.4184 -0.4139  0.4580
  122CHL1  H21A15267   1.024   3.267   5.673 -0.2879 -3.3332 -1.8104
  122CHL1  H21B15268   1.149   3.194   5.794 -0.4461 -3.3361 -0.3536
  122CHL1  H21C15269   1.145   3.154   5.615  0.9493 -0.4462  0.6056
  122CHL1   C2215270   1.181   3.446   5.806 -0.3095 -0.0822  0.2581
  122CHL1  H22A15271   1.114   3.533   5.790 -1.5922 -1.1944 -0.6208
  122CHL1  H22B15272   1.121   3.385   5.877 -0.6389 -0.7915 -0.6109
  122CHL1   C2315273   1.312   3.487   5.871  0.3577 -0.4728 -0.1347
  122CHL1  H23A15274   1.371   3.394   5.881  1.2212 -0.0107 -0.7050
  122CHL1  H23B15275   1.371   3.550   5.800  0.8077 -1.5110 -0.7019
  122CHL1   C2415276   1.305   3.573   5.998 -0.4825 -0.4135 -0.1786
  122CHL1  H24A15277   1.226   3.651   5.986  0.9657  1.4199  1.5862
  122CHL1  H24B15278   1.285   3.504   6.082  3.4765 -1.2541  0.2275
  122CHL1   C2515279   1.434   3.647   6.040  0.4939  0.0782  0.6106
  122CHL1   H2515280   1.459   3.738   5.981  1.3325 -0.1521  0.6060
  122CHL1   C2615281   1.422   3.706   6.182  0.0094  0.5650 -0.3024
  122CHL1  H26A15282   1.520   3.742   6.221  0.7275 -0.9365 -0.6394
  122CHL1  H26B15283   1.355   3.795   6.176 -0.3777  0.3724  0.8186
  122CHL1  H26C15284   1.372   3.635   6.252 -0.5550  0.7937 -0.4647
  122CHL1   C2715285   1.550   3.549   6.036  0.0850 -0.3231 -0.1597
  122CHL1  H27A15286   1.567   3.506   5.935  2.7704 -1.0545  0.5190
  122CHL1  H27B15287   1.641   3.596   6.079 -0.4624 -0.2769  0.9605
  122CHL1  H27C15288   1.538   3.465   6.108 -0.7169 -0.1748 -0.1112
  123CHL1    C315289   4.139   3.606   4.296  0.2340  0.2353  0.3625
  123CHL1    H315290   4.048   3.663   4.325  0.2258  0.0098  0.7902
  123CHL1    O315291   4.158   3.596   4.157  0.0713  0.3513  0.1675
  123CHL1   H3'15292   4.072   3.621   4.121 -0.6566 -1.5068  0.4517
  123CHL1    C415293   4.256   3.673   4.351 -0.5588 -0.5746  0.5208
  123CHL1   H4A15294   4.336   3.604   4.318 -1.5626 -1.0487 -1.0157
  123CHL1   H4B15295   4.262   3.774   4.303 -4.5875  0.0573  1.0261
  123CHL1    C515296   4.268   3.689   4.503 -0.3203 -0.0189 -0.5401
  123CHL1    C615297   4.289   3.803   4.558 -0.6603 -0.5676  0.8753
  123CHL1    H615298   4.320   3.887   4.495 -0.4774 -1.7704 -0.7088
  123CHL1    C715299   4.288   3.822   4.700  0.3929  0.1591  0.2207
  123CHL1   H7A15300   4.372   3.884   4.736  1.9777 -0.4646 -2.1565
  123CHL1   H7B15301   4.200   3.888   4.719  0.9562  1.0574 -0.1762
  123CHL1    C815302   4.280   3.699   4.783 -0.1820 -0.3827 -0.6609
  123CHL1    H815303   4.384   3.660   4.784 -0.5477 -1.3835 -1.1059
  123CHL1   C1415304   4.247   3.734   4.925 -0.1763  0.7668 -0.1508
  123CHL1   H1415305   4.137   3.745   4.923 -0.5385 -2.1574 -0.1512
  123CHL1   C1515306   4.321   3.848   5.002  0.2159  0.7390  0.4493
  123CHL1  H15A15307   4.432   3.848   4.998  0.2352 -1.4724  0.0365
  123CHL1  H15B15308   4.278   3.945   4.968  0.2511  1.2267  1.7441
  123CHL1   C1615309   4.283   3.818   5.148 -0.7074 -0.3682  0.1931
  123CHL1  H16A15310   4.377   3.804   5.206 -0.5335  0.3551  0.1008
  123CHL1  H16B15311   4.222   3.904   5.185  1.3135  0.5270  1.6447
  123CHL1   C1715312   4.210   3.680   5.152 -0.5853  0.6221 -0.6199
  123CHL1   H1715313   4.106   3.705   5.122 -0.3035  3.3258  0.3736
  123CHL1   C1315314   4.256   3.607   5.021  0.4191 -0.0557 -0.7771
  123CHL1   C1815315   4.402   3.558   5.043  0.4716  0.3884 -0.5645
  123CHL1  H18A15316   4.480   3.625   5.087 -0.6903  1.1469  0.3894
  123CHL1  H18B15317   4.398   3.466   5.105 -0.8029 -0.7370 -2.2465
  123CHL1  H18C15318   4.442   3.529   4.944 -1.0596  1.0576 -1.4016
  123CHL1   C1215319   4.159   3.502   4.962 -0.2780  0.5028 -0.4849
  123CHL1  H12A15320   4.159   3.411   5.024 -3.5240 -0.6912 -2.0306
  123CHL1  H12B15321   4.053   3.534   4.971 -0.4256  0.0430 -0.5926
  123CHL1   C1115322   4.192   3.463   4.818  0.0754  0.0715 -0.1864
  123CHL1  H11A15323   4.288   3.406   4.813  0.3114  0.3948  0.5345
  123CHL1  H11B15324   4.114   3.397   4.776  1.7386 -0.9637 -1.8160
  123CHL1    C915325   4.191   3.591   4.727 -0.2445  0.0031 -0.0500
  123CHL1    H915326   4.089   3.632   4.739 -0.5953 -0.3991 -1.3888
  123CHL1   C1015327   4.227   3.560   4.578 -0.2275 -0.3353 -0.2874
  123CHL1   C1915328   4.346   3.464   4.566 -0.3794  0.1010 -0.7072
  123CHL1  H19A15329   4.320   3.364   4.606  2.2344 -0.0724  0.7557
  123CHL1  H19B15330   4.378   3.454   4.461 -1.4237  2.4642 -1.3186
  123CHL1  H19C15331   4.429   3.501   4.630 -0.1251  0.8696 -1.4696
  123CHL1    C115332   4.096   3.497   4.513  0.3046 -0.0212  0.4997
  123CHL1   H1A15333   4.077   3.397   4.558  0.2679 -1.2900 -2.1530
  123CHL1   H1B15334   4.008   3.561   4.535  0.1910 -0.2470  0.7079
  123CHL1    C215335   4.115   3.470   4.365 -0.3402 -0.5053  0.6223
  123CHL1   H2A15336   4.022   3.425   4.324  0.2826 -1.5228  0.2973
  123CHL1   H2B15337   4.206   3.408   4.350  0.5703  0.9303 -0.0289
  123CHL1   C2015338   4.212   3.603   5.281  0.2162 -0.5708  0.3509
  123CHL1   H2015339   4.317   3.576   5.302 -0.0193 -0.6577  1.4864
  123CHL1   C2115340   4.123   3.474   5.276 -0.4395  0.4461 -0.8922
  123CHL1  H21A15341   4.168   3.388   5.223  0.3502  0.4755 -0.3013
  123CHL1  H21B15342   4.027   3.499   5.227  0.0052  0.7945 -1.6049
  123CHL1  H21C15343   4.102   3.429   5.376 -0.7046 -1.5063 -1.7855
  123CHL1   C2215344   4.172   3.696   5.402 -0.1999 -0.2141 -0.2889
  123CHL1  H22A15345   4.235   3.787   5.417 -0.6216 -0.0051  0.2475
  123CHL1  H22B15346   4.071   3.737   5.378 -1.3269 -2.9525 -0.4986
  123CHL1   C2315347   4.159   3.633   5.540  0.1227 -0.2171  0.4562
  123CHL1  H23A15348   4.068   3.570   5.537 -0.8153  1.1033  0.3022
  123CHL1  H23B15349   4.249   3.573   5.566 -0.1849 -1.1643 -0.5998
  123CHL1   C2415350   4.139   3.730   5.653  0.1300 -0.0002  0.5661
  123CHL1  H24A15351   4.222   3.801   5.634 -0.8164  0.5753 -1.7600
  123CHL1  H24B15352   4.042   3.782   5.639 -0.0170 -0.4031  0.0877
  123CHL1   C2515353   4.151   3.662   5.788  0.3002  0.8293  0.6225
  123CHL1   H2515354   4.239   3.595   5.788 -0.9191 -0.8706 -0.6936
  123CHL1   C2615355   4.176   3.770   5.894  0.0662  0.9059  0.0093
  123CHL1  H26A15356   4.079   3.823   5.907 -0.3907  0.1564 -0.2435
  123CHL1  H26B15357   4.222   3.735   5.988  0.9437 -0.5157 -0.9143
  123CHL1  H26C15358   4.253   3.838   5.851  0.0328  1.3591  0.6514
  123CHL1   C2715359   4.024   3.575   5.824 -0.4106  0.1995  0.7204
  123CHL1  H27A15360   4.026   3.546   5.931  0.5347 -0.8998  0.4294
  123CHL1  H27B15361   3.932   3.635   5.804  0.6493  1.5205 -0.3935
  123CHL1  H27C15362   4.015   3.480   5.767 -2.6448 -0.2655  1.7461
  124CHL1    C315363   3.194   3.598   4.670  0.2367 -0.9832 -0.8467
  124CHL1    H315364   3.246   3.684   4.716 -2.2210  0.3652 -0.3985
  124CHL1    O315365   3.219   3.572   4.529  0.4854  0.1258 -0.4649
  124CHL1   H3'15366   3.141   3.595   4.478  0.7871  0.1084 -0.9310
  124CHL1    C415367   3.242   3.471   4.745 -0.4901  0.3850 -0.1661
  124CHL1   H4A15368   3.176   3.393   4.702 -1.5941  1.4552 -0.4490
  124CHL1   H4B15369   3.346   3.443   4.715 -0.7582 -0.4887 -0.3185
  124CHL1    C515370   3.217   3.498   4.893  0.1476 -0.1818  0.2922
  124CHL1    C615371   3.321   3.491   4.979 -0.4173 -0.9062 -0.3937
  124CHL1    H615372   3.423   3.472   4.943 -0.2268 -0.0223 -0.3503
  124CHL1    C715373   3.310   3.517   5.122  0.2055  0.0119 -0.4464
  124CHL1   H7A15374   3.368   3.442   5.179 -0.4512  0.2549  0.5769
  124CHL1   H7B15375   3.351   3.616   5.150  1.0233 -0.4447  0.0129
  124CHL1    C815376   3.165   3.508   5.175  0.9542 -0.1343  0.6881
  124CHL1    H815377   3.137   3.401   5.185 -2.0979  0.6806  2.0027
  124CHL1   C1415378   3.165   3.557   5.318  0.1350 -0.5889 -0.3818
  124CHL1   H1415379   3.172   3.667   5.308  0.0096 -0.6884 -1.8493
  124CHL1   C1515380   3.267   3.501   5.419 -0.3180  0.5236  0.3644
  124CHL1  H15A15381   3.286   3.392   5.417 -0.1211  0.5260 -2.4156
  124CHL1  H15B15382   3.369   3.544   5.411  0.6956 -1.9068 -0.8772
  124CHL1   C1615383   3.205   3.525   5.565  0.1639  1.0173  0.5861
  124CHL1  H16A15384   3.214   3.431   5.623 -0.0723  1.3956  1.2340
  124CHL1  H16B15385   3.258   3.604   5.622 -0.3514 -0.5883  3.4698
  124CHL1   C1715386   3.056   3.574   5.530  0.3624  0.8964 -0.1585
  124CHL1   H1715387   3.072   3.684   5.531 -0.2979  1.0117  1.6491
  124CHL1   C1315388   3.028   3.533   5.383 -0.0200  0.1475 -0.1337
  124CHL1   C1815389   2.989   3.384   5.387  0.4289  0.2336  0.1577
  124CHL1  H18A15390   3.071   3.326   5.436  0.6604  0.0157 -0.4784
  124CHL1  H18B15391   2.896   3.372   5.446  0.5371 -1.0741  0.0887
  124CHL1  H18C15392   2.972   3.342   5.286 -0.8077 -0.6042  0.6926
  124CHL1   C1215393   2.928   3.619   5.306 -0.3271  0.3672  0.7583
  124CHL1  H12A15394   2.827   3.629   5.352 -0.7064  0.5284 -0.0911
  124CHL1  H12B15395   2.972   3.721   5.308  0.6690 -0.0432  0.6029
  124CHL1   C1115396   2.922   3.595   5.156 -0.0895 -0.4190  0.8280
  124CHL1  H11A15397   2.856   3.507   5.143 -0.3808 -0.8334  4.2675
  124CHL1  H11B15398   2.883   3.686   5.105  0.4085 -0.0299  1.1372
  124CHL1    C915399   3.065   3.583   5.090 -0.3544  0.1329 -0.3370
  124CHL1    H915400   3.113   3.683   5.099 -0.2249 -0.0196  0.8460
  124CHL1   C1015401   3.077   3.536   4.942 -0.2368  0.1067  0.3999
  124CHL1   C1915402   2.988   3.408   4.937  0.1781 -0.4384 -0.2460
  124CHL1  H19A15403   2.987   3.365   4.835 -1.6745 -2.4571  0.5284
  124CHL1  H19B15404   3.023   3.326   5.003  1.9961 -0.3143 -0.9944
  124CHL1  H19C15405   2.883   3.444   4.946  0.4371  0.2658  0.0579
  124CHL1    C115406   3.017   3.642   4.844  0.6484 -0.0386 -0.3814
  124CHL1   H1A15407   2.907   3.633   4.856  0.7070  0.3844  0.4930
  124CHL1   H1B15408   3.054   3.744   4.869 -2.1143  1.4722 -1.9710
  124CHL1    C215409   3.046   3.621   4.695  0.1444 -0.1300  0.4393
  124CHL1   H2A15410   3.005   3.708   4.639  0.7323 -2.2957 -3.8232
  124CHL1   H2B15411   3.001   3.527   4.658  2.4622 -0.6945 -1.1644
  124CHL1   C2015412   2.944   3.560   5.648  0.3387  0.6504  0.3064
  124CHL1   H2015413   2.848   3.570   5.594 -0.5386 -1.9635  1.2519
  124CHL1   C2115414   2.981   3.674   5.749 -0.1024  0.7638 -0.1637
  124CHL1  H21A15415   2.996   3.772   5.700  1.0964  0.9798  0.5994
  124CHL1  H21B15416   3.077   3.639   5.793  0.1125  2.7084  1.0109
  124CHL1  H21C15417   2.912   3.682   5.835 -1.1836  0.6131 -0.9910
  124CHL1   C2215418   2.943   3.414   5.715  0.4111  0.0412 -0.3715
  124CHL1  H22A15419   2.935   3.337   5.635 -0.5027  0.2438 -0.4819
  124CHL1  H22B15420   3.038   3.399   5.772  2.0905 -0.7488 -3.1650
  124CHL1   C2315421   2.834   3.384   5.826  0.2487 -0.2462  0.0054
  124CHL1  H23A15422   2.864   3.290   5.877 -0.2106 -0.1109  0.5370
  124CHL1  H23B15423   2.833   3.468   5.898  3.0677  0.4185 -0.5958
  124CHL1   C2415424   2.688   3.365   5.776 -0.1761  0.2479  0.0083
  124CHL1  H24A15425   2.654   3.449   5.711  0.7681 -0.3906 -1.3840
  124CHL1  H24B15426   2.693   3.271   5.717 -1.3921  0.0839  0.1510
  124CHL1   C2515427   2.598   3.332   5.897 -0.0382  0.4519  0.3314
  124CHL1   H2515428   2.643   3.256   5.965 -2.1337 -0.7769  0.4339
  124CHL1   C2615429   2.560   3.461   5.974  0.3004  0.0650 -0.7609
  124CHL1  H26A15430   2.501   3.437   6.065 -0.7537  2.1898 -0.8051
  124CHL1  H26B15431   2.648   3.521   6.005 -0.4576  1.0958 -0.5185
  124CHL1  H26C15432   2.510   3.538   5.911  0.0028  1.0697  0.6513
  124CHL1   C2715433   2.466   3.270   5.838 -0.0321 -0.5675 -0.6761
  124CHL1  H27A15434   2.491   3.184   5.773 -0.6779 -0.7452 -0.6966
  124CHL1  H27B15435   2.406   3.254   5.930 -0.2204  0.8563 -0.5224
  124CHL1  H27C15436   2.418   3.351   5.780  0.0612 -0.0495 -0.0427
  125CHL1    C315437   3.402   4.160   4.140 -0.1255 -0.6902 -0.1919
  125CHL1    H315438   3.300   4.205   4.130  0.7972  1.3279 -1.0804
  125CHL1    O315439   3.473   4.159   4.015  0.4907 -0.3846 -0.0517
  125CHL1   H3'15440   3.414   4.145   3.940  0.8146  0.6516 -0.5061
  125CHL1    C415441   3.476   4.252   4.230  0.3770  0.6752 -0.3894
  125CHL1   H4A15442   3.582   4.219   4.225 -0.2539 -2.1169  1.8375
  125CHL1   H4B15443   3.459   4.352   4.185 -0.5624  1.2074  1.0543
  125CHL1    C515444   3.423   4.242   4.370  0.0829 -0.6801  0.5914
  125CHL1    C615445   3.383   4.348   4.439 -0.3676  0.1695 -0.0645
  125CHL1    H615446   3.385   4.450   4.398  0.9914  0.7652  1.3696
  125CHL1    C715447   3.331   4.347   4.577 -0.1250 -0.3520 -0.4544
  125CHL1   H7A15448   3.382   4.437   4.619 -0.1561 -0.8237  0.6155
  125CHL1   H7B15449   3.220   4.348   4.577 -0.2546 -0.9371  3.0547
  125CHL1    C815450   3.383   4.219   4.650 -0.2625  0.2100 -0.0400
  125CHL1    H815451   3.494   4.224   4.657 -0.3156  1.0116  0.2832
  125CHL1   C1415452   3.321   4.205   4.791 -0.0002 -0.1156 -0.5961
  125CHL1   H1415453   3.213   4.199   4.766  0.3371  0.9780 -2.5854
  125CHL1   C1515454   3.327   4.323   4.886 -0.1707 -0.8359 -0.3470
  125CHL1  H15A15455   3.432   4.360   4.889 -0.7494  0.7476  1.1107
  125CHL1  H15B15456   3.262   4.411   4.870  0.1747 -0.0733  2.1657
  125CHL1   C1615457   3.313   4.265   5.024 -0.0940 -0.8792 -0.3239
  125CHL1  H16A15458   3.396   4.298   5.089 -1.1233 -1.0085  1.1082
  125CHL1  H16B15459   3.221   4.302   5.075  0.5382 -0.4871  0.5539
  125CHL1   C1715460   3.308   4.112   5.005 -1.0264  0.5403 -0.1825
  125CHL1   H1715461   3.203   4.077   4.996 -0.9956  0.5306 -0.5073
  125CHL1   C1315462   3.372   4.078   4.866 -0.4626 -0.1690 -0.5201
  125CHL1   C1815463   3.523   4.070   4.878  0.1575  0.0042  0.3621
  125CHL1  H18A15464   3.577   4.149   4.934 -0.3008 -0.4658  1.4852
  125CHL1  H18B15465   3.548   3.976   4.931  1.0256  0.2852  0.4646
  125CHL1  H18C15466   3.564   4.052   4.776 -2.6103 -0.7336 -0.7307
  125CHL1   C1215467   3.314   3.955   4.797  0.7281  0.1096  0.3357
  125CHL1  H12A15468   3.351   3.864   4.849 -0.4367 -1.2716 -1.1494
  125CHL1  H12B15469   3.204   3.957   4.811  0.2288 -0.4004 -2.8219
  125CHL1   C1115470   3.363   3.952   4.652  0.7058 -0.5834 -0.1510
  125CHL1  H11A15471   3.463   3.906   4.637 -0.0517 -1.9972 -1.1706
  125CHL1  H11B15472   3.289   3.882   4.609 -0.5049 -0.5414  1.7654
  125CHL1    C915473   3.348   4.087   4.567 -0.8578 -0.8490  0.9604
  125CHL1    H915474   3.239   4.105   4.552 -0.6196  0.3669  0.5642
  125CHL1   C1015475   3.411   4.095   4.424 -0.2526 -0.0626 -0.2497
  125CHL1   C1915476   3.563   4.050   4.429  0.4278  0.4015 -0.2200
  125CHL1  H19A15477   3.608   4.080   4.526  1.1477  1.8048 -0.9652
  125CHL1  H19B15478   3.549   3.940   4.435  0.8930  0.3765  0.7724
  125CHL1  H19C15479   3.634   4.072   4.347 -0.3119 -1.9671 -1.5818
  125CHL1    C115480   3.331   4.008   4.329 -0.2939 -0.4216 -0.0404
  125CHL1   H1A15481   3.332   3.907   4.375 -0.0900 -0.3422  0.1350
  125CHL1   H1B15482   3.225   4.040   4.327  0.0951  1.3520  2.3271
  125CHL1    C215483   3.391   4.013   4.185 -0.1190  0.5742  0.1039
  125CHL1   H2A15484   3.318   3.960   4.120 -0.5546  2.4596 -1.0220
  125CHL1   H2B15485   3.492   3.968   4.177 -0.4664 -0.2536  0.3077
  125CHL1   C2015486   3.353   4.044   5.143 -0.0789  0.4184  0.8102
  125CHL1   H2015487   3.463   4.059   5.155 -0.3538  2.0893  1.4569
  125CHL1   C2115488   3.329   3.898   5.123  0.5368  0.4460 -0.3138
  125CHL1  H21A15489   3.227   3.870   5.088 -0.3897 -0.4333  2.7810
  125CHL1  H21B15490   3.328   3.839   5.217  0.2293 -4.3447 -3.0158
  125CHL1  H21C15491   3.417   3.859   5.068  0.1218  1.8664 -2.0761
  125CHL1   C2215492   3.272   4.089   5.267  0.1319  0.6206  0.6785
  125CHL1  H22A15493   3.280   4.200   5.275 -0.6205  0.6748  0.7477
  125CHL1  H22B15494   3.164   4.063   5.257  0.1719  1.2214 -2.5009
  125CHL1   C2315495   3.323   4.033   5.395 -0.0676 -0.3498 -0.1428
  125CHL1  H23A15496   3.361   3.929   5.389  0.5585 -0.0450 -4.0031
  125CHL1  H23B15497   3.404   4.096   5.438  0.0757 -0.8667  0.3524
  125CHL1   C2415498   3.210   4.043   5.501  0.1455 -0.0399  0.6762
  125CHL1  H24A15499   3.157   4.141   5.507 -2.3570 -1.2877  0.1622
  125CHL1  H24B15500   3.134   3.969   5.467  0.9446  0.1353 -1.6743
  125CHL1   C2515501   3.271   4.020   5.637  0.0027 -0.1949 -0.4510
  125CHL1   H2515502   3.363   4.082   5.640 -0.5856  0.6732  0.5707
  125CHL1   C2615503   3.170   4.080   5.738  0.5414 -0.4832  0.0710
  125CHL1  H26A15504   3.215   4.061   5.838  0.5257  0.6343  0.3033
  125CHL1  H26B15505   3.153   4.189   5.727  2.1038 -0.0225  1.6753
  125CHL1  H26C15506   3.074   4.028   5.720  0.6215 -0.8728  0.7335
  125CHL1   C2715507   3.309   3.876   5.679 -0.2610 -0.0841  0.2985
  125CHL1  H27A15508   3.357   3.883   5.779  2.0339  0.7203 -0.7982
  125CHL1  H27B15509   3.220   3.811   5.691  1.9627 -3.3666  0.5182
  125CHL1  H27C15510   3.390   3.835   5.615  0.0280 -0.5410  0.9361
  126CHL1    C315511   1.894   4.089   4.161  0.2168 -0.6128 -0.5989
  126CHL1    H315512   1.897   4.199   4.142 -1.5421 -0.7588 -2.0093
  126CHL1    O315513   1.810   4.027   4.068 -0.1699 -0.6414  0.2436
  126CHL1   H3'15514   1.806   3.933   4.089 -1.7612 -0.2270  2.1997
  126CHL1    C415515   2.033   4.025   4.136  0.6583 -0.4898 -0.5583
  126CHL1   H4A15516   2.027   3.914   4.145 -0.9301 -0.3482  0.4746
  126CHL1   H4B15517   2.060   4.047   4.030  0.0147 -0.0332 -0.6313
  126CHL1    C515518   2.129   4.081   4.233  0.5735 -0.0892 -0.5500
  126CHL1    C615519   2.244   4.144   4.195 -0.2704  0.3801  1.0111
  126CHL1    H615520   2.263   4.144   4.086  2.7262 -1.5853  1.4396
  126CHL1    C715521   2.351   4.196   4.286  0.6751  0.8521 -0.2153
  126CHL1   H7A15522   2.451   4.157   4.258  1.2743 -0.4699  3.2286
  126CHL1   H7B15523   2.347   4.307   4.293 -1.0419  0.8562 -0.8490
  126CHL1    C815524   2.324   4.145   4.431 -0.4200 -0.0566 -0.2608
  126CHL1    H815525   2.347   4.038   4.452 -1.2719 -0.1648  0.1781
  126CHL1   C1415526   2.401   4.240   4.530  0.0746  0.3807 -0.2478
  126CHL1   H1415527   2.363   4.339   4.496 -1.1028  0.2254  0.5514
  126CHL1   C1515528   2.558   4.259   4.511  0.3799  0.3836  0.3362
  126CHL1  H15A15529   2.608   4.159   4.503  0.4272  0.4581 -0.4174
  126CHL1  H15B15530   2.585   4.322   4.423 -3.1327 -1.1192 -2.0548
  126CHL1   C1615531   2.603   4.334   4.637  0.0941 -0.1624  0.3373
  126CHL1  H16A15532   2.701   4.290   4.665 -0.0286 -1.8647 -1.6480
  126CHL1  H16B15533   2.621   4.442   4.615  0.7540 -0.6752 -1.8712
  126CHL1   C1715534   2.487   4.327   4.742  0.2897  0.3297  0.1007
  126CHL1   H1715535   2.432   4.423   4.733 -0.8456 -0.1317  1.6051
  126CHL1   C1315536   2.379   4.231   4.685 -0.2204  0.2315  0.2249
  126CHL1   C1815537   2.425   4.087   4.719 -0.1790  0.7416 -0.8059
  126CHL1  H18A15538   2.402   4.057   4.823 -1.6495 -0.2387 -1.3904
  126CHL1  H18B15539   2.382   4.005   4.659  2.6469 -2.4058  1.1120
  126CHL1  H18C15540   2.534   4.067   4.707 -0.5327 -1.6434 -0.5212
  126CHL1   C1215541   2.231   4.272   4.702  1.2789  0.2816  0.7112
  126CHL1  H12A15542   2.195   4.271   4.807 -2.1332  2.2704 -0.3021
  126CHL1  H12B15543   2.203   4.365   4.650  2.3033  0.4639  0.4607
  126CHL1   C1115544   2.152   4.162   4.622 -0.2055 -0.4799  0.0691
  126CHL1  H11A15545   2.176   4.059   4.654  0.9173 -0.2781 -0.1047
  126CHL1  H11B15546   2.045   4.177   4.649 -0.2067 -2.3131  1.2215
  126CHL1    C915547   2.178   4.162   4.465  0.3769  0.1882 -0.1104
  126CHL1    H915548   2.153   4.267   4.436 -2.9341 -0.1936  1.0028
  126CHL1   C1015549   2.084   4.075   4.384 -0.3117 -0.1420  0.2335
  126CHL1   C1915550   2.092   3.927   4.431 -0.6360 -0.2198 -0.3407
  126CHL1  H19A15551   2.040   3.920   4.529 -0.7946  0.3008 -0.3878
  126CHL1  H19B15552   2.032   3.862   4.365 -0.5957 -1.3781  0.7149
  126CHL1  H19C15553   2.197   3.892   4.439  0.1628  2.0244 -0.2849
  126CHL1    C115554   1.938   4.118   4.411  0.0534 -0.2588 -0.5734
  126CHL1   H1A15555   1.908   4.077   4.510 -1.3551  2.5661  0.2617
  126CHL1   H1B15556   1.935   4.229   4.401  1.5598 -0.2057 -0.6642
  126CHL1    C215557   1.847   4.059   4.300 -0.0994  0.2776  0.0834
  126CHL1   H2A15558   1.744   4.099   4.311  0.3195  1.1524  1.0068
  126CHL1   H2B15559   1.823   3.952   4.320 -2.3491  0.5931 -0.6700
  126CHL1   C2015560   2.539   4.310   4.888 -0.1602  0.1230 -0.4772
  126CHL1   H2015561   2.581   4.207   4.890 -2.6008 -0.9186  1.1632
  126CHL1   C2115562   2.424   4.314   4.985 -0.0811  0.2100 -0.4212
  126CHL1  H21A15563   2.346   4.237   4.968  1.4634 -1.5220 -0.0364
  126CHL1  H21B15564   2.373   4.411   4.970 -0.1272  0.0602 -1.3017
  126CHL1  H21C15565   2.448   4.290   5.091 -1.8871 -1.2593 -0.2809
  126CHL1   C2215566   2.655   4.409   4.925  0.1138 -0.0201 -0.6142
  126CHL1  H22A15567   2.736   4.412   4.850  2.5274  2.0416  1.8553
  126CHL1  H22B15568   2.604   4.507   4.928  0.0817 -0.0439 -0.3518
  126CHL1   C2315569   2.717   4.387   5.067 -0.2369 -0.1633 -0.7252
  126CHL1  H23A15570   2.655   4.416   5.154 -0.1734 -1.0054 -0.3827
  126CHL1  H23B15571   2.742   4.279   5.072 -3.0297 -0.9544 -1.6343
  126CHL1   C2415572   2.843   4.478   5.075  0.7068  0.2161 -0.5224
  126CHL1  H24A15573   2.915   4.448   4.996  0.9039  0.1152 -0.3050
  126CHL1  H24B15574   2.817   4.584   5.052 -1.2030  0.4371  2.2001
  126CHL1   C2515575   2.914   4.491   5.214  0.3655 -0.1960  0.3058
  126CHL1   H2515576   2.833   4.513   5.287 -1.0039 -0.4646 -1.0652
  126CHL1   C2615577   2.974   4.357   5.259  0.2982  0.5041 -0.3178
  126CHL1  H26A15578   3.039   4.374   5.348  0.3766  0.7044 -0.4095
  126CHL1  H26B15579   2.896   4.289   5.298  0.0576  0.2791 -1.1754
  126CHL1  H26C15580   3.027   4.298   5.181 -1.3836  0.8102 -1.7447
  126CHL1   C2715581   3.016   4.595   5.214 -0.1568 -0.0907  0.3394
  126CHL1  H27A15582   3.107   4.567   5.155 -1.8067 -0.4656 -2.1967
  126CHL1  H27B15583   2.963   4.686   5.179  0.1723  0.0073  0.0844
  126CHL1  H27C15584   3.056   4.608   5.317 -0.4254 -0.6840  0.5217
  127CHL1    C315585   2.978   5.621   4.569  0.0331 -0.5476  0.2210
  127CHL1    H315586   3.061   5.686   4.604  1.5731 -2.3425  0.0686
  127CHL1    O315587   2.996   5.612   4.420 -0.5917 -0.2859 -0.3235
  127CHL1   H3'15588   2.951   5.533   4.391 -2.2577  0.1278  0.9650
  127CHL1    C415589   2.993   5.485   4.636 -0.2082  0.1606 -0.2915
  127CHL1   H4A15590   2.928   5.413   4.582 -0.3505 -0.5482  0.8096
  127CHL1   H4B15591   3.100   5.459   4.626 -0.1216  1.0142 -1.9213
  127CHL1    C515592   2.959   5.487   4.783 -0.8462  0.0291 -0.4951
  127CHL1    C615593   3.040   5.441   4.878  0.1801 -0.0774 -0.0594
  127CHL1    H615594   3.130   5.386   4.849 -0.9495 -0.4532 -3.2738
  127CHL1    C715595   3.008   5.459   5.025  0.4235  0.5417  0.9674
  127CHL1   H7A15596   3.034   5.367   5.080  2.1301  0.7899  0.6240
  127CHL1   H7B15597   3.062   5.540   5.078  0.2324  0.3522  1.4524
  127CHL1    C815598   2.859   5.494   5.057 -0.0997  0.2366 -0.2843
  127CHL1    H815599   2.811   5.395   5.040 -0.0521  0.2181 -0.3131
  127CHL1   C1415600   2.829   5.539   5.205 -0.5802  0.1812  1.0767
  127CHL1   H1415601   2.873   5.640   5.216  0.8355 -0.6442  3.8636
  127CHL1   C1515602   2.882   5.442   5.310  0.7582 -0.3782 -0.2391
  127CHL1  H15A15603   2.892   5.338   5.272  2.3212 -1.1897  2.1849
  127CHL1  H15B15604   2.986   5.473   5.332  0.0904  1.5694  0.3142
  127CHL1   C1615605   2.792   5.449   5.429  0.6850  0.0903  0.4827
  127CHL1  H16A15606   2.750   5.351   5.459  2.0687 -0.6286  0.1452
  127CHL1  H16B15607   2.847   5.480   5.520  0.4434  0.6894  0.4298
  127CHL1   C1715608   2.682   5.551   5.394 -0.5780 -0.1389  0.8581
  127CHL1   H1715609   2.736   5.640   5.433 -0.5205  0.7221 -1.0652
  127CHL1   C1315610   2.677   5.548   5.241  0.5150 -0.2068  0.8136
  127CHL1   C1815611   2.610   5.417   5.193  0.4145 -0.2901 -0.0504
  127CHL1  H18A15612   2.632   5.386   5.089  1.2784 -3.4518  0.9797
  127CHL1  H18B15613   2.641   5.328   5.251 -4.0778 -0.1186  3.1563
  127CHL1  H18C15614   2.499   5.419   5.205 -0.2340  1.5585 -4.2988
  127CHL1   C1215615   2.626   5.666   5.154 -0.1571  0.3163  0.0362
  127CHL1  H12A15616   2.518   5.691   5.158  0.7277  4.9857 -0.1531
  127CHL1  H12B15617   2.672   5.761   5.187 -2.1206  2.0720 -1.9015
  127CHL1   C1115618   2.654   5.637   5.001  0.8755 -0.3492  0.1994
  127CHL1  H11A15619   2.577   5.564   4.968 -0.0024  1.0154 -0.8563
  127CHL1  H11B15620   2.625   5.723   4.936  0.9007  1.5391  2.5427
  127CHL1    C915621   2.802   5.601   4.965 -0.7852 -0.7409  0.5698
  127CHL1    H915622   2.861   5.695   4.970 -1.5399  0.1876 -3.7011
  127CHL1   C1015623   2.825   5.555   4.818 -0.4264 -0.4828 -0.0026
  127CHL1   C1915624   2.711   5.456   4.777 -0.0013 -0.2325 -0.6672
  127CHL1  H19A15625   2.729   5.367   4.842 -1.3166 -0.3831 -0.4880
  127CHL1  H19B15626   2.608   5.492   4.798  0.3315 -0.1312  0.9328
  127CHL1  H19C15627   2.722   5.427   4.670  0.0267 -0.7868 -0.5212
  127CHL1    C115628   2.809   5.688   4.739 -0.0488  0.8089  0.1970
  127CHL1   H1A15629   2.707   5.729   4.753 -0.4905  0.0061 -0.5881
  127CHL1   H1B15630   2.873   5.769   4.781 -2.3135  2.2925  0.9791
  127CHL1    C215631   2.841   5.679   4.589  0.5830  0.9473 -0.1533
  127CHL1   H2A15632   2.833   5.775   4.534  2.0187  0.8982 -0.4694
  127CHL1   H2B15633   2.763   5.613   4.544  0.2510  0.9914  0.3555
  127CHL1   C2015634   2.546   5.531   5.468  0.5623 -0.5904  0.0425
  127CHL1   H2015635   2.511   5.426   5.463 -1.3155  0.0310 -0.9257
  127CHL1   C2115636   2.429   5.623   5.404  0.0518  0.8665  0.4479
  127CHL1  H21A15637   2.403   5.577   5.307  1.8949  1.5380 -0.4225
  127CHL1  H21B15638   2.469   5.725   5.389  0.0155  0.7378 -0.6416
  127CHL1  H21C15639   2.340   5.620   5.470 -1.1816 -1.4080 -1.1566
  127CHL1   C2215640   2.574   5.558   5.620 -0.0992  0.0014 -0.1602
  127CHL1  H22A15641   2.660   5.500   5.658 -0.4067  0.6667  1.6445
  127CHL1  H22B15642   2.603   5.665   5.632  1.9343 -0.6710  1.1997
  127CHL1   C2315643   2.455   5.529   5.709  0.0328  0.3180  0.8004
  127CHL1  H23A15644   2.373   5.603   5.695 -1.2328 -0.7329  2.3148
  127CHL1  H23B15645   2.409   5.432   5.679 -0.6476  1.2334 -1.2360
  127CHL1   C2415646   2.499   5.544   5.848 -0.4539  0.5168  0.5927
  127CHL1  H24A15647   2.563   5.458   5.879 -0.1865 -0.0936 -1.5144
  127CHL1  H24B15648   2.575   5.624   5.850  2.2935 -1.8085 -2.1937
  127CHL1   C2515649   2.388   5.548   5.962 -0.5558  0.1086 -0.4383
  127CHL1   H2515650   2.324   5.459   5.945  2.7497 -2.3227 -1.1462
  127CHL1   C2615651   2.446   5.527   6.100  0.3749 -0.2376 -0.5649
  127CHL1  H26A15652   2.518   5.610   6.117 -2.2403  2.1150 -0.4002
  127CHL1  H26B15653   2.367   5.531   6.178  1.6799 -0.8571  0.8613
  127CHL1  H26C15654   2.484   5.424   6.119 -2.4084 -1.3955 -0.8088
  127CHL1   C2715655   2.307   5.683   5.965 -0.3010  0.5370 -0.1419
  127CHL1  H27A15656   2.218   5.663   6.029 -0.7417  2.1611 -0.2189
  127CHL1  H27B15657   2.373   5.757   6.014  3.2067 -1.8247 -0.9320
  127CHL1  H27C15658   2.281   5.713   5.861  1.9132  3.4438  0.0334
  128CHL1    C315659   1.829   1.351   5.057  0.6330  0.5824  0.6599
  128CHL1    H315660   1.908   1.427   5.075  0.6091  0.7532  0.0622
  128CHL1    O315661   1.798   1.328   4.920 -0.6635  0.7742 -0.0648
  128CHL1   H3'15662   1.745   1.249   4.917  0.9459 -0.3911  0.5301
  128CHL1    C415663   1.891   1.218   5.102  0.0123  0.1919  0.0716
  128CHL1   H4A15664   1.817   1.141   5.071 -0.1376  1.1991 -2.3393
  128CHL1   H4B15665   1.985   1.200   5.046 -0.2237 -0.5101 -0.1000
  128CHL1    C515666   1.921   1.211   5.253 -0.4519  0.5199 -0.5197
  128CHL1    C615667   2.043   1.181   5.298 -0.1904 -0.5714 -0.2110
  128CHL1    H615668   2.133   1.168   5.235  0.3198  0.5854  0.2424
  128CHL1    C715669   2.064   1.164   5.449  0.6878  0.3238 -0.3004
  128CHL1   H7A15670   2.115   1.072   5.481 -2.5375 -0.4640  3.2824
  128CHL1   H7B15671   2.132   1.246   5.480 -0.2373  1.5865 -1.4344
  128CHL1    C815672   1.937   1.174   5.541 -0.7686 -0.4727  0.0787
  128CHL1    H815673   1.891   1.074   5.547 -0.0206 -1.0061 -2.1111
  128CHL1   C1415674   1.968   1.209   5.686  0.0757 -0.2583  0.8635
  128CHL1   H1415675   2.018   1.308   5.676  0.6570 -0.5687  0.6034
  128CHL1   C1515676   2.071   1.128   5.755 -0.1304  0.0646  0.3147
  128CHL1  H15A15677   2.044   1.022   5.735 -1.6730  0.5466 -0.3056
  128CHL1  H15B15678   2.177   1.140   5.723 -0.1456 -1.0426 -0.2183
  128CHL1   C1615679   2.065   1.164   5.907 -0.0972 -0.0554  0.3991
  128CHL1  H16A15680   2.082   1.072   5.967  0.3134 -0.1088  0.2068
  128CHL1  H16B15681   2.140   1.244   5.929  0.5452  0.2061 -2.3878
  128CHL1   C1715682   1.927   1.230   5.912  0.8024 -0.8106 -0.5069
  128CHL1   H1715683   1.944   1.340   5.913 -0.5927 -0.5312 -2.3110
  128CHL1   C1315684   1.849   1.212   5.779 -0.3111  0.0868  0.4733
  128CHL1   C1815685   1.781   1.074   5.794  0.3706  0.8634 -0.2730
  128CHL1  H18A15686   1.858   1.003   5.830  1.4478  2.1964  0.1389
  128CHL1  H18B15687   1.692   1.060   5.860 -1.6727 -0.8909 -3.1874
  128CHL1  H18C15688   1.746   1.024   5.701 -1.0687  0.9630  0.1835
  128CHL1   C1215689   1.763   1.326   5.733 -0.0141  0.0803 -0.2628
  128CHL1  H12A15690   1.667   1.347   5.783  0.3423  0.1402  0.4048
  128CHL1  H12B15691   1.831   1.414   5.737  1.3078 -0.9476  1.5243
  128CHL1   C1115692   1.722   1.309   5.585 -0.9570 -0.1494 -0.1716
  128CHL1  H11A15693   1.650   1.224   5.579 -0.2622 -0.7306 -0.3385
  128CHL1  H11B15694   1.669   1.400   5.548 -0.9651 -0.0606  0.0569
  128CHL1    C915695   1.838   1.273   5.496  0.5140  0.6507  0.0380
  128CHL1    H915696   1.897   1.367   5.486  0.0114  0.8054 -1.9743
  128CHL1   C1015697   1.799   1.247   5.347  0.9215  0.1195 -0.2042
  128CHL1   C1915698   1.692   1.138   5.339  0.7441 -0.4364  0.5417
  128CHL1  H19A15699   1.720   1.046   5.394 -1.9382 -0.9247  1.2333
  128CHL1  H19B15700   1.600   1.161   5.396  0.3889 -1.7152  0.5142
  128CHL1  H19C15701   1.662   1.123   5.233 -0.8045 -1.9841  1.1491
  128CHL1    C115702   1.729   1.376   5.289 -0.9873  0.0785  0.1499
  128CHL1   H1A15703   1.630   1.386   5.339 -1.6704 -0.5740 -1.0022
  128CHL1   H1B15704   1.787   1.468   5.308 -0.1883  0.1748 -2.4597
  128CHL1    C215705   1.701   1.375   5.138  0.5796 -0.1249 -0.1018
  128CHL1   H2A15706   1.661   1.474   5.108  1.4940  0.2070 -0.2540
  128CHL1   H2B15707   1.622   1.298   5.124 -0.3742  0.6363  0.9441
  128CHL1   C2015708   1.856   1.198   6.052 -0.3360 -0.6980 -0.5965
  128CHL1   H2015709   1.818   1.094   6.051  0.7788 -1.1930  1.5991
  128CHL1   C2115710   1.722   1.282   6.072 -0.5931  0.2355  0.6329
  128CHL1  H21A15711   1.676   1.259   6.171  2.7145  1.8056  2.6914
  128CHL1  H21B15712   1.654   1.247   5.992 -0.4655 -0.3607  0.7791
  128CHL1  H21C15713   1.749   1.389   6.063  0.0947 -0.0203 -0.4257
  128CHL1   C2215714   1.946   1.213   6.177 -0.1003  0.1577 -0.1416
  128CHL1  H22A15715   1.871   1.195   6.257 -1.4812  1.5085 -1.0726
  128CHL1  H22B15716   2.028   1.137   6.174  0.3904  0.4463  2.9461
  128CHL1   C2315717   2.004   1.345   6.200  0.1830 -0.0719  0.2634
  128CHL1  H23A15718   2.084   1.369   6.127  0.0530 -0.4900 -0.0158
  128CHL1  H23B15719   1.924   1.422   6.194 -1.1132 -1.3474  0.5445
  128CHL1   C2415720   2.060   1.354   6.348  0.1563 -0.4247  0.6617
  128CHL1  H24A15721   1.969   1.352   6.412 -0.6164 -1.2093 -0.4296
  128CHL1  H24B15722   2.125   1.266   6.366 -1.0222 -2.0119 -2.2176
  128CHL1   C2515723   2.137   1.483   6.392  0.3143  0.7870 -0.3278
  128CHL1   H2515724   2.210   1.506   6.311  1.5577  1.7598  0.9958
  128CHL1   C2615725   2.042   1.604   6.401 -0.2479  0.3079  0.4198
  128CHL1  H26A15726   2.089   1.699   6.433 -2.3308  2.2705 -1.9032
  128CHL1  H26B15727   1.995   1.618   6.301  0.5957 -1.6509 -0.2950
  128CHL1  H26C15728   1.958   1.577   6.467 -1.6356  0.5543 -1.1825
  128CHL1   C2715729   2.207   1.463   6.524  0.2308  0.3094  0.5340
  128CHL1  H27A15730   2.146   1.415   6.604  1.0908 -0.3386  0.8202
  128CHL1  H27B15731   2.294   1.394   6.512  0.2458  0.5576 -0.8292
  128CHL1  H27C15732   2.241   1.559   6.566  2.2277 -0.1910  0.1469
  129CHL1    C315733   5.303   5.626   4.174  0.3215 -0.3979 -0.0440
  129CHL1    H315734   5.196   5.655   4.181  0.5982  1.4274 -2.1045
  129CHL1    O315735   5.359   5.647   4.043  0.3388  0.6052  0.3657
  129CHL1   H3'15736   5.383   5.740   4.049 -0.2340  0.6783  1.8217
  129CHL1    C415737   5.372   5.716   4.284 -0.1043 -0.1586  0.6642
  129CHL1   H4A15738   5.481   5.697   4.286 -0.0418  0.0588 -0.1345
  129CHL1   H4B15739   5.362   5.824   4.258 -1.6176 -0.3954  0.1456
  129CHL1    C515740   5.315   5.678   4.416 -0.2457 -0.5215 -0.0516
  129CHL1    C615741   5.241   5.771   4.485  0.0751  0.5181 -0.0360
  129CHL1    H615742   5.231   5.873   4.446  0.7304  1.6025  2.4595
  129CHL1    C715743   5.180   5.738   4.613 -0.0520  0.1343 -0.3197
  129CHL1   H7A15744   5.170   5.824   4.682 -1.3034  0.4534 -0.8642
  129CHL1   H7B15745   5.073   5.707   4.604 -0.4272  0.7104  1.6804
  129CHL1    C815746   5.246   5.619   4.685 -0.1793  0.4729 -0.3587
  129CHL1    H815747   5.349   5.651   4.710 -0.8208  0.1911  3.1400
  129CHL1   C1415748   5.179   5.583   4.821 -0.6158  0.0214  0.2075
  129CHL1   H1415749   5.077   5.565   4.780 -0.9631  0.8387  0.6831
  129CHL1   C1515750   5.162   5.699   4.920  0.1102 -0.1364  0.4725
  129CHL1  H15A15751   5.254   5.761   4.925 -0.1258  0.2956 -0.3567
  129CHL1  H15B15752   5.076   5.761   4.888  1.0543  0.9076 -0.0913
  129CHL1   C1615753   5.133   5.623   5.049 -0.6858  0.0540  0.2193
  129CHL1  H16A15754   5.205   5.656   5.127  0.7695  2.0513 -1.8459
  129CHL1  H16B15755   5.027   5.640   5.078 -0.9510  0.8101 -1.1237
  129CHL1   C1715756   5.145   5.468   5.026  0.3996  0.2136  0.5666
  129CHL1   H1715757   5.044   5.443   4.985  1.4872 -0.9928 -1.5831
  129CHL1   C1315758   5.227   5.460   4.891 -0.4915 -0.1184  0.4512
  129CHL1   C1815759   5.376   5.483   4.936  0.0298 -0.8942  0.5583
  129CHL1  H18A15760   5.410   5.404   5.006 -1.0778 -1.1734  0.8048
  129CHL1  H18B15761   5.446   5.485   4.851 -0.6380 -1.1163 -0.0101
  129CHL1  H18C15762   5.378   5.586   4.977  0.4328  0.3958 -2.4219
  129CHL1   C1215763   5.203   5.349   4.792 -0.6945  0.4325 -0.5281
  129CHL1  H12A15764   5.238   5.252   4.832 -0.2786 -0.1354 -2.1980
  129CHL1  H12B15765   5.094   5.335   4.771 -0.5520 -0.3582 -0.7930
  129CHL1   C1115766   5.276   5.362   4.656 -0.2037 -0.2420  0.0501
  129CHL1  H11A15767   5.381   5.351   4.692 -0.3900 -2.1864  0.0782
  129CHL1  H11B15768   5.257   5.287   4.577 -1.0767 -1.5155  1.4143
  129CHL1    C915769   5.251   5.499   4.588 -0.0000 -0.2035  0.4855
  129CHL1    H915770   5.145   5.482   4.558 -1.0449  2.2947  2.4027
  129CHL1   C1015771   5.331   5.531   4.459 -0.3951  0.0180 -0.2747
  129CHL1   C1915772   5.480   5.498   4.476 -0.0165 -0.3495 -0.7731
  129CHL1  H19A15773   5.518   5.523   4.577 -0.3317 -1.6025 -0.3226
  129CHL1  H19B15774   5.496   5.388   4.472  0.3308 -0.3364  0.1029
  129CHL1  H19C15775   5.537   5.546   4.393 -1.8061 -0.6379 -2.2473
  129CHL1    C115776   5.269   5.439   4.345 -0.1716 -1.0641  0.1624
  129CHL1   H1A15777   5.311   5.337   4.359  0.9453 -0.4417  1.5267
  129CHL1   H1B15778   5.159   5.433   4.352 -0.2090 -0.1425  0.5223
  129CHL1    C215779   5.327   5.476   4.201 -0.3069 -0.4141 -0.0982
  129CHL1   H2A15780   5.280   5.422   4.116  1.3511 -1.3906 -0.4320
  129CHL1   H2B15781   5.437   5.459   4.199 -0.1508  0.5700 -0.6866
  129CHL1   C2015782   5.173   5.379   5.149 -0.4928 -0.7322  0.4624
  129CHL1   H2015783   5.281   5.377   5.172  0.1946  2.2993 -1.9219
  129CHL1   C2115784   5.126   5.236   5.118  0.3628  0.7530  0.0507
  129CHL1  H21A15785   5.180   5.189   5.033  1.4826  0.5443  0.8489
  129CHL1  H21B15786   5.016   5.234   5.107  0.3136 -3.1070 -0.2646
  129CHL1  H21C15787   5.136   5.169   5.206 -1.2950  0.5368  0.0956
  129CHL1   C2215788   5.116   5.434   5.277  0.5514 -0.2722 -0.0410
  129CHL1  H22A15789   5.143   5.538   5.309  1.8854 -1.1185  1.7907
  129CHL1  H22B15790   5.006   5.429   5.263  0.2290  2.0377  1.0926
  129CHL1   C2315791   5.147   5.351   5.405  0.3408  0.0474  0.4037
  129CHL1  H23A15792   5.062   5.280   5.415 -0.3682  0.9806  1.2571
  129CHL1  H23B15793   5.250   5.311   5.403  0.3764  0.1647 -0.0924
  129CHL1   C2415794   5.151   5.452   5.520  0.2628 -0.2392 -0.3212
  129CHL1  H24A15795   5.237   5.517   5.497  1.1746 -1.0176  0.7836
  129CHL1  H24B15796   5.056   5.509   5.510 -0.5398 -1.4564  0.1472
  129CHL1   C2515797   5.162   5.400   5.663 -0.3919 -0.3030 -0.1233
  129CHL1   H2515798   5.258   5.344   5.673 -0.3647 -0.4787 -1.2258
  129CHL1   C2615799   5.182   5.516   5.767 -0.1622  0.2813 -0.2217
  129CHL1  H26A15800   5.205   5.474   5.868 -1.2267  0.5865  0.1589
  129CHL1  H26B15801   5.272   5.579   5.748 -0.5277  0.4300 -1.5357
  129CHL1  H26C15802   5.085   5.570   5.769  0.0326  0.7440  3.2303
  129CHL1   C2715803   5.046   5.310   5.706 -0.3890 -0.1565 -0.1592
  129CHL1  H27A15804   5.070   5.214   5.655  0.1190  0.3078 -0.8199
  129CHL1  H27B15805   5.036   5.295   5.815 -3.5151 -1.5596 -0.5344
  129CHL1  H27C15806   4.944   5.345   5.677 -1.2364 -1.7029  0.8273
  130CHL1    C315807   2.520   5.862   4.163  0.0344  0.0881  0.2044
  130CHL1    H315808   2.458   5.791   4.105 -0.4218  0.4754  0.2118
  130CHL1    O315809   2.608   5.929   4.078 -0.1196 -0.2516  0.1435
  130CHL1   H3'15810   2.647   6.003   4.125 -0.6187  0.0976  0.0190
  130CHL1    C415811   2.426   5.970   4.230  0.3320  0.0217  0.0788
  130CHL1   H4A15812   2.488   6.055   4.264 -0.5554  0.1795  1.3873
  130CHL1   H4B15813   2.355   6.010   4.155 -2.2469 -1.8390  1.3537
  130CHL1    C515814   2.342   5.903   4.337  0.3305  0.0730  0.0111
  130CHL1    C615815   2.208   5.922   4.334  0.2248  0.0217 -0.1732
  130CHL1    H615816   2.161   5.968   4.247 -0.9776  0.4306  0.6691
  130CHL1    C715817   2.124   5.886   4.451  0.2318  0.3005  0.7282
  130CHL1   H7A15818   2.056   5.969   4.478 -0.2684 -0.6046  2.3161
  130CHL1   H7B15819   2.058   5.802   4.419  0.2399  0.7478 -0.5549
  130CHL1    C815820   2.203   5.846   4.581  0.0205 -0.4045  0.2792
  130CHL1    H815821   2.230   5.939   4.636  0.4075 -0.0013 -0.5606
  130CHL1   C1415822   2.109   5.768   4.668 -0.2845  0.0292 -0.0378
  130CHL1   H1415823   2.093   5.674   4.610  1.5235 -1.2718  1.4254
  130CHL1   C1515824   1.970   5.824   4.704 -0.0667  0.4780 -0.2993
  130CHL1  H15A15825   1.972   5.924   4.753 -2.5182  0.8730 -0.8638
  130CHL1  H15B15826   1.899   5.806   4.621 -0.4200 -1.5468  0.3767
  130CHL1   C1615827   1.926   5.722   4.813  0.3299  0.6854 -0.1622
  130CHL1  H16A15828   1.867   5.773   4.892  0.6993 -2.0409  2.0604
  130CHL1  H16B15829   1.860   5.644   4.769  2.3660 -2.0475  1.2392
  130CHL1   C1715830   2.055   5.657   4.870 -0.0029  0.0448 -0.1266
  130CHL1   H1715831   2.057   5.559   4.819 -0.6185 -0.0291 -0.0191
  130CHL1   C1315832   2.179   5.725   4.802  0.0124 -0.9907 -0.4226
  130CHL1   C1815833   2.224   5.846   4.888  0.1147  0.0278  0.0526
  130CHL1  H18A15834   2.266   5.814   4.986 -1.7302 -0.2609  0.7918
  130CHL1  H18B15835   2.304   5.892   4.826 -0.5703 -2.4018 -2.8783
  130CHL1  H18C15836   2.136   5.912   4.900 -0.8385 -0.7333 -2.1946
  130CHL1   C1215837   2.297   5.632   4.772  0.0708  0.2686 -0.2505
  130CHL1  H12A15838   2.347   5.609   4.868  0.2331 -0.3100 -0.4679
  130CHL1  H12B15839   2.251   5.537   4.739  1.8929 -0.4947 -0.7263
  130CHL1   C1115840   2.391   5.691   4.666 -0.3252 -0.1431  0.0419
  130CHL1  H11A15841   2.458   5.757   4.724 -0.5674 -0.7393  1.0119
  130CHL1  H11B15842   2.454   5.613   4.617 -0.3218  0.9360 -1.7869
  130CHL1    C915843   2.325   5.758   4.543 -0.6220  0.3293 -0.0601
  130CHL1    H915844   2.281   5.673   4.487  1.1194 -0.8685  0.2911
  130CHL1   C1015845   2.418   5.836   4.449  0.4463 -0.0367 -0.6231
  130CHL1   C1915846   2.487   5.938   4.536  0.3248  0.2809 -0.2144
  130CHL1  H19A15847   2.429   5.977   4.622  0.7307 -0.2702  0.3156
  130CHL1  H19B15848   2.582   5.897   4.576  1.0555  1.1356 -1.0128
  130CHL1  H19C15849   2.518   6.026   4.475 -2.0412  0.9811 -0.5324
  130CHL1    C115850   2.516   5.740   4.378  0.6812 -0.2277 -1.2277
  130CHL1   H1A15851   2.576   5.705   4.464 -1.1745 -0.3772  0.0520
  130CHL1   H1B15852   2.461   5.653   4.335 -1.5577  0.3025  0.3969
  130CHL1    C215853   2.604   5.795   4.268 -0.3912  0.1385 -0.7752
  130CHL1   H2A15854   2.668   5.717   4.221  0.2510 -1.6994  2.8305
  130CHL1   H2B15855   2.679   5.863   4.314 -0.2491 -2.2271  2.8099
  130CHL1   C2015856   2.063   5.619   5.022 -0.1624 -0.0400  0.2862
  130CHL1   H2015857   2.168   5.587   5.036 -1.0136 -3.5762 -0.2915
  130CHL1   C2115858   1.974   5.492   5.034 -0.1289 -0.1119  0.0561
  130CHL1  H21A15859   1.980   5.446   5.135  2.0148 -0.1628 -0.0604
  130CHL1  H21B15860   2.006   5.420   4.956  1.7968  2.0884 -1.3107
  130CHL1  H21C15861   1.868   5.522   5.015 -0.4557 -1.6235 -0.6606
  130CHL1   C2215862   2.018   5.723   5.127  0.1700  0.6901  0.0628
  130CHL1  H22A15863   2.058   5.827   5.116  1.3140  0.1839 -0.8278
  130CHL1  H22B15864   1.913   5.744   5.097  0.3183  2.9590  0.8932
  130CHL1   C2315865   2.027   5.675   5.273  0.1325 -0.4741 -0.1303
  130CHL1  H23A15866   1.943   5.604   5.290 -0.1179 -0.5955 -1.7853
  130CHL1  H23B15867   2.121   5.625   5.305 -0.1965 -0.8791  0.2190
  130CHL1   C2415868   1.997   5.796   5.361  0.3138 -0.4645  0.4249
  130CHL1  H24A15869   2.085   5.863   5.353  1.0078 -1.1741  1.8639
  130CHL1  H24B15870   1.910   5.852   5.318  0.2605 -0.6809  0.2461
  130CHL1   C2515871   1.961   5.769   5.505  0.2660  0.1496  0.2080
  130CHL1   H2515872   1.875   5.699   5.501  1.1720 -1.4348  3.8812
  130CHL1   C2615873   2.066   5.686   5.583  0.0130  0.1120  0.1092
  130CHL1  H26A15874   2.158   5.746   5.602 -1.4421  2.1887  1.0542
  130CHL1  H26B15875   2.028   5.653   5.682 -0.8240 -0.6850 -0.4616
  130CHL1  H26C15876   2.089   5.600   5.517  0.5856 -0.0908  0.5581
  130CHL1   C2715877   1.930   5.891   5.581 -0.1279  0.0500 -0.2414
  130CHL1  H27A15878   1.852   5.950   5.529  1.2100 -0.0628 -2.5282
  130CHL1  H27B15879   1.916   5.865   5.688  1.2871 -2.2734 -0.5485
  130CHL1  H27C15880   2.021   5.953   5.590  1.6848 -2.2795 -1.4333
  131CHL1    C315881   0.399   4.483   4.973 -0.3651  0.3011 -0.1963
  131CHL1    H315882   0.487   4.415   4.981 -1.7896 -1.4512  1.6860
  131CHL1    O315883   0.374   4.507   4.838  0.0046 -0.0031  0.0329
  131CHL1   H3'15884   0.445   4.566   4.810 -1.4582  2.3869  1.0025
  131CHL1    C415885   0.277   4.408   5.036 -0.4593 -0.1404  0.3516
  131CHL1   H4A15886   0.191   4.477   5.023  0.3537  0.4652 -2.5027
  131CHL1   H4B15887   0.254   4.319   4.973  0.6360 -0.1800 -0.0111
  131CHL1    C515888   0.304   4.374   5.178  0.2136  0.1967 -0.2188
  131CHL1    C615889   0.291   4.247   5.218  0.4445  0.5372 -0.5245
  131CHL1    H615890   0.243   4.174   5.151 -1.3173  1.1497  0.0212
  131CHL1    C715891   0.300   4.214   5.362 -0.2612 -0.0649 -0.1757
  131CHL1   H7A15892   0.209   4.157   5.391  0.4865 -0.7488  0.9064
  131CHL1   H7B15893   0.387   4.147   5.379  1.0614  1.3017 -1.3352
  131CHL1    C815894   0.321   4.334   5.457 -0.1643 -0.1832  0.1584
  131CHL1    H815895   0.221   4.377   5.476 -0.2694  2.0734 -4.3175
  131CHL1   C1415896   0.390   4.283   5.584 -0.1502  0.1835  0.2136
  131CHL1   H1415897   0.497   4.273   5.554 -0.2152  1.6897 -0.6274
  131CHL1   C1515898   0.347   4.154   5.649  0.6556  0.1783 -0.2789
  131CHL1  H15A15899   0.239   4.132   5.636  0.4287  0.5877  0.8691
  131CHL1  H15B15900   0.409   4.067   5.619 -0.5414 -1.0149  0.5797
  131CHL1   C1615901   0.367   4.181   5.798  0.4071  0.2075  0.0345
  131CHL1  H16A15902   0.273   4.192   5.855  0.9290 -0.6772  1.0863
  131CHL1  H16B15903   0.430   4.102   5.844  1.3203  0.4267 -0.7845
  131CHL1   C1715904   0.447   4.314   5.814  0.3508 -0.0405 -0.3026
  131CHL1   H1715905   0.550   4.281   5.787 -0.1164  0.5950 -3.2995
  131CHL1   C1315906   0.391   4.389   5.689 -0.3124 -0.4632  0.0551
  131CHL1   C1815907   0.253   4.438   5.724 -0.0539 -0.2147  0.0209
  131CHL1  H18A15908   0.194   4.347   5.744  0.6163  0.0642  4.0912
  131CHL1  H18B15909   0.241   4.501   5.815 -3.1954 -0.1563 -0.3155
  131CHL1  H18C15910   0.207   4.502   5.644 -1.4267 -2.2819 -0.9281
  131CHL1   C1215911   0.473   4.510   5.626 -0.0789  0.7742 -1.2129
  131CHL1  H12A15912   0.488   4.589   5.703 -0.3312  0.3705 -0.7457
  131CHL1  H12B15913   0.578   4.478   5.610 -0.0564 -1.6572  2.4916
  131CHL1   C1115914   0.420   4.567   5.494 -1.0543  0.2377 -0.3336
  131CHL1  H11A15915   0.330   4.622   5.529  0.5778  2.0963  1.2150
  131CHL1  H11B15916   0.497   4.638   5.459 -1.5509  0.9799  0.0403
  131CHL1    C915917   0.404   4.450   5.401 -0.1339 -0.2249  0.6254
  131CHL1    H915918   0.505   4.410   5.381  1.4058  2.2375  2.8046
  131CHL1   C1015919   0.343   4.489   5.265  0.4040 -0.1424  0.2695
  131CHL1   C1915920   0.214   4.567   5.295 -0.0620 -0.0319  0.0277
  131CHL1  H19A15921   0.238   4.664   5.344  3.4533  0.1509 -1.7136
  131CHL1  H19B15922   0.156   4.594   5.205 -1.6011 -0.4757  0.8410
  131CHL1  H19C15923   0.134   4.513   5.351 -1.0828  0.1044 -1.2551
  131CHL1    C115924   0.449   4.575   5.199  0.4724  0.6499  0.3377
  131CHL1   H1A15925   0.454   4.672   5.254  2.5374 -0.4087  2.1552
  131CHL1   H1B15926   0.549   4.527   5.208  0.0401 -0.2960  0.2162
  131CHL1    C215927   0.431   4.610   5.051 -0.1774 -0.4822 -0.9102
  131CHL1   H2A15928   0.524   4.654   5.010  1.3837 -3.7642 -1.2419
  131CHL1   H2B15929   0.352   4.688   5.043 -0.0222 -0.4049 -1.8751
  131CHL1   C2015930   0.447   4.378   5.956  0.8918 -0.7258 -0.0919
  131CHL1   H2015931   0.340   4.397   5.982  0.8356  1.5905 -1.6892
  131CHL1   C2115932   0.503   4.522   5.955  0.0325 -0.3852  0.1259
  131CHL1  H21A15933   0.443   4.588   5.888 -3.5311 -2.9545  0.4886
  131CHL1  H21B15934   0.606   4.517   5.914 -0.1777 -0.1343 -0.4568
  131CHL1  H21C15935   0.497   4.576   6.051  0.5344  0.0554 -0.0854
  131CHL1   C2215936   0.510   4.285   6.067 -0.8945  0.6933 -0.2949
  131CHL1  H22A15937   0.471   4.324   6.163 -0.9340  2.3139 -0.9364
  131CHL1  H22B15938   0.472   4.181   6.061 -1.3528  0.6789  2.0039
  131CHL1   C2315939   0.661   4.272   6.074 -0.1310 -0.4306 -0.0543
  131CHL1  H23A15940   0.696   4.167   6.092  1.7120  0.2519  0.6618
  131CHL1  H23B15941   0.690   4.299   5.970  0.2920 -1.1116 -0.1282
  131CHL1   C2415942   0.719   4.355   6.189  0.8900 -0.1745 -0.2848
  131CHL1  H24A15943   0.696   4.463   6.182 -1.8338 -0.6192  0.5712
  131CHL1  H24B15944   0.669   4.322   6.283  0.7647  2.4605  0.6704
  131CHL1   C2515945   0.869   4.328   6.214 -0.0454 -0.2717 -0.2967
  131CHL1   H2515946   0.879   4.220   6.237 -0.8888 -0.2754  0.0896
  131CHL1   C2615947   0.953   4.368   6.091 -0.5507 -0.1673 -0.2697
  131CHL1  H26A15948   0.935   4.474   6.066 -0.0705 -0.3262 -1.3583
  131CHL1  H26B15949   1.061   4.351   6.114 -0.9465 -1.5727  0.6623
  131CHL1  H26C15950   0.933   4.302   6.003 -0.0840  0.3432 -0.7714
  131CHL1   C2715951   0.920   4.410   6.335 -0.1065  0.0185 -0.3523
  131CHL1  H27A15952   0.861   4.385   6.426 -0.8808  0.4142 -0.7332
  131CHL1  H27B15953   1.031   4.409   6.345 -0.1776  0.8465  0.6546
  131CHL1  H27C15954   0.899   4.518   6.319 -1.4663  0.0341  1.2538
  132CHL1    C315955   3.997   6.140   4.188  0.1549  0.1378 -0.7891
  132CHL1    H315956   4.078   6.065   4.177 -0.7304 -0.7684 -1.1990
  132CHL1    O315957   3.957   6.176   4.062 -0.1636 -0.1991  0.9616
  132CHL1   H3'15958   3.898   6.251   4.075  0.2019  0.7578 -2.0788
  132CHL1    C415959   3.875   6.093   4.267  0.2862  0.5749  0.1275
  132CHL1   H4A15960   3.784   6.157   4.264  0.2315  0.4945  0.0659
  132CHL1   H4B15961   3.846   6.003   4.208  2.2972  0.7877 -1.2545
  132CHL1    C515962   3.909   6.062   4.411 -0.2872 -0.0509  0.6119
  132CHL1    C615963   3.919   5.939   4.457  0.2623 -0.0590 -0.6033
  132CHL1    H615964   3.875   5.852   4.405 -0.9587 -0.3457  0.8591
  132CHL1    C715965   3.937   5.919   4.602 -0.0528 -0.2670  0.3454
  132CHL1   H7A15966   3.862   5.847   4.643  0.7926  0.0001  2.4620
  132CHL1   H7B15967   4.032   5.866   4.624  0.0893 -0.0301  0.2987
  132CHL1    C815968   3.934   6.045   4.690 -0.1344  0.0796 -0.1859
  132CHL1    H815969   3.829   6.076   4.706  0.1602  1.7770 -1.2805
  132CHL1   C1415970   3.993   6.021   4.827  0.2220  0.3121 -0.2451
  132CHL1   H1415971   4.101   6.006   4.803  0.8448  1.5195  1.6218
  132CHL1   C1515972   3.950   5.900   4.906  0.4309  0.5742 -0.8428
  132CHL1  H15A15973   3.842   5.895   4.930  0.5591 -0.6038 -0.4538
  132CHL1  H15B15974   3.983   5.800   4.868 -2.4034 -1.2422  1.0914
  132CHL1   C1615975   4.017   5.921   5.045  0.6389  0.7933  0.1760
  132CHL1  H16A15976   3.931   5.916   5.115  0.8125  0.1580  0.3432
  132CHL1  H16B15977   4.099   5.848   5.059  0.2286  0.1440 -0.6495
  132CHL1   C1715978   4.079   6.069   5.049  0.4576  0.4839  0.3682
  132CHL1   H1715979   4.181   6.062   5.005 -0.1801  1.7493 -1.4416
  132CHL1   C1315980   4.002   6.135   4.936  0.3849  0.1740 -0.3903
  132CHL1   C1815981   3.863   6.169   4.995  0.4512 -0.6668 -0.1988
  132CHL1  H18A15982   3.803   6.206   4.909  0.2502  1.7230  0.8823
  132CHL1  H18B15983   3.804   6.087   5.041 -1.8387  2.2773  2.6468
  132CHL1  H18C15984   3.864   6.254   5.067  0.6794 -0.7649 -0.0857
  132CHL1   C1215985   4.072   6.254   4.864  0.8447 -0.2741 -0.3673
  132CHL1  H12A15986   4.088   6.348   4.922 -3.6271 -0.8321  2.2058
  132CHL1  H12B15987   4.175   6.215   4.847  1.9424  1.1031  2.5513
  132CHL1   C1115988   4.023   6.287   4.725  0.6054 -0.3135  0.9706
  132CHL1  H11A15989   3.929   6.345   4.730  0.5190 -0.4221  0.6440
  132CHL1  H11B15990   4.093   6.365   4.687  0.6822  0.1382  1.9900
  132CHL1    C915991   4.013   6.162   4.628  0.3665  0.4872  0.4870
  132CHL1    H915992   4.117   6.130   4.608 -0.1047 -0.9705  0.1847
  132CHL1   C1015993   3.958   6.190   4.484  0.0560  0.3766 -0.4549
  132CHL1   C1915994   3.852   6.305   4.491 -0.0650  0.1724 -0.6218
  132CHL1  H19A15995   3.769   6.273   4.558  2.0793 -2.8158  0.8380
  132CHL1  H19B15996   3.889   6.406   4.520  2.4753 -0.4422 -1.4782
  132CHL1  H19C15997   3.816   6.317   4.387  2.3110  0.5597 -1.4689
  132CHL1    C115998   4.086   6.238   4.409 -0.0715 -0.2119 -0.3863
  132CHL1   H1A15999   4.128   6.329   4.457 -1.1547 -0.4988  1.2079
  132CHL1   H1B16000   4.163   6.159   4.419 -1.5517 -1.4234  3.1889
  132CHL1    C216001   4.060   6.264   4.257  0.2902  0.1007  0.4762
  132CHL1   H2A16002   4.147   6.305   4.202 -1.2758  1.4252 -1.1284
  132CHL1   H2B16003   3.976   6.335   4.245  0.8637  0.5473 -1.0998
  132CHL1   C2016004   4.089   6.133   5.189 -0.4424  0.3297  0.6303
  132CHL1   H2016005   3.984   6.150   5.222 -0.4043  2.3005 -0.1426
  132CHL1   C2116006   4.157   6.268   5.186  0.2440  0.0857  0.0725
  132CHL1  H21A16007   4.262   6.255   5.151 -0.7167 -1.2572 -2.6071
  132CHL1  H21B16008   4.166   6.310   5.288  0.2749  0.0758  0.0742
  132CHL1  H21C16009   4.117   6.345   5.117  0.4199 -0.4952 -0.6989
  132CHL1   C2216010   4.157   6.040   5.295  0.4990 -0.3479 -0.4083
  132CHL1  H22A16011   4.121   5.936   5.282  1.5952 -1.0933  2.1053
  132CHL1  H22B16012   4.266   6.045   5.277  0.6372  0.0291  0.4717
  132CHL1   C2316013   4.130   6.078   5.445 -0.1315  0.4833  0.0258
  132CHL1  H23A16014   4.186   6.173   5.459  0.5695  0.5372 -2.6243
  132CHL1  H23B16015   4.020   6.089   5.456 -0.5556 -2.3749 -0.5612
  132CHL1   C2416016   4.180   5.971   5.544 -0.1274 -0.5387  0.0709
  132CHL1  H24A16017   4.130   5.872   5.535 -1.0640 -0.0410 -0.4186
  132CHL1  H24B16018   4.286   5.956   5.516  0.1126 -2.8047  1.8764
  132CHL1   C2516019   4.188   6.005   5.696 -0.5910  0.0113 -0.3445
  132CHL1   H2516020   4.089   6.038   5.734  0.3346  3.3968 -0.4749
  132CHL1   C2616021   4.224   5.876   5.775 -0.6781  0.4869 -0.1138
  132CHL1  H26A16022   4.318   5.824   5.747 -0.0157  1.9734 -0.7630
  132CHL1  H26B16023   4.218   5.887   5.886  0.2850 -2.0909  0.2749
  132CHL1  H26C16024   4.146   5.799   5.760 -0.0617 -0.3079  0.6059
  132CHL1   C2716025   4.290   6.115   5.720  0.2952  0.6491  0.0838
  132CHL1  H27A16026   4.291   6.154   5.824 -0.5644  1.0897 -0.0637
  132CHL1  H27B16027   4.389   6.075   5.688  0.5222 -0.1325  1.7013
  132CHL1  H27C16028   4.255   6.199   5.656 -1.4049 -0.9557 -1.1885
  133CHL1    C316029   0.365   1.574   4.833  0.5126  0.2651  0.9591
  133CHL1    H316030   0.422   1.481   4.855  0.3053  0.4620  2.3650
  133CHL1    O316031   0.350   1.590   4.690 -0.6324 -0.9417  0.1330
  133CHL1   H3'16032   0.301   1.672   4.682  1.9290  0.6432 -0.5088
  133CHL1    C416033   0.224   1.543   4.889  0.4593 -0.4547  0.3325
  133CHL1   H4A16034   0.172   1.635   4.853 -1.5540 -2.8353 -3.5810
  133CHL1   H4B16035   0.165   1.460   4.845 -2.3488  0.3391  2.3250
  133CHL1    C516036   0.223   1.544   5.043 -0.4770 -0.0637 -0.3561
  133CHL1    C616037   0.162   1.442   5.100  0.1797 -0.3110 -0.1317
  133CHL1    H616038   0.095   1.381   5.037  0.3984  0.4219 -1.0928
  133CHL1    C716039   0.146   1.427   5.247 -0.8814  0.7096 -0.4823
  133CHL1   H7A16040   0.044   1.396   5.277  0.1610 -2.4948  0.1430
  133CHL1   H7B16041   0.207   1.341   5.282 -0.2664  0.6184 -1.7405
  133CHL1    C816042   0.203   1.548   5.333  0.6462 -0.0275 -0.0927
  133CHL1    H816043   0.130   1.632   5.329  1.3508  0.6452  0.6971
  133CHL1   C1416044   0.227   1.505   5.479 -0.0421  0.4167 -0.3166
  133CHL1   H1416045   0.310   1.431   5.473 -0.3112  0.1839 -1.4754
  133CHL1   C1516046   0.114   1.437   5.549  0.1592  0.2687 -0.1975
  133CHL1  H15A16047   0.010   1.476   5.534 -1.6678 -4.0386 -0.0738
  133CHL1  H15B16048   0.099   1.329   5.532 -0.5206  0.2111  0.6875
  133CHL1   C1616049   0.151   1.446   5.701  0.1240 -0.2343  0.2197
  133CHL1  H16A16050   0.075   1.507   5.754  1.4866 -0.4864  2.5832
  133CHL1  H16B16051   0.158   1.349   5.753  0.9804 -0.1274  0.3164
  133CHL1   C1716052   0.279   1.532   5.705 -0.2972 -0.2443  1.1130
  133CHL1   H1716053   0.359   1.455   5.703  3.0486  2.8480  3.0181
  133CHL1   C1316054   0.283   1.613   5.569 -0.2575  0.0508 -0.4545
  133CHL1   C1816055   0.187   1.733   5.566 -0.3422  0.2685 -0.3751
  133CHL1  H18A16056   0.082   1.711   5.593  0.0463 -1.5812 -0.1942
  133CHL1  H18B16057   0.215   1.799   5.651  1.1874  0.4806 -1.0148
  133CHL1  H18C16058   0.187   1.786   5.468 -1.4789 -0.3849 -0.7486
  133CHL1   C1216059   0.422   1.660   5.513  0.4152 -0.4487 -0.5860
  133CHL1  H12A16060   0.459   1.755   5.557  0.3318 -0.8738  0.4207
  133CHL1  H12B16061   0.493   1.577   5.532  1.2293 -0.2196 -2.3750
  133CHL1   C1116062   0.422   1.688   5.359 -0.2722 -0.4122  0.1356
  133CHL1  H11A16063   0.393   1.793   5.337  0.6254 -0.2963 -0.5655
  133CHL1  H11B16064   0.530   1.681   5.333 -0.5037 -1.0748 -0.7103
  133CHL1    C916065   0.333   1.598   5.268 -0.1071  0.1089  0.4200
  133CHL1    H916066   0.398   1.508   5.264  0.4261  0.2654  3.2615
  133CHL1   C1016067   0.320   1.640   5.119 -0.3792 -0.1289 -0.4380
  133CHL1   C1916068   0.240   1.778   5.105  0.1151  0.4159  0.1926
  133CHL1  H19A16069   0.136   1.763   5.141  0.5635 -0.3657  1.2008
  133CHL1  H19B16070   0.284   1.860   5.166 -0.5957  0.4899  0.6142
  133CHL1  H19C16071   0.239   1.814   5.000 -1.8331 -1.7435 -0.6274
  133CHL1    C116072   0.460   1.653   5.045  0.5058  0.4465  0.6990
  133CHL1   H1A16073   0.524   1.724   5.102  2.6238 -0.5967 -0.2657
  133CHL1   H1B16074   0.522   1.561   5.048  0.5974  0.4783 -0.0774
  133CHL1    C216075   0.440   1.685   4.895  0.2991 -0.1183  0.1918
  133CHL1   H2A16076   0.541   1.698   4.852  0.6253  0.0736  1.0067
  133CHL1   H2B16077   0.390   1.782   4.876  0.6687 -0.3783 -2.3736
  133CHL1   C2016078   0.315   1.601   5.840 -0.4560  0.4541  0.0844
  133CHL1   H2016079   0.232   1.671   5.863  1.2307  2.5609  0.1291
  133CHL1   C2116080   0.455   1.669   5.836 -0.0660 -0.1160  0.4000
  133CHL1  H21A16081   0.531   1.616   5.775  1.9040  2.5129  0.4006
  133CHL1  H21B16082   0.501   1.695   5.934  1.8375  1.0498 -0.7347
  133CHL1  H21C16083   0.442   1.764   5.779  0.8995  0.3770  0.9734
  133CHL1   C2216084   0.305   1.503   5.963 -0.4917 -0.1333  0.2983
  133CHL1  H22A16085   0.211   1.448   5.946  0.3027 -1.3470 -0.2781
  133CHL1  H22B16086   0.389   1.433   5.944 -0.4101 -1.4460  4.4680
  133CHL1   C2316087   0.296   1.581   6.099  0.1135 -0.2545  0.3072
  133CHL1  H23A16088   0.380   1.653   6.109  1.5966 -1.7925 -0.6273
  133CHL1  H23B16089   0.206   1.646   6.099  0.8329  0.7753 -0.3406
  133CHL1   C2416090   0.299   1.497   6.230  0.0651  0.4296  0.4984
  133CHL1  H24A16091   0.220   1.420   6.221  1.8739 -1.4868  0.4921
  133CHL1  H24B16092   0.397   1.450   6.251  0.6674  0.9162 -1.0919
  133CHL1   C2516093   0.283   1.580   6.354  0.2663  0.3409  0.3507
  133CHL1   H2516094   0.178   1.617   6.347 -0.1825 -1.1856 -2.5390
  133CHL1   C2616095   0.289   1.479   6.472 -0.2893 -0.4368 -0.3510
  133CHL1  H26A16096   0.286   1.536   6.567 -0.9438 -2.2858  0.7804
  133CHL1  H26B16097   0.205   1.408   6.457 -0.0210 -0.4953 -1.7564
  133CHL1  H26C16098   0.382   1.420   6.471  0.2969  0.4154  1.0133
  133CHL1   C2716099   0.383   1.695   6.383 -0.1510 -0.6750  0.9398
  133CHL1  H27A16100   0.392   1.765   6.296 -1.0524 -2.3569 -0.5677
  133CHL1  H27B16101   0.353   1.752   6.473 -0.0624  0.9084  0.0145
  133CHL1  H27C16102   0.484   1.650   6.388  0.0575 -0.7121 -1.8414
  134CHL1    C316103   6.046   2.683   4.557  0.0589  0.3858 -0.0877
  134CHL1    H316104   5.937   2.670   4.538  0.5452 -0.7711 -2.4075
  134CHL1    O316105   6.123   2.689   4.438 -0.1070 -0.1287 -0.2345
  134CHL1   H3'16106   6.208   2.653   4.463  0.1817 -0.4137 -1.5475
  134CHL1    C416107   6.075   2.807   4.646  0.3364  0.4365  0.5289
  134CHL1   H4A16108   6.186   2.811   4.646  0.3292  0.6268  0.5255
  134CHL1   H4B16109   6.032   2.895   4.594 -0.4294 -0.4461 -0.3703
  134CHL1    C516110   6.028   2.784   4.788 -0.3933  0.0131  0.1062
  134CHL1    C616111   5.959   2.882   4.845  0.0341  0.1650  0.0924
  134CHL1    H616112   5.937   2.970   4.782  1.2087 -1.8740 -3.4509
  134CHL1    C716113   5.927   2.880   4.990 -0.1480 -0.0052 -0.3402
  134CHL1   H7A16114   5.950   2.980   5.032  1.2443  0.0762 -1.2241
  134CHL1   H7B16115   5.817   2.864   5.000 -0.9565  3.9917 -0.7770
  134CHL1    C816116   5.995   2.769   5.079 -0.5912  0.0409  1.4706
  134CHL1    H816117   6.095   2.813   5.096  0.1926 -1.1202  0.0631
  134CHL1   C1416118   5.911   2.738   5.203 -0.7201  0.3938  0.2620
  134CHL1   H1416119   5.818   2.690   5.166  0.7208 -1.0013 -1.7200
  134CHL1   C1516120   5.853   2.852   5.293 -0.6722  0.6877  0.7252
  134CHL1  H15A16121   5.929   2.933   5.290 -0.1850  0.2054 -0.2592
  134CHL1  H15B16122   5.751   2.887   5.265  0.0355  2.4478  0.2315
  134CHL1   C1616123   5.842   2.797   5.436  0.0493 -0.0539  0.1267
  134CHL1  H16A16124   5.912   2.864   5.492  0.5269  1.7241 -2.4355
  134CHL1  H16B16125   5.737   2.797   5.470 -0.2816 -0.4899 -0.8841
  134CHL1   C1716126   5.893   2.649   5.425 -0.1982  0.8424  0.5753
  134CHL1   H1716127   5.799   2.595   5.399 -0.4259  1.8040 -0.7037
  134CHL1   C1316128   5.986   2.643   5.301 -0.6156 -0.1859 -0.5625
  134CHL1   C1816129   6.128   2.699   5.344  0.1253 -0.8848  0.1801
  134CHL1  H18A16130   6.168   2.620   5.410  0.3613 -0.4121  0.6117
  134CHL1  H18B16131   6.191   2.720   5.255  0.5298  1.8588  1.0153
  134CHL1  H18C16132   6.118   2.795   5.400  0.6278  0.2475 -1.5942
  134CHL1   C1216133   5.999   2.514   5.223 -0.4734  0.3983 -0.4028
  134CHL1  H12A16134   6.057   2.433   5.274 -0.5736 -0.3901 -1.5050
  134CHL1  H12B16135   5.900   2.465   5.207 -1.3697  2.5521 -1.7982
  134CHL1   C1116136   6.068   2.530   5.086  0.5079 -0.4158 -0.7364
  134CHL1  H11A16137   6.174   2.551   5.113 -0.3739  2.2529  1.0136
  134CHL1  H11B16138   6.073   2.426   5.046  0.3800 -0.2147 -1.2845
  134CHL1    C916139   6.013   2.643   4.996 -0.7785  0.2543 -0.3838
  134CHL1    H916140   5.910   2.601   4.996  0.3794 -2.8179  0.2114
  134CHL1   C1016141   6.077   2.665   4.860 -0.0827  0.7788 -0.1742
  134CHL1   C1916142   6.231   2.673   4.890  0.2119  0.8509  0.3156
  134CHL1  H19A16143   6.292   2.724   4.812  0.6189 -2.9030 -2.0614
  134CHL1  H19B16144   6.254   2.725   4.985  1.8210  1.5922 -0.4437
  134CHL1  H19C16145   6.272   2.570   4.896 -0.1312  0.7410  0.7768
  134CHL1    C116146   6.038   2.550   4.767 -0.4409  0.0905 -1.4479
  134CHL1   H1A16147   6.083   2.457   4.806  0.6365  0.5326 -1.5977
  134CHL1   H1B16148   5.933   2.514   4.770  0.4024 -2.5011  0.0357
  134CHL1    C216149   6.095   2.561   4.625 -0.1739  0.1603 -0.3834
  134CHL1   H2A16150   6.080   2.465   4.570 -1.3427  1.1098 -1.7988
  134CHL1   H2B16151   6.206   2.559   4.625 -0.1658  0.3000  0.4478
  134CHL1   C2016152   5.952   2.589   5.553  0.6139  0.0514 -0.4594
  134CHL1   H2016153   6.056   2.620   5.575  0.3587  0.7835 -0.2320
  134CHL1   C2116154   5.955   2.435   5.545 -0.0403  0.2775 -0.0198
  134CHL1  H21A16155   6.024   2.406   5.462 -2.4636  0.1737 -2.1439
  134CHL1  H21B16156   5.855   2.393   5.523  0.3683 -1.2059  0.8634
  134CHL1  H21C16157   5.978   2.391   5.644 -2.4101 -1.2600 -0.0812
  134CHL1   C2216158   5.867   2.630   5.674 -0.1601 -0.3696  0.0470
  134CHL1  H22A16159   5.868   2.740   5.691 -1.8643 -0.0999 -1.3671
  134CHL1  H22B16160   5.761   2.610   5.646  0.2342 -1.1043 -0.9738
  134CHL1   C2316161   5.896   2.566   5.814  0.2209 -0.3034 -0.3491
  134CHL1  H23A16162   5.867   2.459   5.801 -0.8602 -0.0966  0.2586
  134CHL1  H23B16163   6.006   2.575   5.821  0.1461 -0.4393  1.6265
  134CHL1   C2416164   5.808   2.634   5.920  0.2065 -0.2923  0.2495
  134CHL1  H24A16165   5.821   2.744   5.907  3.2264 -0.3225  2.1895
  134CHL1  H24B16166   5.701   2.619   5.894 -0.5256  2.3547  1.4163
  134CHL1   C2516167   5.847   2.606   6.068  0.5560 -0.0458  0.6811
  134CHL1   H2516168   5.946   2.656   6.074  0.1620  1.3781 -2.3902
  134CHL1   C2616169   5.744   2.670   6.161 -0.1382 -0.4009  0.0521
  134CHL1  H26A16170   5.759   2.652   6.269 -0.6487 -0.2017  0.1591
  134CHL1  H26B16171   5.755   2.779   6.144  2.7718 -0.4800  0.8836
  134CHL1  H26C16172   5.645   2.625   6.136  0.4568 -1.1391 -1.0285
  134CHL1   C2716173   5.869   2.459   6.101  0.3296  0.4825 -0.2122
  134CHL1  H27A16174   5.787   2.386   6.082  1.2893 -0.2742 -1.5408
  134CHL1  H27B16175   5.955   2.427   6.039 -0.9621 -1.8461 -0.9258
  134CHL1  H27C16176   5.901   2.447   6.207 -0.0106 -2.9966 -0.3833
  135CHL1    C316177   5.677   2.809   4.384 -0.7128 -1.0813 -0.1505
  135CHL1    H316178   5.774   2.839   4.428 -2.1122  0.7725  1.9034
  135CHL1    O316179   5.693   2.793   4.243  0.3733 -0.7000  0.7091
  135CHL1   H3'16180   5.607   2.770   4.207  0.0119 -1.2154  1.8383
  135CHL1    C416181   5.630   2.678   4.456 -0.0202 -0.3496 -0.2611
  135CHL1   H4A16182   5.539   2.653   4.397  0.1444  1.9932 -1.6359
  135CHL1   H4B16183   5.709   2.605   4.426  0.3308 -1.4494  2.9559
  135CHL1    C516184   5.604   2.688   4.606 -0.1748 -0.3607 -0.2569
  135CHL1    C616185   5.662   2.600   4.689 -0.2671 -0.3379  0.8051
  135CHL1    H616186   5.724   2.517   4.651 -1.1548 -1.3670  1.5385
  135CHL1    C716187   5.645   2.608   4.838  0.6132  0.5530 -0.4604
  135CHL1   H7A16188   5.645   2.502   4.872 -0.1555  0.6630 -0.0898
  135CHL1   H7B16189   5.736   2.651   4.883  0.7709 -1.8093  1.6734
  135CHL1    C816190   5.530   2.698   4.878 -0.5741  0.5106 -0.0087
  135CHL1    H816191   5.446   2.632   4.847 -0.6167 -0.4087  1.8925
  135CHL1   C1416192   5.529   2.716   5.027 -0.0753 -0.3597 -0.0198
  135CHL1   H1416193   5.623   2.771   5.048 -1.4632  1.6079  1.4321
  135CHL1   C1516194   5.538   2.588   5.114 -0.4301  0.8273 -0.3315
  135CHL1  H15A16195   5.454   2.526   5.077  0.3626  1.1136 -2.7661
  135CHL1  H15B16196   5.635   2.535   5.111 -0.0321  1.5675 -0.8163
  135CHL1   C1616197   5.510   2.648   5.249 -0.7727  0.4429  0.6664
  135CHL1  H16A16198   5.443   2.570   5.292  1.8897 -1.8490  0.9444
  135CHL1  H16B16199   5.596   2.656   5.318  0.6344 -0.8153 -0.8752
  135CHL1   C1716200   5.447   2.787   5.234  0.1617 -0.7577  0.6459
  135CHL1   H1716201   5.534   2.853   5.253 -0.0853 -0.6168  1.2865
  135CHL1   C1316202   5.421   2.803   5.086  1.1621 -0.1454  0.7320
  135CHL1   C1816203   5.287   2.732   5.053  0.1912 -0.7181 -0.3875
  135CHL1  H18A16204   5.263   2.712   4.946 -0.0197 -0.5024 -0.3813
  135CHL1  H18B16205   5.277   2.641   5.116 -0.8364 -1.1447 -1.1453
  135CHL1  H18C16206   5.202   2.796   5.083 -0.5165 -2.0996  0.6516
  135CHL1   C1216207   5.422   2.934   5.023  0.1506 -0.2661  0.3321
  135CHL1  H12A16208   5.339   3.002   5.051 -0.0106 -0.3480  0.0598
  135CHL1  H12B16209   5.516   2.987   5.050 -0.4346  0.7993  0.3139
  135CHL1   C1116210   5.431   2.936   4.867 -0.5968 -0.7086 -0.0906
  135CHL1  H11A16211   5.330   2.923   4.823  0.2943  0.9066 -2.8823
  135CHL1  H11B16212   5.458   3.037   4.828  1.1495 -0.3594  1.8424
  135CHL1    C916213   5.528   2.829   4.806  0.6827 -0.0196  0.2841
  135CHL1    H916214   5.630   2.866   4.830  1.8826 -3.0139  0.3201
  135CHL1   C1016215   5.514   2.810   4.653 -0.1621  0.2858 -0.9670
  135CHL1   C1916216   5.371   2.767   4.620  0.4191  0.1056 -0.0780
  135CHL1  H19A16217   5.367   2.726   4.517 -1.9730  1.2216 -0.4967
  135CHL1  H19B16218   5.333   2.698   4.698 -2.5461  1.4061 -0.2263
  135CHL1  H19C16219   5.305   2.855   4.610 -1.6622 -1.3033  0.5797
  135CHL1    C116220   5.558   2.928   4.572 -0.2037 -0.5654 -0.2034
  135CHL1   H1A16221   5.481   3.007   4.588 -0.7688 -0.9554 -0.9446
  135CHL1   H1B16222   5.653   2.971   4.611  0.0261  0.8019 -2.1066
  135CHL1    C216223   5.573   2.910   4.414  0.6346 -0.0809  0.5996
  135CHL1   H2A16224   5.609   3.006   4.371 -0.2759 -0.8813 -2.2044
  135CHL1   H2B16225   5.474   2.887   4.369 -0.3750  2.2637  1.5077
  135CHL1   C2016226   5.344   2.826   5.340 -0.0083  0.1809  0.1890
  135CHL1   H2016227   5.250   2.767   5.335  0.0301  0.1899 -3.1916
  135CHL1   C2116228   5.298   2.974   5.320  0.0225  0.6408 -0.0299
  135CHL1  H21A16229   5.395   3.027   5.334  0.7322 -0.9168  1.4186
  135CHL1  H21B16230   5.229   3.014   5.397  1.2428  1.1214  0.8590
  135CHL1  H21C16231   5.245   2.998   5.225 -0.6444  2.9368  0.8502
  135CHL1   C2216232   5.403   2.793   5.485  0.4897 -0.5916  0.0625
  135CHL1  H22A16233   5.399   2.682   5.492 -0.9252 -0.5773 -0.2220
  135CHL1  H22B16234   5.512   2.817   5.484  0.4724 -0.5141 -1.6283
  135CHL1   C2316235   5.337   2.860   5.612 -0.7474  0.9319  0.2425
  135CHL1  H23A16236   5.327   2.969   5.597  0.1401  1.0833  0.6558
  135CHL1  H23B16237   5.231   2.831   5.602 -0.6076  0.3799  0.3237
  135CHL1   C2416238   5.423   2.837   5.737  0.4315 -0.1918  0.1427
  135CHL1  H24A16239   5.452   2.730   5.739  0.9434 -0.1132 -1.7141
  135CHL1  H24B16240   5.512   2.902   5.730  0.0503  0.1629 -2.2467
  135CHL1   C2516241   5.344   2.864   5.872 -0.0966 -0.6193 -0.1859
  135CHL1   H2516242   5.257   2.795   5.877  0.9146 -1.9624 -0.5799
  135CHL1   C2616243   5.427   2.827   5.993  0.3120  0.1472  0.2795
  135CHL1  H26A16244   5.509   2.902   6.004 -1.3012  1.8641  0.9966
  135CHL1  H26B16245   5.364   2.846   6.082 -1.1030  0.6957 -0.8097
  135CHL1  H26C16246   5.457   2.720   5.991 -1.3522 -0.3616  0.7873
  135CHL1   C2716247   5.289   3.007   5.891  0.4141 -0.0344  0.0194
  135CHL1  H27A16248   5.370   3.083   5.889  1.2178 -0.7839  1.7649
  135CHL1  H27B16249   5.227   3.031   5.802  2.9082 -0.3391 -1.9325
  135CHL1  H27C16250   5.243   3.016   5.991 -2.4694 -1.4033 -1.0587
  136CHL1    C316251   5.181   0.631   4.535  0.3521  0.6725  1.3593
  136CHL1    H316252   5.233   0.723   4.566 -2.0415  2.2083  1.1279
  136CHL1    O316253   5.193   0.613   4.397  0.6377  0.3259 -0.7542
  136CHL1   H3'16254   5.131   0.542   4.379  0.1930  0.8019 -1.1169
  136CHL1    C416255   5.231   0.501   4.599  0.3940  0.3708  0.0647
  136CHL1   H4A16256   5.164   0.418   4.568  0.6661 -0.1969  0.9682
  136CHL1   H4B16257   5.333   0.474   4.563  0.3797 -0.2481  0.4669
  136CHL1    C516258   5.235   0.513   4.749 -0.6949 -0.3546 -0.4885
  136CHL1    C616259   5.353   0.514   4.815  0.6952  0.0494 -0.1295
  136CHL1    H616260   5.448   0.505   4.761  0.8117  0.9356 -0.0936
  136CHL1    C716261   5.362   0.509   4.963 -0.2284 -0.0037 -0.1876
  136CHL1   H7A16262   5.419   0.419   4.992  0.4354  0.6047  0.4523
  136CHL1   H7B16263   5.406   0.605   4.998 -1.7862  1.5239 -2.1971
  136CHL1    C816264   5.224   0.492   5.034  0.2247 -0.4224  0.5991
  136CHL1    H816265   5.201   0.384   5.026 -3.1825  0.1754  0.9769
  136CHL1   C1416266   5.238   0.533   5.177  0.7508  0.6860 -0.0040
  136CHL1   H1416267   5.263   0.641   5.174 -0.7953  1.0681 -2.7675
  136CHL1   C1516268   5.340   0.469   5.275  0.3825 -0.2227 -0.1080
  136CHL1  H15A16269   5.347   0.360   5.256  1.2984 -0.4684  1.4154
  136CHL1  H15B16270   5.441   0.516   5.280 -0.3628  1.3984  0.6934
  136CHL1   C1616271   5.281   0.505   5.420  0.4393 -0.7224 -0.3095
  136CHL1  H16A16272   5.257   0.402   5.455  0.3858 -0.6132 -0.0258
  136CHL1  H16B16273   5.364   0.561   5.466  1.8016 -1.5668 -1.6410
  136CHL1   C1716274   5.147   0.581   5.399 -0.1816 -0.6504  0.6911
  136CHL1   H1716275   5.179   0.687   5.387  1.5430 -1.0055  1.8218
  136CHL1   C1316276   5.099   0.541   5.257 -0.3888 -0.2024 -0.1987
  136CHL1   C1816277   5.041   0.400   5.267 -0.0273  1.7628  0.0327
  136CHL1  H18A16278   4.985   0.368   5.176  2.1000 -0.1662 -0.6975
  136CHL1  H18B16279   5.129   0.332   5.274 -1.3689 -0.0016  0.4727
  136CHL1  H18C16280   4.969   0.379   5.349  0.5788 -1.4830 -0.1457
  136CHL1   C1216281   5.001   0.642   5.195 -0.4538 -0.6564  0.8358
  136CHL1  H12A16282   4.900   0.628   5.238 -0.7216 -3.2238 -0.4516
  136CHL1  H12B16283   5.042   0.745   5.183  0.8413 -1.2401  0.0319
  136CHL1   C1116284   4.987   0.600   5.045 -0.4742 -0.1039  0.0133
  136CHL1  H11A16285   4.925   0.508   5.035  0.9353 -0.8069 -3.5775
  136CHL1  H11B16286   4.938   0.687   4.998  0.5770  2.0878  2.6827
  136CHL1    C916287   5.116   0.576   4.967 -0.6259  0.5662 -0.4470
  136CHL1    H916288   5.158   0.678   4.970 -1.7459  1.0228  2.6156
  136CHL1   C1016289   5.099   0.536   4.814  0.1637 -0.3297  0.5117
  136CHL1   C1916290   5.013   0.401   4.806 -0.3311 -0.4088  0.0675
  136CHL1  H19A16291   5.057   0.315   4.860  0.6087 -1.5107 -2.3117
  136CHL1  H19B16292   4.913   0.426   4.848  0.5804  3.3300  0.4294
  136CHL1  H19C16293   5.003   0.375   4.698  0.0579 -1.3058  0.2419
  136CHL1    C116294   5.027   0.656   4.739  0.2411 -0.0813 -0.4482
  136CHL1   H1A16295   4.920   0.667   4.765 -0.0610 -1.8553 -0.8498
  136CHL1   H1B16296   5.081   0.751   4.762  0.3396 -0.4951  1.1034
  136CHL1    C216297   5.037   0.653   4.582  0.4031  0.7076  0.6814
  136CHL1   H2A16298   4.983   0.735   4.532 -1.0243 -1.6325 -1.8919
  136CHL1   H2B16299   4.982   0.569   4.535  0.0055  1.4811 -0.2626
  136CHL1   C2016300   5.065   0.579   5.521 -0.0235  0.2392 -0.0715
  136CHL1   H2016301   5.086   0.478   5.562  2.7125  0.6788 -0.2141
  136CHL1   C2116302   4.908   0.599   5.496 -0.5485 -0.0119  0.2211
  136CHL1  H21A16303   4.862   0.534   5.418  0.9971 -2.6228  1.3146
  136CHL1  H21B16304   4.907   0.706   5.469 -1.6998 -0.2057 -0.5541
  136CHL1  H21C16305   4.859   0.576   5.593 -1.1423  1.9537  0.4231
  136CHL1   C2216306   5.116   0.667   5.636  0.5267  0.0975 -0.2504
  136CHL1  H22A16307   5.226   0.661   5.649  1.1906  2.0771 -3.7047
  136CHL1  H22B16308   5.108   0.771   5.598  1.6591  0.4761  0.4989
  136CHL1   C2316309   5.050   0.642   5.774  0.0882 -0.0988  0.3325
  136CHL1  H23A16310   4.950   0.690   5.774  0.7652  1.3674  0.8125
  136CHL1  H23B16311   5.029   0.538   5.805 -0.4938 -0.5196 -1.3573
  136CHL1   C2416312   5.136   0.713   5.879  0.4508 -0.1824  0.0285
  136CHL1  H24A16313   5.237   0.667   5.884 -0.1647 -1.8918 -2.0187
  136CHL1  H24B16314   5.137   0.821   5.852  0.5506 -0.5487 -1.5201
  136CHL1   C2516315   5.082   0.704   6.023 -0.0968  0.9422 -0.4321
  136CHL1   H2516316   4.974   0.729   6.019 -0.4116 -0.2504  0.1341
  136CHL1   C2616317   5.119   0.574   6.090 -0.7152  0.5524 -0.3817
  136CHL1  H26A16318   5.085   0.578   6.196 -1.9918  1.0919 -0.7938
  136CHL1  H26B16319   5.078   0.482   6.044 -2.0720  0.5647  0.7548
  136CHL1  H26C16320   5.228   0.558   6.105 -1.3519 -1.9087  2.5097
  136CHL1   C2716321   5.156   0.809   6.113 -0.4430 -0.5479 -0.2934
  136CHL1  H27A16322   5.257   0.773   6.143  0.3372  0.7889 -1.2228
  136CHL1  H27B16323   5.168   0.898   6.048  1.0171  0.5443  1.3821
  136CHL1  H27C16324   5.093   0.827   6.202 -0.4141  0.7602 -0.5231
  137CHL1    C316325   0.624   1.033   4.908 -0.6440 -0.6211  0.4006
  137CHL1    H316326   0.680   0.938   4.896  1.6371  0.6764  0.1717
  137CHL1    O316327   0.605   1.076   4.771  0.4281  0.2713  0.2236
  137CHL1   H3'16328   0.552   1.007   4.732  0.9526  0.0908 -0.1737
  137CHL1    C416329   0.501   1.010   4.997  0.2002  0.0437 -0.4565
  137CHL1   H4A16330   0.427   1.092   4.985 -1.1533 -1.3107 -1.8979
  137CHL1   H4B16331   0.441   0.924   4.961 -1.7908  1.8198 -1.6071
  137CHL1    C516332   0.527   0.994   5.151  0.2262  0.1126  0.9483
  137CHL1    C616333   0.476   0.890   5.222  0.0098 -0.1426  0.5031
  137CHL1    H616334   0.419   0.815   5.166 -0.3098  0.0528  0.5673
  137CHL1    C716335   0.491   0.871   5.370 -0.5665 -0.0801 -0.2437
  137CHL1   H7A16336   0.389   0.852   5.411 -0.1892 -2.3953 -0.2506
  137CHL1   H7B16337   0.554   0.782   5.388 -0.3625  0.5559  2.8142
  137CHL1    C816338   0.562   0.993   5.439 -0.2564 -0.1536 -0.0198
  137CHL1    H816339   0.485   1.072   5.446 -2.1336 -1.9375  0.2727
  137CHL1   C1416340   0.645   0.958   5.559 -0.9970  0.0705 -0.1751
  137CHL1   H1416341   0.735   0.898   5.535 -0.7986  1.0837 -2.2130
  137CHL1   C1516342   0.565   0.879   5.665 -0.2367 -0.4230  0.4674
  137CHL1  H15A16343   0.462   0.919   5.681  0.0599  0.4949  0.1492
  137CHL1  H15B16344   0.549   0.773   5.635 -1.5620 -0.4119  1.0576
  137CHL1   C1616345   0.652   0.885   5.795 -0.9044 -0.3362  0.1218
  137CHL1  H16A16346   0.583   0.899   5.881 -0.0756 -0.5674  0.8343
  137CHL1  H16B16347   0.711   0.792   5.807  1.6608  1.2465  0.4868
  137CHL1   C1716348   0.757   0.998   5.767  0.5547 -0.4619  1.1221
  137CHL1   H1716349   0.848   0.952   5.723  0.8518 -0.4914  1.7653
  137CHL1   C1316350   0.703   1.077   5.644 -0.5728  0.5902 -0.1666
  137CHL1   C1816351   0.599   1.179   5.679 -0.0511  0.9387  0.7367
  137CHL1  H18A16352   0.532   1.198   5.593 -0.7762  1.3810  1.3841
  137CHL1  H18B16353   0.530   1.139   5.757 -0.7656 -1.1842 -0.8842
  137CHL1  H18C16354   0.647   1.273   5.715 -0.8910  1.4314  0.6000
  137CHL1   C1216355   0.811   1.149   5.561 -0.2276 -0.4094  0.3194
  137CHL1  H12A16356   0.848   1.243   5.606  1.1080 -1.7162  2.1236
  137CHL1  H12B16357   0.894   1.076   5.546 -1.8656 -2.6619  1.6255
  137CHL1   C1116358   0.747   1.185   5.427  0.5186 -0.3165 -0.1197
  137CHL1  H11A16359   0.663   1.255   5.449 -1.1537 -1.7365 -1.6610
  137CHL1  H11B16360   0.825   1.235   5.367  0.0909 -0.3608 -0.7268
  137CHL1    C916361   0.670   1.067   5.354 -0.2298 -0.4799  0.7161
  137CHL1    H916362   0.747   0.988   5.340  1.7719  1.5087 -0.0942
  137CHL1   C1016363   0.619   1.102   5.213 -0.6195  0.0052  0.1644
  137CHL1   C1916364   0.525   1.230   5.218 -0.7107 -0.4571  0.3754
  137CHL1  H19A16365   0.580   1.325   5.237 -1.0879  1.0304 -4.5259
  137CHL1  H19B16366   0.466   1.249   5.125  0.3163 -1.5805 -0.5297
  137CHL1  H19C16367   0.444   1.222   5.294 -0.3704  0.3616  0.8442
  137CHL1    C116368   0.742   1.127   5.125 -0.0404  0.6677  0.1423
  137CHL1   H1A16369   0.788   1.223   5.157 -0.6247  1.1726 -0.4997
  137CHL1   H1B16370   0.816   1.045   5.135 -1.5283 -0.6997  0.2002
  137CHL1    C216371   0.708   1.147   4.975 -0.2133  0.3343 -0.4223
  137CHL1   H2A16372   0.800   1.174   4.919 -1.7945  2.4624 -2.1664
  137CHL1   H2B16373   0.648   1.240   4.963 -0.5442  0.2895  0.7250
  137CHL1   C2016374   0.817   1.071   5.883 -0.7765  0.1304  0.2784
  137CHL1   H2016375   0.903   1.130   5.844 -0.2383 -1.6087 -1.2935
  137CHL1   C2116376   0.878   0.956   5.967 -1.2601  0.0621  0.2418
  137CHL1  H21A16377   0.946   0.983   6.050  1.3230 -1.6876 -1.1789
  137CHL1  H21B16378   0.935   0.887   5.901  1.4107 -0.7881  3.2082
  137CHL1  H21C16379   0.804   0.891   6.018  1.5485 -2.0371  1.9455
  137CHL1   C2216380   0.728   1.157   5.978  0.3992  0.1005  0.0823
  137CHL1  H22A16381   0.700   1.248   5.922  0.7100 -1.0750 -2.0871
  137CHL1  H22B16382   0.637   1.100   6.007  1.2961 -1.0424  0.7692
  137CHL1   C2316383   0.805   1.209   6.098  0.2293  0.1332 -0.9248
  137CHL1  H23A16384   0.849   1.127   6.160 -0.9952  2.5848  3.6141
  137CHL1  H23B16385   0.899   1.263   6.072 -0.7257  2.2258 -0.1960
  137CHL1   C2416386   0.712   1.297   6.193 -0.1922 -0.1370 -0.4870
  137CHL1  H24A16387   0.691   1.388   6.133  3.1667  0.1080 -1.5096
  137CHL1  H24B16388   0.614   1.248   6.209  0.8356 -1.8963  0.6475
  137CHL1   C2516389   0.766   1.321   6.340  0.0455 -0.1638 -0.2703
  137CHL1   H2516390   0.798   1.218   6.367 -0.6771 -0.4845 -0.6157
  137CHL1   C2616391   0.885   1.416   6.353  0.0844 -0.2214 -0.6616
  137CHL1  H26A16392   0.981   1.391   6.302  1.5761 -1.7561  2.5801
  137CHL1  H26B16393   0.850   1.513   6.314  0.6915 -0.5908 -2.2059
  137CHL1  H26C16394   0.906   1.431   6.461 -0.4826 -0.7151 -0.4785
  137CHL1   C2716395   0.645   1.351   6.433  0.1943 -0.7114 -0.1328
  137CHL1  H27A16396   0.679   1.345   6.538 -2.9027  0.8630  1.0781
  137CHL1  H27B16397   0.605   1.454   6.428 -0.5234 -0.9861 -0.1931
  137CHL1  H27C16398   0.571   1.268   6.430 -0.9160  0.2283  0.6616
  138CHL1    C316399   5.771   0.162   4.694  0.3017 -0.1605  0.3021
  138CHL1    H316400   5.662   0.144   4.706  0.4499 -1.2626  0.1540
  138CHL1    O316401   5.814   0.181   4.558 -0.4223 -0.2276 -0.2797
  138CHL1   H3'16402   5.897   0.135   4.543 -0.9295 -1.9760  1.7904
  138CHL1    C416403   5.803   0.289   4.777  0.1914  0.4870  0.1001
  138CHL1   H4A16404   5.909   0.309   4.752 -0.0822 -0.1538 -1.6770
  138CHL1   H4B16405   5.738   0.373   4.745  1.7786  0.4623 -3.5516
  138CHL1    C516406   5.782   0.273   4.929 -0.3438  0.3280 -0.3180
  138CHL1    C616407   5.712   0.361   5.000  0.1583 -0.0793  0.3292
  138CHL1    H616408   5.680   0.450   4.943  0.3582 -1.0991 -1.4728
  138CHL1    C716409   5.696   0.357   5.148  0.0337  0.7917 -0.1341
  138CHL1   H7A16410   5.710   0.448   5.211  1.6414  0.3353  0.2109
  138CHL1   H7B16411   5.588   0.331   5.154  0.2325  0.3538  3.1880
  138CHL1    C816412   5.784   0.240   5.210  0.5098 -0.1420  0.1230
  138CHL1    H816413   5.886   0.281   5.228  0.7288 -1.2642  1.6790
  138CHL1   C1416414   5.725   0.213   5.347 -0.3796 -0.1952  0.7722
  138CHL1   H1416415   5.628   0.164   5.324 -0.3558  0.2431 -0.2950
  138CHL1   C1516416   5.699   0.326   5.446 -0.0103  0.0701 -0.4503
  138CHL1  H15A16417   5.781   0.400   5.461  1.0590 -1.1641 -0.0234
  138CHL1  H15B16418   5.598   0.371   5.439 -0.9047 -1.2887  2.1898
  138CHL1   C1616419   5.684   0.250   5.581  0.2063  0.6586  0.2991
  138CHL1  H16A16420   5.766   0.299   5.638 -2.0676  3.9364  0.9720
  138CHL1  H16B16421   5.587   0.262   5.633 -0.5313 -0.0803 -0.8679
  138CHL1   C1716422   5.701   0.098   5.557  0.0362 -0.6764 -0.4663
  138CHL1   H1716423   5.597   0.070   5.530 -0.5006 -1.1809  1.8873
  138CHL1   C1316424   5.788   0.097   5.430  0.2258  0.8298  0.2245
  138CHL1   C1816425   5.936   0.135   5.468  0.2704  0.5345 -0.4759
  138CHL1  H18A16426   5.931   0.224   5.534 -1.9720  0.7294 -0.8384
  138CHL1  H18B16427   5.992   0.053   5.518  0.7498 -1.2993 -3.7160
  138CHL1  H18C16428   6.005   0.164   5.385  0.6424  0.9413 -0.0335
  138CHL1   C1216429   5.779  -0.025   5.334  0.6808  0.2773  0.4130
  138CHL1  H12A16430   5.826  -0.115   5.380 -0.8120 -0.8859 -0.2579
  138CHL1  H12B16431   5.674  -0.056   5.313  0.4868  0.8525  0.5256
  138CHL1   C1116432   5.857   0.001   5.209 -0.2541 -0.5742 -0.2425
  138CHL1  H11A16433   5.965   0.010   5.234 -0.5440 -1.1479  1.3518
  138CHL1  H11B16434   5.846  -0.093   5.152  0.8615 -2.8158  2.9444
  138CHL1    C916435   5.788   0.117   5.132 -0.7624 -0.6595  0.1447
  138CHL1    H916436   5.681   0.092   5.115 -1.4501  1.4668  0.9943
  138CHL1   C1016437   5.845   0.140   4.992  0.6893  0.0387  0.1230
  138CHL1   C1916438   5.998   0.162   4.997  0.5211 -0.0885  0.0988
  138CHL1  H19A16439   6.035   0.186   4.895 -0.0948 -1.0301 -0.3624
  138CHL1  H19B16440   6.017   0.247   5.065 -3.5585  1.4051 -0.3459
  138CHL1  H19C16441   6.060   0.077   5.032  0.4279  0.3538  1.3841
  138CHL1    C116442   5.816   0.018   4.900  0.3266 -0.3684 -0.2307
  138CHL1   H1A16443   5.867  -0.073   4.939 -0.4741 -0.0944  1.5604
  138CHL1   H1B16444   5.707  -0.005   4.899  0.1771  0.3415 -0.5381
  138CHL1    C216445   5.845   0.037   4.748  0.4699  0.2329 -0.2018
  138CHL1   H2A16446   5.813  -0.047   4.683  4.4886 -0.9366 -0.9551
  138CHL1   H2B16447   5.953   0.041   4.722  0.9756 -2.3788  1.1775
  138CHL1   C2016448   5.757   0.016   5.678  0.7849 -0.1701  0.4273
  138CHL1   H2016449   5.864  -0.010   5.665  0.7627 -0.3448  0.6047
  138CHL1   C2116450   5.690  -0.127   5.684 -0.8119 -0.1817  0.0281
  138CHL1  H21A16451   5.736  -0.183   5.768  2.0881  1.0998 -0.6021
  138CHL1  H21B16452   5.699  -0.177   5.585 -1.1023 -0.4560  0.1358
  138CHL1  H21C16453   5.582  -0.118   5.710 -1.3862 -1.1889 -1.8036
  138CHL1   C2216454   5.744   0.090   5.817 -0.3456  0.1725  0.8932
  138CHL1  H22A16455   5.801   0.021   5.884 -1.2692 -0.9258  0.5791
  138CHL1  H22B16456   5.803   0.184   5.810 -1.4150  0.7510 -1.2509
  138CHL1   C2316457   5.599   0.106   5.874  0.4303  0.1504  0.0121
  138CHL1  H23A16458   5.527   0.086   5.792 -0.5633 -2.8878  1.4777
  138CHL1  H23B16459   5.582   0.029   5.952 -4.1911  0.2144 -0.6587
  138CHL1   C2416460   5.585   0.231   5.955  0.1141 -0.1053  0.5286
  138CHL1  H24A16461   5.673   0.242   6.022 -0.4373 -0.6340  1.3592
  138CHL1  H24B16462   5.592   0.312   5.879  2.0113  0.0000  0.7697
  138CHL1   C2516463   5.461   0.251   6.041 -0.0722 -0.0703  0.1854
  138CHL1   H2516464   5.470   0.164   6.110  1.4569 -1.2898 -1.4480
  138CHL1   C2616465   5.448   0.375   6.115 -0.2449 -1.1688  0.0931
  138CHL1  H26A16466   5.544   0.404   6.163 -1.0330 -0.3067  1.1909
  138CHL1  H26B16467   5.419   0.450   6.039  1.3021 -0.2054  0.4039
  138CHL1  H26C16468   5.365   0.373   6.189 -0.5424  3.5464  0.2056
  138CHL1   C2716469   5.323   0.225   5.975 -0.4996  0.5040  0.2835
  138CHL1  H27A16470   5.295   0.300   5.898  1.7319  1.5307  0.3965
  138CHL1  H27B16471   5.327   0.131   5.915  1.0345 -0.4277  1.7724
  138CHL1  H27C16472   5.243   0.212   6.051 -1.8293  0.8819 -0.9878
  139CHL1    C316473   1.212   5.988   4.835 -0.0583 -0.7135 -0.2310
  139CHL1    H316474   1.286   5.905   4.842 -0.7352 -1.5384 -2.1430
  139CHL1    O316475   1.223   6.045   4.708  0.4383 -0.0632  0.3521
  139CHL1   H3'16476   1.174   5.986   4.651  0.2183  0.3361  0.1211
  139CHL1    C416477   1.070   5.938   4.867  0.5252 -0.5054  0.5292
  139CHL1   H4A16478   1.003   6.026   4.856  1.0630 -0.3044 -1.5152
  139CHL1   H4B16479   1.048   5.863   4.789 -1.5362  0.9748 -0.4188
  139CHL1    C516480   1.056   5.884   5.009 -0.0882 -0.0445 -0.1791
  139CHL1    C616481   1.010   5.763   5.032 -0.0189  0.2013 -0.8075
  139CHL1    H616482   0.978   5.704   4.945 -0.9341  0.5830 -0.7330
  139CHL1    C716483   0.973   5.708   5.170 -0.8185 -0.0612  0.4797
  139CHL1   H7A16484   0.877   5.655   5.185 -0.7996  0.4156  2.6496
  139CHL1   H7B16485   1.056   5.638   5.195  0.7066  0.7197 -2.0519
  139CHL1    C816486   0.982   5.821   5.278  0.0598 -0.0217  0.9307
  139CHL1    H816487   0.883   5.869   5.264  0.1204 -0.0589  0.3329
  139CHL1   C1416488   0.985   5.758   5.408  0.4618 -0.2928  0.2306
  139CHL1   H1416489   1.086   5.711   5.413  1.1360  1.2020  1.5033
  139CHL1   C1516490   0.879   5.652   5.443 -0.0828  0.2060 -0.0840
  139CHL1  H15A16491   0.778   5.672   5.403 -0.7333  0.4079  1.5803
  139CHL1  H15B16492   0.908   5.547   5.421 -2.0054 -0.2759 -0.4846
  139CHL1   C1616493   0.880   5.647   5.594  0.0321  0.0533  0.5195
  139CHL1  H16A16494   0.778   5.683   5.622  0.1375  0.2186  0.6944
  139CHL1  H16B16495   0.913   5.553   5.644  1.5627  1.0266  1.4447
  139CHL1   C1716496   0.984   5.752   5.644 -0.7732 -0.0993 -0.2734
  139CHL1   H1716497   1.083   5.704   5.636 -1.7926 -2.2886 -0.3488
  139CHL1   C1316498   0.980   5.854   5.526  0.4683 -0.8154 -0.6388
  139CHL1   C1816499   0.846   5.926   5.533 -0.3210 -0.6769  0.0241
  139CHL1  H18A16500   0.832   5.996   5.449 -2.5422 -2.0204 -0.8122
  139CHL1  H18B16501   0.756   5.861   5.535 -2.1502  1.7156  0.0533
  139CHL1  H18C16502   0.834   5.994   5.620  0.9735  1.6415 -1.5112
  139CHL1   C1216503   1.095   5.963   5.519 -0.5231 -0.1274 -0.6467
  139CHL1  H12A16504   1.068   6.043   5.591 -0.8986  0.5774 -1.5504
  139CHL1  H12B16505   1.191   5.914   5.546 -0.3555  1.3881  1.8335
  139CHL1   C1116506   1.103   6.025   5.378  0.2625  0.2227 -0.8507
  139CHL1  H11A16507   1.015   6.092   5.376 -0.0864 -0.2169 -0.3069
  139CHL1  H11B16508   1.199   6.081   5.375  0.1593  0.3679 -1.9880
  139CHL1    C916509   1.095   5.923   5.259  0.1830  0.2712 -0.3231
  139CHL1    H916510   1.186   5.861   5.267 -0.0687 -0.2037 -1.0263
  139CHL1   C1016511   1.092   5.984   5.114  0.4775  0.4685  0.2152
  139CHL1   C1916512   0.986   6.096   5.123  0.1126  0.0609 -0.1054
  139CHL1  H19A16513   0.961   6.139   5.024 -0.0097 -0.1013 -0.1458
  139CHL1  H19B16514   0.888   6.060   5.161  0.2970 -1.6688 -1.1429
  139CHL1  H19C16515   1.019   6.178   5.190  0.5791 -2.2594  2.7023
  139CHL1    C116516   1.229   6.044   5.079 -0.3997 -0.1782 -0.3367
  139CHL1   H1A16517   1.248   6.126   5.151 -2.0116 -0.5770  0.5935
  139CHL1   H1B16518   1.307   5.967   5.092  2.0136  2.1549  0.0379
  139CHL1    C216519   1.238   6.104   4.934 -0.3046  1.0844 -0.7120
  139CHL1   H2A16520   1.342   6.139   4.914  0.3061  0.0079  0.4116
  139CHL1   H2B16521   1.165   6.185   4.917  0.8747  1.9431 -1.9152
  139CHL1   C2016522   0.967   5.804   5.781 -0.6528  0.1766 -0.3883
  139CHL1   H2016523   0.875   5.865   5.764 -0.9757 -0.3716 -0.6418
  139CHL1   C2116524   1.086   5.891   5.837  0.2452  0.0202 -0.0453
  139CHL1  H21A16525   1.187   5.847   5.823  0.8746  1.6169 -0.8089
  139CHL1  H21B16526   1.070   5.902   5.946 -1.0092 -1.4279 -0.0420
  139CHL1  H21C16527   1.083   5.992   5.790 -0.9354 -0.5437 -1.2622
  139CHL1   C2216528   0.933   5.707   5.893 -0.2471 -0.3364  0.5182
  139CHL1  H22A16529   0.915   5.780   5.974  0.2116 -0.7779  1.0264
  139CHL1  H22B16530   0.836   5.654   5.880 -0.5139  0.3943 -0.5761
  139CHL1   C2316531   1.048   5.615   5.944  0.1887 -0.1196 -0.3157
  139CHL1  H23A16532   1.097   5.566   5.857  0.7701  0.2308 -0.1923
  139CHL1  H23B16533   1.129   5.670   5.996 -1.0040  2.0004 -0.5726
  139CHL1   C2416534   0.988   5.507   6.036 -0.3515 -0.0571 -0.2589
  139CHL1  H24A16535   0.918   5.555   6.107  0.0099 -0.6766  0.5463
  139CHL1  H24B16536   0.919   5.439   5.981 -3.0783  1.6733  0.8486
  139CHL1   C2516537   1.084   5.420   6.118  0.0168 -0.0506 -0.5403
  139CHL1   H2516538   1.165   5.388   6.050 -1.2708 -2.1150 -1.1947
  139CHL1   C2616539   1.139   5.481   6.246 -0.5786  0.3624  0.2452
  139CHL1  H26A16540   1.188   5.579   6.226  0.2353 -0.0892  0.0181
  139CHL1  H26B16541   1.055   5.492   6.318 -1.4320 -1.0458 -0.5067
  139CHL1  H26C16542   1.220   5.416   6.285 -1.0869 -0.6431 -0.3654
  139CHL1   C2716543   1.010   5.286   6.152 -0.2246  0.2694  0.1296
  139CHL1  H27A16544   0.914   5.309   6.203 -1.1881 -2.7579 -0.0906
  139CHL1  H27B16545   0.988   5.226   6.061  0.8784 -0.8746  0.5850
  139CHL1  H27C16546   1.065   5.220   6.223  1.8381 -1.8947 -3.2216
  140CHL1    C316547   6.411   0.047   4.572 -0.8844 -0.0350  0.3441
  140CHL1    H316548   6.317   0.098   4.542  0.0802  0.2931 -2.3583
  140CHL1    O316549   6.489   0.013   4.451  0.2409 -0.5179  0.4605
  140CHL1   H3'16550   6.435  -0.046   4.398  1.7426 -1.4737 -0.0610
  140CHL1    C416551   6.504   0.156   4.637 -0.1645 -0.2027 -0.1154
  140CHL1   H4A16552   6.608   0.118   4.635  0.1748  0.7289 -0.3956
  140CHL1   H4B16553   6.506   0.240   4.565 -0.6613 -1.9698 -2.3097
  140CHL1    C516554   6.465   0.199   4.779  0.4306 -0.0485 -0.4346
  140CHL1    C616555   6.447   0.330   4.809 -0.4444 -0.0648  0.0506
  140CHL1    H616556   6.471   0.410   4.737 -2.3570 -0.3965 -1.0328
  140CHL1    C716557   6.410   0.370   4.946  0.1027 -0.2134 -0.5453
  140CHL1   H7A16558   6.458   0.466   4.975  1.2235 -0.2481 -2.1965
  140CHL1   H7B16559   6.300   0.391   4.949  0.0833  0.6160 -3.5768
  140CHL1    C816560   6.429   0.258   5.052  0.3147  0.8062  0.0406
  140CHL1    H816561   6.540   0.254   5.060  0.2406 -0.6727  0.6164
  140CHL1   C1416562   6.365   0.301   5.180  0.2883 -0.0230  0.3489
  140CHL1   H1416563   6.258   0.302   5.150  0.9879 -2.2261 -2.8625
  140CHL1   C1516564   6.397   0.438   5.238 -0.0662  0.0717 -0.3039
  140CHL1  H15A16565   6.507   0.442   5.225  0.2053 -3.0743  0.2874
  140CHL1  H15B16566   6.354   0.530   5.192 -0.1382 -1.2132 -2.9747
  140CHL1   C1616567   6.370   0.419   5.389  0.0714  0.0059  0.0346
  140CHL1  H16A16568   6.457   0.458   5.446 -0.7057  0.6878  0.7816
  140CHL1  H16B16569   6.282   0.480   5.418 -0.6637  0.1300 -2.2087
  140CHL1   C1716570   6.334   0.269   5.416 -0.6868 -0.2239 -0.4955
  140CHL1   H1716571   6.223   0.275   5.420 -0.6540  2.0630 -1.2538
  140CHL1   C1316572   6.377   0.188   5.287 -0.3927 -0.6090  0.6878
  140CHL1   C1816573   6.531   0.149   5.294 -0.5787 -0.2600  0.5418
  140CHL1  H18A16574   6.537   0.072   5.374  1.9242  0.3170  0.9939
  140CHL1  H18B16575   6.578   0.102   5.205 -1.8950 -3.1845  1.2609
  140CHL1  H18C16576   6.598   0.232   5.324  0.7875 -2.1223  3.0186
  140CHL1   C1216577   6.290   0.068   5.242 -0.6404  0.7305 -0.1862
  140CHL1  H12A16578   6.302  -0.014   5.315  1.4215  1.0713 -0.0802
  140CHL1  H12B16579   6.185   0.102   5.245 -0.8433  0.1644  3.3230
  140CHL1   C1116580   6.348   0.014   5.111 -0.2601  0.6621 -0.1673
  140CHL1  H11A16581   6.441  -0.038   5.140  0.2327  1.0186 -1.0645
  140CHL1  H11B16582   6.292  -0.067   5.060  0.1818  1.2625 -1.6941
  140CHL1    C916583   6.377   0.126   4.999  1.0234  0.1834  0.8792
  140CHL1    H916584   6.273   0.152   4.969  1.3688  1.0276  0.3756
  140CHL1   C1016585   6.445   0.074   4.874 -0.6699  0.2411  0.1302
  140CHL1   C1916586   6.584   0.023   4.906 -0.0184 -0.0494  0.0323
  140CHL1  H19A16587   6.581  -0.066   4.972 -0.8325  1.3101  1.9429
  140CHL1  H19B16588   6.630  -0.010   4.811 -0.8524 -0.3252 -0.2809
  140CHL1  H19C16589   6.655   0.087   4.962 -1.2605  0.0223  1.5795
  140CHL1    C116590   6.366  -0.035   4.805  0.0492  0.8495 -0.1615
  140CHL1   H1A16591   6.378  -0.125   4.869 -1.2791 -0.7546 -2.0279
  140CHL1   H1B16592   6.256  -0.020   4.803 -0.3781 -1.8084 -1.4449
  140CHL1    C216593   6.414  -0.069   4.659 -0.7694  0.4075 -0.0921
  140CHL1   H2A16594   6.335  -0.138   4.623  0.4529 -1.2506  0.3049
  140CHL1   H2B16595   6.512  -0.121   4.659 -0.9536 -0.0317  2.1880
  140CHL1   C2016596   6.381   0.222   5.552  0.2271  0.2753 -0.1548
  140CHL1   H2016597   6.492   0.220   5.564  0.2909 -0.0805 -0.7532
  140CHL1   C2116598   6.326   0.081   5.581 -0.4612 -1.4439 -0.3752
  140CHL1  H21A16599   6.340   0.049   5.686  0.4958 -0.0745 -0.0521
  140CHL1  H21B16600   6.381   0.012   5.514  2.0719  0.3475 -0.2674
  140CHL1  H21C16601   6.217   0.074   5.558 -0.1837  0.1319 -2.5412
  140CHL1   C2216602   6.331   0.324   5.663  0.4482 -0.4889  0.4134
  140CHL1  H22A16603   6.380   0.421   5.635 -1.6556  0.3609 -0.4960
  140CHL1  H22B16604   6.224   0.351   5.651  0.9234  0.7977 -1.4856
  140CHL1   C2316605   6.376   0.298   5.807 -0.3518  0.1141  0.0101
  140CHL1  H23A16606   6.328   0.201   5.834  2.3938 -2.1854 -2.6074
  140CHL1  H23B16607   6.485   0.277   5.797 -0.6596 -0.7358 -1.9565
  140CHL1   C2416608   6.338   0.412   5.906  0.3341  0.7530 -0.6091
  140CHL1  H24A16609   6.343   0.511   5.856  0.4598 -0.0786 -2.3272
  140CHL1  H24B16610   6.238   0.391   5.948  0.6021  0.2580 -0.2013
  140CHL1   C2516611   6.435   0.410   6.028 -0.3268 -0.1808 -0.5399
  140CHL1   H2516612   6.485   0.311   6.031  1.9016  0.8829 -0.1363
  140CHL1   C2616613   6.364   0.463   6.154  0.1351  0.0594 -0.4600
  140CHL1  H26A16614   6.360   0.574   6.161  0.2281  0.0434 -0.1543
  140CHL1  H26B16615   6.263   0.422   6.176  0.7901 -0.6270  1.3951
  140CHL1  H26C16616   6.431   0.430   6.236  0.8715  1.5359 -0.4367
  140CHL1   C2716617   6.558   0.496   6.000  0.4921 -0.4647 -0.1245
  140CHL1  H27A16618   6.623   0.487   6.089 -0.6552 -0.2702  0.7638
  140CHL1  H27B16619   6.614   0.472   5.907 -0.7366  0.5446 -1.1729
  140CHL1  H27C16620   6.529   0.602   5.984  1.3302 -0.5047 -2.2473
  141DOPC     N16621   2.670   2.444   9.392 -0.1156 -0.2616  0.7237
  141DOPC   C1216622   2.780   2.491   9.287  0.4286 -0.0910 -0.7479
  141DOPC  H12A16623   2.859   2.420   9.304 -1.1915 -1.0684  4.4821
  141DOPC  H12B16624   2.816   2.586   9.327 -0.1702 -0.3835  0.5501
  141DOPC   C1316625   2.642   2.300   9.357  0.6643  0.6341  0.3535
  141DOPC  H13A16626   2.552   2.254   9.397  1.3967 -1.0756  0.1351
  141DOPC  H13B16627   2.646   2.293   9.250  2.6436 -1.7897  0.4900
  141DOPC  H13C16628   2.720   2.234   9.392 -0.3254 -2.1228 -2.1833
  141DOPC   C1416629   2.545   2.516   9.369 -0.1965 -0.1093 -0.2784
  141DOPC  H14A16630   2.522   2.511   9.264 -0.5889 -1.0863 -0.1598
  141DOPC  H14B16631   2.464   2.460   9.413  0.2843 -1.4533 -1.0384
  141DOPC  H14C16632   2.562   2.616   9.405  1.7260 -0.8512  1.0457
  141DOPC   C1516633   2.703   2.457   9.534  0.3835 -0.0215 -1.1917
  141DOPC  H15A16634   2.797   2.418   9.570 -0.0478  2.0175  2.6610
  141DOPC  H15B16635   2.625   2.405   9.589  3.2504 -2.7850  0.5939
  141DOPC  H15C16636   2.706   2.561   9.563 -2.4477 -0.1856  0.0159
  141DOPC   C1116637   2.740   2.510   9.143 -0.1960 -0.2681  0.1942
  141DOPC  H11A16638   2.660   2.587   9.137  1.7074  1.7137 -2.9176
  141DOPC  H11B16639   2.823   2.560   9.089 -1.3071 -0.0011 -1.3482
  141DOPC     P16640   2.592   2.363   8.988 -0.2176 -0.2646 -0.4046
  141DOPC   O1316641   2.465   2.400   9.052 -0.3666 -0.1973  0.0969
  141DOPC   O1416642   2.599   2.226   8.942 -0.1356  0.0841 -0.5050
  141DOPC   O1216643   2.718   2.387   9.080  0.0512  0.2522 -0.7581
  141DOPC   O1116644   2.603   2.460   8.871 -0.6749  0.1651 -0.1436
  141DOPC    C116645   2.721   2.465   8.780  0.6381 -0.2208  0.0375
  141DOPC    HA16646   2.817   2.435   8.828  0.0628 -0.1094  1.3019
  141DOPC    HB16647   2.731   2.573   8.756  0.7227 -0.4023 -0.7513
  141DOPC    C216648   2.693   2.390   8.647  0.0715 -0.2512  0.2121
  141DOPC    HS16649   2.683   2.280   8.661  3.5214 -0.5441  1.3287
  141DOPC   O2116650   2.796   2.419   8.552 -0.0983  0.5557  0.0800
  141DOPC   C2116651   2.902   2.349   8.566  0.3617 -0.0420 -0.2910
  141DOPC   O2216652   2.943   2.296   8.667 -0.9430 -0.1660  0.1651
  141DOPC   C2216653   2.977   2.339   8.431  0.3185 -0.4232 -0.2701
  141DOPC   H2R16654   3.071   2.386   8.467  0.1910 -1.0173  0.8798
  141DOPC   H2S16655   2.935   2.403   8.350 -2.3538  0.2485  1.5097
  141DOPC    C316656   2.568   2.448   8.585 -0.4249 -0.3818  0.5208
  141DOPC    HX16657   2.570   2.559   8.581  2.8926 -0.3834 -2.1723
  141DOPC    HY16658   2.487   2.430   8.660 -0.3190 -1.2471  0.4350
  141DOPC   O3116659   2.535   2.403   8.451  0.3268  0.4819 -0.7375
  141DOPC   C3116660   2.412   2.431   8.418  0.0455  0.4571  0.3521
  141DOPC   O3216661   2.332   2.483   8.488 -0.1996 -0.7610 -0.5061
  141DOPC   C3216662   2.391   2.381   8.273 -0.0207 -0.1931 -0.0383
  141DOPC   H2X16663   2.466   2.439   8.215  1.0871 -2.8390 -1.4323
  141DOPC   H2Y16664   2.433   2.279   8.262  2.6642  0.9363 -0.9842
  141DOPC   C2316665   3.001   2.193   8.407 -0.4537 -0.4922  0.1124
  141DOPC   H3R16666   2.912   2.146   8.361 -1.0770  1.7517 -1.1337
  141DOPC   H3S16667   3.032   2.140   8.499 -1.5837 -2.7281 -0.7187
  141DOPC   C2416668   3.120   2.182   8.308  0.2582  0.4199 -0.4564
  141DOPC   H4R16669   3.148   2.075   8.309 -2.0949 -0.2607 -0.9675
  141DOPC   H4S16670   3.203   2.245   8.347 -1.8510  2.8836  0.3225
  141DOPC   C2516671   3.083   2.213   8.169  0.5642  0.4766 -0.0218
  141DOPC   H5R16672   3.050   2.319   8.171 -0.3902  0.1797  0.8539
  141DOPC   H5S16673   3.002   2.144   8.134  2.1080 -1.7784  0.6075
  141DOPC   C2616674   3.196   2.213   8.064  0.4618 -0.5228 -0.3335
  141DOPC   H6R16675   3.243   2.113   8.054 -1.5252 -1.4687 -0.7929
  141DOPC   H6S16676   3.272   2.281   8.108 -1.3737  0.1214  2.0794
  141DOPC   C2716677   3.159   2.259   7.927  0.4425  0.1442  0.2292
  141DOPC   H7R16678   3.249   2.275   7.864 -1.4486 -0.3235 -2.7952
  141DOPC   H7S16679   3.114   2.359   7.941 -0.8731 -0.5432  1.2300
  141DOPC   C2816680   3.047   2.185   7.848 -0.6275  0.1389  0.3202
  141DOPC   H8R16681   3.025   2.251   7.761 -0.1438 -1.7609 -1.2958
  141DOPC   H8S16682   2.948   2.183   7.899 -1.2615  0.5238 -0.8615
  141DOPC   C2916683   3.078   2.044   7.805  0.3097  0.4783  0.2265
  141DOPC   H9R16684   3.119   1.973   7.878  0.7825 -0.9953 -1.4052
  141DOPC  C21016685   3.060   1.995   7.678 -0.1134  0.3868 -1.1587
  141DOPC  H10R16686   3.090   1.889   7.671 -0.2331  0.0676  1.7839
  141DOPC  C21116687   3.005   2.053   7.546 -0.1458  0.5471  0.0809
  141DOPC  H11R16688   2.992   2.164   7.551 -0.5085  0.4441  2.1606
  141DOPC  H11S16689   2.907   2.009   7.521 -0.7169  1.6849  0.2477
  141DOPC  C21216690   3.102   2.035   7.431  0.4744  0.1462 -0.4687
  141DOPC  H12R16691   3.116   1.930   7.396  1.2984  0.0156  0.2291
  141DOPC  H12S16692   3.196   2.065   7.481  0.0523 -1.6765  1.5888
  141DOPC  C21316693   3.099   2.123   7.299 -0.1933  0.7626 -0.8570
  141DOPC  H13R16694   3.019   2.083   7.233  1.6680 -0.8675 -2.2156
  141DOPC  H13S16695   3.199   2.114   7.252 -0.1630  1.5570 -0.9526
  141DOPC  C21416696   3.069   2.272   7.327  0.0967  0.2811 -0.4204
  141DOPC  H14R16697   2.971   2.299   7.374  1.3289 -0.4987  2.8938
  141DOPC  H14S16698   3.071   2.325   7.230 -0.4220  0.1253 -0.5203
  141DOPC  C21516699   3.182   2.339   7.407  0.2604 -0.3674 -0.1819
  141DOPC  H15R16700   3.277   2.283   7.397 -0.1224 -1.2689  1.0573
  141DOPC  H15S16701   3.159   2.323   7.514  0.6195 -0.5969 -0.1385
  141DOPC  C21616702   3.216   2.492   7.380 -0.8891  0.1291  0.3788
  141DOPC  H16R16703   3.243   2.494   7.272  0.1565 -3.6871  0.4085
  141DOPC  H16S16704   3.307   2.520   7.438 -0.0831 -0.8844 -0.3642
  141DOPC  C21716705   3.105   2.605   7.402  0.0569  0.3560  0.8363
  141DOPC  H17R16706   3.047   2.587   7.495 -0.2840 -1.1499  0.3721
  141DOPC  H17S16707   3.038   2.612   7.313 -1.5573  1.3726  2.0711
  141DOPC  C21816708   3.175   2.738   7.407 -0.3476  0.4978  0.5662
  141DOPC  H18R16709   3.241   2.750   7.495  0.4904 -0.9093  0.1587
  141DOPC  H18S16710   3.108   2.826   7.395 -2.2397 -0.7865  1.2397
  141DOPC  H18T16711   3.234   2.752   7.314  1.4790 -0.7906  1.4689
  141DOPC   C3316712   2.244   2.385   8.220  0.0304 -0.2090 -0.1471
  141DOPC   H3X16713   2.203   2.488   8.229  2.8068  0.8226  1.7903
  141DOPC   H3Y16714   2.189   2.310   8.282  1.1286 -1.0618 -0.1757
  141DOPC   C3416715   2.229   2.350   8.067 -0.2200  0.5705  0.4808
  141DOPC   H4X16716   2.126   2.316   8.043  0.4890 -0.2177 -1.6066
  141DOPC   H4Y16717   2.295   2.262   8.055 -2.1762 -1.8499  4.9737
  141DOPC   C3516718   2.273   2.464   7.977  0.2693 -0.3166 -0.4125
  141DOPC   H5X16719   2.376   2.492   8.005  0.8038 -3.0336  0.6766
  141DOPC   H5Y16720   2.210   2.554   7.993 -1.1297 -1.5257  1.3022
  141DOPC   C3616721   2.278   2.439   7.830  0.0007  0.3239  0.0939
  141DOPC   H6X16722   2.177   2.406   7.797  0.7969 -2.1591 -0.1220
  141DOPC   H6Y16723   2.308   2.529   7.773 -1.4426  0.9317  0.2347
  141DOPC   C3716724   2.382   2.333   7.796  0.3037  0.2502 -0.6889
  141DOPC   H7X16725   2.477   2.357   7.847 -0.8233  2.3174  0.5718
  141DOPC   H7Y16726   2.360   2.230   7.832 -0.0526  0.4245 -0.4047
  141DOPC   C3816727   2.420   2.320   7.649  0.3070  0.2015  0.1924
  141DOPC   H8X16728   2.508   2.252   7.648 -0.5227 -0.9010 -0.7125
  141DOPC   H8Y16729   2.461   2.420   7.624  2.7920 -0.8740 -0.3082
  141DOPC   C3916730   2.302   2.273   7.565  0.4555 -0.0070  0.5421
  141DOPC   H9X16731   2.267   2.170   7.579  0.5860 -0.6140 -2.7717
  141DOPC  C31016732   2.229   2.352   7.482  0.1701  0.6683 -0.2480
  141DOPC  H10X16733   2.151   2.308   7.419 -0.2406 -0.1618  0.8152
  141DOPC  C31116734   2.267   2.495   7.446  0.4882 -0.2212 -0.0854
  141DOPC  H11X16735   2.359   2.531   7.497 -0.0229  0.8732  0.1002
  141DOPC  H11Y16736   2.189   2.573   7.459  1.9325  0.9468  2.3066
  141DOPC  C31216737   2.291   2.505   7.291  0.2408 -0.2615  0.1900
  141DOPC  H12X16738   2.193   2.486   7.242 -0.8558  0.5203  1.9856
  141DOPC  H12Y16739   2.367   2.436   7.247  1.2799  2.3119 -2.4044
  141DOPC  C31316740   2.327   2.643   7.243  0.1425 -0.0858  0.2761
  141DOPC  H13X16741   2.235   2.700   7.266 -0.2552 -0.2913 -0.7307
  141DOPC  H13Y16742   2.416   2.687   7.292 -1.0686  2.8335  0.0435
  141DOPC  C31416743   2.370   2.639   7.095 -0.3339  0.1992  0.2016
  141DOPC  H14X16744   2.442   2.556   7.079 -1.4967 -0.4212 -2.2441
  141DOPC  H14Y16745   2.277   2.616   7.039 -0.9442 -0.6042  1.4982
  141DOPC  C31516746   2.434   2.764   7.040  0.2544 -0.6102 -0.1896
  141DOPC  H15X16747   2.373   2.857   7.052  0.8910 -0.2481  0.3004
  141DOPC  H15Y16748   2.465   2.746   6.935 -0.8567  0.3426 -0.7089
  141DOPC  C31616749   2.566   2.798   7.112 -0.2929  1.3127  0.3108
  141DOPC  H16X16750   2.549   2.834   7.216  0.3125  2.3027  0.0776
  141DOPC  H16Y16751   2.626   2.704   7.120 -0.9398  0.7894 -0.8078
  141DOPC  C31716752   2.655   2.907   7.042  0.7032 -0.5665 -0.0694
  141DOPC  H17X16753   2.754   2.891   7.089  0.0019  1.0014  2.0828
  141DOPC  H17Y16754   2.653   2.898   6.931  1.0800  3.0805 -0.4990
  141DOPC  C31816755   2.611   3.051   7.083 -0.2658 -0.0491  0.4982
  141DOPC  H18X16756   2.505   3.063   7.051  0.6872 -0.8956 -3.5832
  141DOPC  H18Y16757   2.610   3.051   7.194 -0.9091  0.3190  0.4977
  141DOPC  H18Z16758   2.674   3.135   7.048 -0.5377  0.8864  2.1520
  142DOPC     N16759   4.371   3.811   8.690 -0.3402 -0.0015  0.2174
  142DOPC   C1216760   4.374   3.662   8.646 -0.7366  0.5130 -0.2646
  142DOPC  H12A16761   4.312   3.605   8.714 -0.2929 -1.5217 -1.4710
  142DOPC  H12B16762   4.476   3.630   8.659 -0.6765 -0.0762 -2.0170
  142DOPC   C1316763   4.378   3.835   8.835 -0.4880  0.6923  0.4717
  142DOPC  H13A16764   4.456   3.773   8.874 -0.4903 -1.0096 -1.9994
  142DOPC  H13B16765   4.397   3.940   8.851  0.4381  0.8805 -1.5014
  142DOPC  H13C16766   4.285   3.802   8.879 -0.1534  0.3613  0.9300
  142DOPC   C1416767   4.239   3.877   8.654  0.4446 -0.7036 -0.4376
  142DOPC  H14A16768   4.157   3.834   8.710  0.9399 -0.4331  0.5284
  142DOPC  H14B16769   4.235   3.983   8.678  1.8263 -0.2591 -1.9972
  142DOPC  H14C16770   4.217   3.856   8.551 -0.1708 -0.0332 -0.4550
  142DOPC   C1516771   4.476   3.895   8.613  0.8746  0.3753 -0.0099
  142DOPC  H15A16772   4.579   3.861   8.610  0.3312 -1.3181 -1.0239
  142DOPC  H15B16773   4.476   4.000   8.638  0.8636  1.0014 -2.3682
  142DOPC  H15C16774   4.453   3.886   8.508 -2.0879 -0.2681  0.6224
  142DOPC   C1116775   4.330   3.640   8.502 -0.8118  0.3122  0.3922
  142DOPC  H11A16776   4.399   3.694   8.433 -0.5710  0.4194  0.7085
  142DOPC  H11B16777   4.358   3.533   8.493 -2.5682 -0.0627 -1.0348
  142DOPC     P16778   4.092   3.552   8.453  0.0037 -0.4560 -0.1047
  142DOPC   O1316779   3.971   3.604   8.386 -0.5573  0.9044 -0.4972
  142DOPC   O1416780   4.073   3.477   8.580 -0.0479  0.4963 -0.0769
  142DOPC   O1216781   4.193   3.663   8.475  0.7560  0.1464 -0.0927
  142DOPC   O1116782   4.159   3.458   8.351  0.1511  0.1913  0.3230
  142DOPC    C116783   4.181   3.492   8.215 -0.0959  0.5594  0.2734
  142DOPC    HA16784   4.280   3.454   8.183  0.4099  1.8104  0.2949
  142DOPC    HB16785   4.184   3.600   8.192  2.8849  0.2959 -0.9686
  142DOPC    C216786   4.070   3.429   8.122  0.7860 -0.7771 -0.2001
  142DOPC    HS16787   3.968   3.453   8.161  1.1258  1.1740 -0.4123
  142DOPC   O2116788   4.083   3.287   8.121 -0.5309  0.3112 -0.0057
  142DOPC   C2116789   3.980   3.213   8.101 -0.8323 -0.6416 -0.1620
  142DOPC   O2216790   3.875   3.256   8.067 -0.4898 -0.1297 -0.1598
  142DOPC   C2216791   4.006   3.071   8.132  0.6454 -1.0432 -0.0046
  142DOPC   H2R16792   3.937   3.053   8.218 -1.1628  2.7715 -0.4168
  142DOPC   H2S16793   4.111   3.061   8.167  0.3619 -1.0890  0.8790
  142DOPC    C316794   4.063   3.490   7.977 -0.4641  0.0990 -0.4670
  142DOPC    HX16795   4.007   3.585   7.990 -2.9906 -1.4354  0.7251
  142DOPC    HY16796   4.008   3.425   7.905 -2.8820  3.0729 -1.5234
  142DOPC   O3116797   4.193   3.516   7.920 -0.0019 -0.2590  0.2180
  142DOPC   C3116798   4.189   3.577   7.809  0.3555 -0.1493 -0.4573
  142DOPC   O3216799   4.087   3.609   7.745 -0.3118 -0.4638 -0.4811
  142DOPC   C3216800   4.330   3.607   7.773 -0.2897 -0.3958 -0.5927
  142DOPC   H2X16801   4.383   3.656   7.859 -0.9675  3.3042 -2.0854
  142DOPC   H2Y16802   4.389   3.521   7.735  0.0611  0.6412 -2.5129
  142DOPC   C2316803   3.971   2.975   8.023 -0.2026  0.5485 -0.3733
  142DOPC   H3R16804   3.860   2.970   8.019 -0.4518  2.6014  1.5397
  142DOPC   H3S16805   4.010   2.873   8.043 -0.7735  0.5612  0.9249
  142DOPC   C2416806   4.028   3.021   7.879 -0.2083  0.7363 -0.3714
  142DOPC   H4R16807   4.139   3.019   7.885 -0.2023  1.3476 -0.1949
  142DOPC   H4S16808   3.999   3.125   7.855 -0.1841  1.0441  0.8866
  142DOPC   C2516809   3.991   2.931   7.763 -0.1111 -0.0392 -0.0446
  142DOPC   H5R16810   3.880   2.937   7.756 -0.0692 -0.1309 -0.9005
  142DOPC   H5S16811   4.009   2.827   7.799  1.4377  0.2032 -0.0641
  142DOPC   C2616812   4.045   2.976   7.623 -0.1529  0.3201  0.0305
  142DOPC   H6R16813   4.148   2.937   7.607  0.7627  1.1373  3.0953
  142DOPC   H6S16814   4.048   3.086   7.607 -0.3009  0.2973 -0.1520
  142DOPC   C2716815   3.954   2.924   7.509 -0.2133  0.1902 -0.1232
  142DOPC   H7R16816   3.855   2.974   7.505  0.9416  2.6180 -0.3751
  142DOPC   H7S16817   3.943   2.814   7.519  0.9246  0.0348 -0.4999
  142DOPC   C2816818   4.009   2.940   7.363  0.3159 -0.0853 -0.3395
  142DOPC   H8R16819   4.100   2.876   7.366 -0.9815 -2.0090 -0.2571
  142DOPC   H8S16820   4.040   3.047   7.355 -2.6628  1.1477  2.4964
  142DOPC   C2916821   3.911   2.891   7.258 -0.8532 -0.0584  0.2327
  142DOPC   H9R16822   3.807   2.915   7.283 -0.9978  0.2134 -0.5922
  142DOPC  C21016823   3.936   2.811   7.159  0.2199 -0.0551 -0.6073
  142DOPC  H10R16824   3.847   2.796   7.096 -0.3502  1.3336 -0.1810
  142DOPC  C21116825   4.066   2.747   7.116  0.4993  0.0758 -0.2609
  142DOPC  H11R16826   4.054   2.639   7.095  5.3614 -1.0230  1.3580
  142DOPC  H11S16827   4.149   2.748   7.190  0.3036 -1.3363  0.0016
  142DOPC  C21216828   4.126   2.804   6.981 -0.3150 -0.7216  0.1263
  142DOPC  H12R16829   4.225   2.755   6.971 -1.3825 -2.8027 -1.0999
  142DOPC  H12S16830   4.141   2.913   6.986 -0.2115 -0.7647  0.8422
  142DOPC  C21316831   4.046   2.768   6.854  0.0260  0.1999 -0.0133
  142DOPC  H13R16832   3.937   2.789   6.856  0.2044  1.1612  0.3944
  142DOPC  H13S16833   4.037   2.658   6.848  1.4457  0.0453  0.3699
  142DOPC  C21416834   4.107   2.817   6.723  0.1782  0.6069 -0.2365
  142DOPC  H14R16835   4.218   2.815   6.731  0.2183 -1.5642 -0.7806
  142DOPC  H14S16836   4.073   2.921   6.704 -1.8158  0.0559  0.0668
  142DOPC  C21516837   4.062   2.736   6.600 -0.0386  0.1694 -0.2478
  142DOPC  H15R16838   3.951   2.728   6.605  0.0475 -0.1866  1.9937
  142DOPC  H15S16839   4.101   2.632   6.608 -0.5244  0.0366  0.4245
  142DOPC  C21616840   4.108   2.811   6.473 -0.8277  0.0580  0.0155
  142DOPC  H16R16841   4.218   2.827   6.474 -0.8904  0.6739 -1.2381
  142DOPC  H16S16842   4.068   2.914   6.472  1.2660  0.9229 -1.8263
  142DOPC  C21716843   4.066   2.733   6.347  0.3240  0.1188 -0.5824
  142DOPC  H17R16844   4.066   2.798   6.257 -0.1909  3.2165  1.4829
  142DOPC  H17S16845   3.959   2.705   6.359  0.2365  1.5671  3.3426
  142DOPC  C21816846   4.150   2.604   6.311  0.3510 -0.2409  0.2097
  142DOPC  H18R16847   4.105   2.560   6.220  1.1404  0.9627 -0.7926
  142DOPC  H18S16848   4.155   2.534   6.397 -2.6452  0.1222  0.7918
  142DOPC  H18T16849   4.254   2.629   6.280 -0.1799  1.4102 -0.3380
  142DOPC   C3316850   4.342   3.707   7.660 -0.4684  0.1783 -0.1719
  142DOPC   H3X16851   4.450   3.733   7.659 -0.1547 -0.8252  1.8577
  142DOPC   H3Y16852   4.293   3.806   7.674 -0.3754  0.4161 -1.4106
  142DOPC   C3416853   4.309   3.640   7.523 -0.3631 -0.7339  0.2418
  142DOPC   H4X16854   4.201   3.612   7.525 -0.4103 -0.7366 -1.1950
  142DOPC   H4Y16855   4.375   3.552   7.513  1.8889  0.9075 -0.2224
  142DOPC   C3516856   4.347   3.740   7.412 -0.4164  0.2787 -0.2282
  142DOPC   H5X16857   4.437   3.804   7.425 -0.2748  0.1836 -0.7290
  142DOPC   H5Y16858   4.261   3.812   7.413 -0.5254  0.1512 -0.4108
  142DOPC   C3616859   4.324   3.684   7.268  0.2356 -0.2613  0.1687
  142DOPC   H6X16860   4.417   3.627   7.247  0.2252  0.1830 -1.1371
  142DOPC   H6Y16861   4.233   3.622   7.261  0.1459 -0.0794 -0.3231
  142DOPC   C3716862   4.310   3.794   7.161 -0.3389  0.5156  0.5997
  142DOPC   H7X16863   4.224   3.856   7.196 -2.1336 -1.8696  0.6955
  142DOPC   H7Y16864   4.401   3.856   7.171  0.7740 -1.2121  1.7314
  142DOPC   C3816865   4.285   3.742   7.019  0.6122 -0.2432 -0.3568
  142DOPC   H8X16866   4.236   3.826   6.965  0.0321 -0.6754 -0.5140
  142DOPC   H8Y16867   4.219   3.653   7.030 -0.9056  1.0171  1.4148
  142DOPC   C3916868   4.419   3.711   6.962 -1.1020 -0.0850  0.2312
  142DOPC   H9X16869   4.497   3.704   7.039 -0.9332  2.0568  0.2932
  142DOPC  C31016870   4.467   3.709   6.834 -0.0338  0.6185  0.0904
  142DOPC  H10X16871   4.574   3.687   6.832  0.0035  0.7592 -2.4128
  142DOPC  C31116872   4.385   3.729   6.710 -0.3262  0.6447 -0.2951
  142DOPC  H11X16873   4.421   3.822   6.663  0.1040  1.3401  1.3566
  142DOPC  H11Y16874   4.279   3.738   6.742 -0.4051  0.7695 -0.5847
  142DOPC  C31216875   4.410   3.603   6.618 -0.1591  0.3854  0.5490
  142DOPC  H12X16876   4.396   3.514   6.682 -0.0762  0.3241  0.4804
  142DOPC  H12Y16877   4.515   3.595   6.584 -0.8910  1.2981 -2.2498
  142DOPC  C31316878   4.326   3.594   6.491 -0.3206 -0.4760 -0.0583
  142DOPC  H13X16879   4.218   3.591   6.517 -0.2487  0.1700  0.3423
  142DOPC  H13Y16880   4.349   3.689   6.439  4.2233 -1.2831  0.1302
  142DOPC  C31416881   4.361   3.478   6.403 -0.2212  0.4777 -0.6362
  142DOPC  H14X16882   4.466   3.473   6.367 -0.2735  0.8644 -0.8506
  142DOPC  H14Y16883   4.335   3.379   6.445  1.4419 -1.5605 -3.9946
  142DOPC  C31516884   4.272   3.492   6.274 -0.3372  0.0663 -0.1632
  142DOPC  H15X16885   4.305   3.583   6.220 -1.2401  0.4046 -0.1509
  142DOPC  H15Y16886   4.162   3.494   6.289 -0.3307  1.7240 -0.1635
  142DOPC  C31616887   4.319   3.380   6.176  0.5578  0.3857  0.5734
  142DOPC  H16X16888   4.419   3.401   6.132 -0.6505 -1.2879 -3.5086
  142DOPC  H16Y16889   4.317   3.285   6.234 -2.0062 -0.5828 -0.9064
  142DOPC  C31716890   4.229   3.348   6.057  0.0771  1.1577  0.1296
  142DOPC  H17X16891   4.143   3.281   6.080  1.3449 -0.8658 -0.7043
  142DOPC  H17Y16892   4.194   3.445   6.016  1.5960  0.5661 -2.8454
  142DOPC  C31816893   4.303   3.285   5.937  0.2785  0.9696  0.3113
  142DOPC  H18X16894   4.235   3.289   5.848  0.0112  0.4693  0.4921
  142DOPC  H18Y16895   4.383   3.358   5.911  1.4416 -0.4506 -0.1996
  142DOPC  H18Z16896   4.337   3.185   5.969  0.3525  0.2136 -1.9423
  143DOPC     N16897   1.632   3.525   8.624  0.0455  0.3472  0.0279
  143DOPC   C1216898   1.679   3.385   8.659  0.2746 -0.2125 -0.5600
  143DOPC  H12A16899   1.604   3.333   8.718  2.1787 -1.4262  0.9119
  143DOPC  H12B16900   1.758   3.393   8.732  0.9789  0.3092 -1.3678
  143DOPC   C1316901   1.505   3.512   8.541  0.0582 -0.3891 -0.8271
  143DOPC  H13A16902   1.521   3.443   8.459 -1.8452 -1.3954 -0.4272
  143DOPC  H13B16903   1.430   3.467   8.604  0.6298 -1.1815 -0.6981
  143DOPC  H13C16904   1.465   3.604   8.501  0.2663  0.5253  0.9702
  143DOPC   C1416905   1.732   3.606   8.555 -0.8396 -0.5747  0.0763
  143DOPC  H14A16906   1.703   3.710   8.545 -0.1429 -0.4726 -1.0891
  143DOPC  H14B16907   1.823   3.607   8.613 -0.0470  3.7567 -0.8974
  143DOPC  H14C16908   1.751   3.569   8.455 -0.6039  1.0782 -0.5298
  143DOPC   C1516909   1.608   3.600   8.751 -0.2288  0.3797  0.4166
  143DOPC  H15A16910   1.574   3.702   8.746 -0.7233  0.2114  0.3109
  143DOPC  H15B16911   1.699   3.595   8.809 -0.4996  0.2006  0.8235
  143DOPC  H15C16912   1.532   3.555   8.813  0.5661  1.6669  2.3800
  143DOPC   C1116913   1.739   3.289   8.557  0.9556  0.0246  0.0600
  143DOPC  H11A16914   1.748   3.192   8.611 -4.2835  0.1554  1.7580
  143DOPC  H11B16915   1.664   3.266   8.479  1.4282 -1.5564  0.0363
  143DOPC     P16916   1.992   3.346   8.587  0.0135  0.0148 -0.2630
  143DOPC   O1316917   1.956   3.302   8.730  0.5461 -0.0644  0.3846
  143DOPC   O1416918   2.068   3.471   8.569  0.1789 -0.2023 -0.2922
  143DOPC   O1216919   1.862   3.336   8.499 -0.3603  0.1843 -0.3080
  143DOPC   O1116920   2.088   3.230   8.532  0.1727 -0.4723  0.0802
  143DOPC    C116921   2.071   3.180   8.403 -0.5654 -0.1635 -0.5173
  143DOPC    HA16922   1.964   3.157   8.384 -0.2439 -1.7152 -0.6361
  143DOPC    HB16923   2.122   3.081   8.401  0.9718  0.5558  0.8226
  143DOPC    C216924   2.121   3.275   8.294 -0.7481  0.2615  0.3678
  143DOPC    HS16925   2.073   3.373   8.317 -1.4941 -0.4427  1.9991
  143DOPC   O2116926   2.088   3.217   8.164 -0.2449  0.0180 -0.1586
  143DOPC   C2116927   2.095   3.297   8.060  0.0219  0.0480  0.1056
  143DOPC   O2216928   2.120   3.415   8.069 -0.1458  0.1141  0.4513
  143DOPC   C2216929   2.074   3.228   7.921  0.1875  0.6525 -0.3901
  143DOPC   H2R16930   2.030   3.125   7.921  3.1444 -0.7142 -1.9125
  143DOPC   H2S16931   2.177   3.220   7.882 -0.0359  3.0742 -1.6220
  143DOPC    C316932   2.273   3.286   8.309  0.2825 -0.5054 -0.4701
  143DOPC    HX16933   2.285   3.330   8.411 -2.2242  0.4590 -0.5028
  143DOPC    HY16934   2.297   3.366   8.236 -0.6644  1.3435  1.1270
  143DOPC   O3116935   2.353   3.164   8.279 -0.1842 -0.3506  0.5704
  143DOPC   C3116936   2.480   3.175   8.305  0.5456 -0.1599 -0.3914
  143DOPC   O3216937   2.533   3.269   8.359  0.6913  0.2779  0.6063
  143DOPC   C3216938   2.554   3.046   8.265 -0.0964 -0.4620 -0.2093
  143DOPC   H2X16939   2.622   3.016   8.347 -2.3048  1.7180  2.6213
  143DOPC   H2Y16940   2.492   2.954   8.270 -1.6507  0.6249  2.0139
  143DOPC   C2316941   2.006   3.330   7.834  0.1790  0.1311  0.1604
  143DOPC   H3R16942   2.076   3.415   7.823  1.7558 -1.0096  1.0227
  143DOPC   H3S16943   1.916   3.377   7.880 -1.1648 -0.8344 -1.3254
  143DOPC   C2416944   1.954   3.279   7.699  0.7322 -0.1177 -1.0282
  143DOPC   H4R16945   2.038   3.227   7.648  0.9335 -1.1018  0.2650
  143DOPC   H4S16946   1.938   3.376   7.647  0.4860 -0.3271 -1.3472
  143DOPC   C2516947   1.830   3.191   7.699  0.1696 -0.2313  0.0196
  143DOPC   H5R16948   1.737   3.244   7.729  2.0930  2.3810  1.8353
  143DOPC   H5S16949   1.849   3.101   7.761 -1.4950 -2.1778 -2.1094
  143DOPC   C2616950   1.818   3.124   7.562 -0.8762  0.1330 -0.0002
  143DOPC   H6R16951   1.916   3.074   7.548 -1.4496 -0.6493 -1.4636
  143DOPC   H6S16952   1.822   3.206   7.486  3.7853 -0.1495 -0.3652
  143DOPC   C2716953   1.714   3.010   7.561  0.0593  0.2954 -0.8438
  143DOPC   H7R16954   1.616   3.040   7.605 -0.5574 -3.3438  0.6541
  143DOPC   H7S16955   1.747   2.938   7.639 -1.9896 -0.2909 -0.4481
  143DOPC   C2816956   1.699   2.936   7.428 -0.5263 -0.4009 -0.0894
  143DOPC   H8R16957   1.665   2.833   7.452 -1.3641 -0.0292  0.3560
  143DOPC   H8S16958   1.796   2.932   7.375  0.5140 -0.3940  1.7546
  143DOPC   C2916959   1.609   3.009   7.338 -0.5085 -0.3726  0.1992
  143DOPC   H9R16960   1.635   3.116   7.334  1.1826 -0.6507  2.1966
  143DOPC  C21016961   1.502   2.977   7.262 -0.2627 -0.7423 -1.1028
  143DOPC  H10R16962   1.441   3.049   7.205 -0.9932  0.6009  1.2557
  143DOPC  C21116963   1.445   2.839   7.246  0.0321  1.1482 -0.3279
  143DOPC  H11R16964   1.387   2.821   7.339 -0.3392  1.7229 -0.4418
  143DOPC  H11S16965   1.525   2.762   7.243 -0.6414  0.4339 -0.3878
  143DOPC  C21216966   1.366   2.821   7.118  0.0329 -0.9795 -0.5120
  143DOPC  H12R16967   1.282   2.893   7.111  0.8163  0.1481  0.9114
  143DOPC  H12S16968   1.312   2.725   7.131  0.7678 -0.9911  4.1617
  143DOPC  C21316969   1.457   2.831   6.991 -0.3188  0.5818 -0.1118
  143DOPC  H13R16970   1.412   2.754   6.925 -1.6858  1.9088 -0.7931
  143DOPC  H13S16971   1.563   2.805   7.016 -0.9774 -0.7173  1.5017
  143DOPC  C21416972   1.463   2.966   6.905  0.1846  0.0309  0.4733
  143DOPC  H14R16973   1.529   3.031   6.966  1.0664 -0.9641  0.6109
  143DOPC  H14S16974   1.368   3.024   6.903  1.6600  2.7061 -3.3450
  143DOPC  C21516975   1.527   2.956   6.773 -0.4036  0.1254  0.0336
  143DOPC  H15R16976   1.484   2.868   6.720 -2.1378  1.9382 -1.7592
  143DOPC  H15S16977   1.636   2.943   6.792 -0.4431 -1.1961 -0.5159
  143DOPC  C21616978   1.500   3.085   6.692 -0.2477  0.7437 -0.1023
  143DOPC  H16R16979   1.552   3.161   6.754 -0.9881 -0.6699  2.4188
  143DOPC  H16S16980   1.392   3.107   6.698 -0.2608  0.4826  0.7180
  143DOPC  C21716981   1.564   3.090   6.553  0.1908 -0.4556  0.1178
  143DOPC  H17R16982   1.521   3.015   6.483  0.5086 -0.5019 -0.0297
  143DOPC  H17S16983   1.668   3.051   6.561  0.0197 -0.7389  1.1135
  143DOPC  C21816984   1.583   3.229   6.500  0.3244  0.1776 -0.4456
  143DOPC  H18R16985   1.617   3.245   6.395  1.0112  1.0021 -0.1052
  143DOPC  H18S16986   1.644   3.294   6.566 -0.1651  0.8565 -0.6456
  143DOPC  H18T16987   1.483   3.277   6.504  0.2126  0.1524 -2.1156
  143DOPC   C3316988   2.639   3.065   8.136  0.0536  0.3043 -0.1245
  143DOPC   H3X16989   2.704   2.976   8.125  0.2373  0.4303 -0.0633
  143DOPC   H3Y16990   2.714   3.146   8.145  2.6368 -1.7744 -1.5919
  143DOPC   C3416991   2.561   3.072   8.005 -0.0567 -0.2968  0.9472
  143DOPC   H4X16992   2.478   3.145   8.021 -2.1046 -2.5761  1.3471
  143DOPC   H4Y16993   2.514   2.975   7.979  0.9467 -0.0495 -2.2408
  143DOPC   C3516994   2.647   3.099   7.884  0.2274 -0.0462 -0.5159
  143DOPC   H5X16995   2.728   3.023   7.893 -0.5724 -1.5425 -4.0919
  143DOPC   H5Y16996   2.706   3.192   7.901 -0.9886  0.4533  1.2927
  143DOPC   C3616997   2.576   3.104   7.760 -0.0455  0.4130  0.6105
  143DOPC   H6X16998   2.558   3.000   7.723  0.0754  0.6312 -0.0713
  143DOPC   H6Y16999   2.475   3.146   7.776  0.1470  1.0109  0.2631
  143DOPC   C3717000   2.647   3.186   7.654  0.0369  0.2396 -0.8362
  143DOPC   H7X17001   2.652   3.293   7.680  4.2177  0.2644 -1.0534
  143DOPC   H7Y17002   2.750   3.144   7.645 -0.6828 -1.7630 -0.2992
  143DOPC   C3817003   2.582   3.174   7.517  0.6477 -0.1429  0.5591
  143DOPC   H8X17004   2.638   3.231   7.440 -1.1524 -1.7733 -2.1524
  143DOPC   H8Y17005   2.476   3.207   7.518  0.9359  0.8342  0.1748
  143DOPC   C3917006   2.596   3.038   7.458  0.9888  1.2284 -0.0566
  143DOPC   H9X17007   2.694   3.003   7.420  0.5319  0.7449 -0.8135
  143DOPC  C31017008   2.503   2.946   7.451  0.3241 -0.0238  0.6947
  143DOPC  H10X17009   2.513   2.842   7.415 -2.0204  0.2764 -1.0837
  143DOPC  C31117010   2.358   2.967   7.486  0.0385  0.5008  0.4547
  143DOPC  H11X17011   2.293   2.949   7.398  0.8684  2.1981 -0.5611
  143DOPC  H11Y17012   2.332   3.069   7.523 -1.3434  0.7155 -1.0259
  143DOPC  C31217013   2.304   2.866   7.594  0.2352  0.6212  1.2654
  143DOPC  H12X17014   2.369   2.865   7.684 -0.3320 -0.2718  1.6750
  143DOPC  H12Y17015   2.300   2.765   7.548 -2.2018  1.2060  0.0757
  143DOPC  C31317016   2.164   2.900   7.651 -0.4553 -0.1745 -0.7288
  143DOPC  H13X17017   2.168   3.003   7.691  1.9839 -1.0566  1.6046
  143DOPC  H13Y17018   2.091   2.894   7.567 -0.8975  0.5273 -0.4035
  143DOPC  C31417019   2.099   2.831   7.773 -0.2309 -0.0842  0.0472
  143DOPC  H14X17020   1.999   2.871   7.799 -0.7552  0.3037 -2.3329
  143DOPC  H14Y17021   2.085   2.722   7.755 -0.0133 -0.1769  0.4398
  143DOPC  C31517022   2.182   2.842   7.900 -0.2501  0.4376  0.6339
  143DOPC  H15X17023   2.234   2.940   7.908  0.8767  0.0528 -1.4159
  143DOPC  H15Y17024   2.266   2.769   7.901 -1.1619 -0.6428  2.3503
  143DOPC  C31617025   2.105   2.812   8.028  0.2285 -0.9630  0.8693
  143DOPC  H16X17026   2.008   2.866   8.026 -0.1060 -1.5851 -1.1009
  143DOPC  H16Y17027   2.091   2.702   8.028  0.7551 -1.0423 -0.5961
  143DOPC  C31717028   2.194   2.840   8.155 -0.1010 -0.3668  0.5184
  143DOPC  H17X17029   2.288   2.782   8.146  0.0828  0.0449 -0.3963
  143DOPC  H17Y17030   2.207   2.950   8.165 -1.7889 -0.1700  0.7706
  143DOPC  C31817031   2.125   2.797   8.284  0.5542  0.1943 -0.3346
  143DOPC  H18X17032   2.018   2.829   8.282  0.7949  1.0850  0.5491
  143DOPC  H18Y17033   2.130   2.686   8.294  0.8936 -0.0674 -2.7889
  143DOPC  H18Z17034   2.186   2.843   8.364 -0.5876  1.7630 -0.3228
  144DOPC     N17035   2.394   1.673   8.915  0.6700 -0.3217  0.3757
  144DOPC   C1217036   2.370   1.767   8.797  0.2473 -0.0858 -0.1757
  144DOPC  H12A17037   2.434   1.726   8.720 -1.2288 -1.5352 -0.6993
  144DOPC  H12B17038   2.409   1.865   8.822  2.6529 -0.8280 -0.6712
  144DOPC   C1317039   2.331   1.543   8.914  0.3593  0.1687 -0.1866
  144DOPC  H13A17040   2.347   1.495   9.009 -0.7308 -0.3520 -0.2433
  144DOPC  H13B17041   2.225   1.556   8.894  0.9101  1.7929 -2.5283
  144DOPC  H13C17042   2.367   1.473   8.840 -1.4471  0.4094 -1.3888
  144DOPC   C1417043   2.348   1.751   9.032  1.0114 -0.0857  0.3371
  144DOPC  H14A17044   2.242   1.771   9.025  1.1077 -0.1681 -2.3881
  144DOPC  H14B17045   2.363   1.704   9.128  0.0674  0.1635  0.6177
  144DOPC  H14C17046   2.392   1.849   9.040  0.3865  0.1717  0.7661
  144DOPC   C1517047   2.539   1.653   8.936  0.0316  0.1682 -0.4463
  144DOPC  H15A17048   2.547   1.600   9.030 -1.8799  1.7038  0.6751
  144DOPC  H15B17049   2.595   1.745   8.943  1.6214 -0.7929 -0.2273
  144DOPC  H15C17050   2.579   1.599   8.852 -1.4576 -0.2698 -0.9063
  144DOPC   C1117051   2.230   1.778   8.741  0.1385 -0.3150 -0.3391
  144DOPC  H11A17052   2.235   1.835   8.646 -0.5925 -0.5907 -0.5568
  144DOPC  H11B17053   2.195   1.675   8.717  1.6518 -0.4791 -1.9922
  144DOPC     P17054   2.137   1.993   8.869  0.4206 -0.1964  0.1264
  144DOPC   O1317055   2.272   2.041   8.915  0.7332 -0.3153 -0.3220
  144DOPC   O1417056   2.020   2.023   8.961 -0.4010  0.7145  0.1891
  144DOPC   O1217057   2.137   1.844   8.834 -0.6362  0.4766 -0.1550
  144DOPC   O1117058   2.107   2.070   8.731 -0.3636  0.2982  0.0044
  144DOPC    C117059   1.998   2.046   8.642  0.7718  0.8463  0.4044
  144DOPC    HA17060   1.903   2.083   8.686  1.0178  1.1479  0.6907
  144DOPC    HB17061   1.992   1.938   8.618 -0.6668  1.0249 -0.1375
  144DOPC    C217062   2.010   2.135   8.518  0.7369 -0.5346  0.1552
  144DOPC    HS17063   1.907   2.153   8.481  0.2750 -1.4192  0.9716
  144DOPC   O2117064   2.100   2.066   8.433  0.1539  0.0058 -0.2269
  144DOPC   C2117065   2.061   2.049   8.306 -0.4510  0.1929 -0.4121
  144DOPC   O2217066   1.953   2.079   8.263  0.4535 -0.1833 -0.0653
  144DOPC   C2217067   2.159   1.978   8.217 -0.6193 -0.4183  0.1439
  144DOPC   H2R17068   2.213   1.894   8.266 -0.9182 -0.6619  0.0575
  144DOPC   H2S17069   2.238   2.050   8.188  0.3341 -1.5461 -0.1198
  144DOPC    C317070   2.072   2.276   8.559  0.6449  0.0178  0.5482
  144DOPC    HX17071   2.182   2.265   8.569  0.7252 -0.8715 -0.9935
  144DOPC    HY17072   2.027   2.296   8.659  1.0790  0.8968  0.5790
  144DOPC   O3117073   2.025   2.372   8.465 -0.5531 -0.4528  0.3927
  144DOPC   C3117074   1.904   2.417   8.485  0.2374  0.4148 -0.3232
  144DOPC   O3217075   1.838   2.394   8.585  0.8585  0.1000 -0.1784
  144DOPC   C3217076   1.872   2.505   8.372 -0.5936  0.4625  0.7283
  144DOPC   H2X17077   1.790   2.577   8.389  0.9334  2.2667  0.8221
  144DOPC   H2Y17078   1.964   2.559   8.340 -1.0931  0.5581 -0.5992
  144DOPC   C2317079   2.097   1.936   8.083 -0.1487  0.3433 -0.4828
  144DOPC   H3R17080   2.041   2.021   8.038  1.6614  2.1335  0.4782
  144DOPC   H3S17081   2.021   1.855   8.087 -0.2009  0.3759  3.3894
  144DOPC   C2417082   2.207   1.883   8.000 -0.5676  0.5233  0.4241
  144DOPC   H4R17083   2.267   1.809   8.057 -0.5551 -1.9105 -2.5042
  144DOPC   H4S17084   2.282   1.959   7.970 -1.1525  0.5506 -1.0119
  144DOPC   C2517085   2.159   1.808   7.867 -0.2805 -0.4629 -0.4626
  144DOPC   H5R17086   2.106   1.720   7.908  0.4848 -0.4624  0.5773
  144DOPC   H5S17087   2.243   1.768   7.806 -0.6928 -0.4036 -1.0762
  144DOPC   C2617088   2.072   1.895   7.777  0.1099 -0.2560  0.1105
  144DOPC   H6R17089   2.114   1.997   7.771 -0.1619 -0.1573 -0.1615
  144DOPC   H6S17090   1.971   1.904   7.821 -0.7942  0.3377 -1.9375
  144DOPC   C2717091   2.044   1.831   7.640  0.1780  0.0419 -0.0283
  144DOPC   H7R17092   1.937   1.852   7.619 -0.0916  0.3481  1.5215
  144DOPC   H7S17093   2.056   1.721   7.642  0.5684 -0.0577 -2.7979
  144DOPC   C2817094   2.130   1.906   7.535  0.3965  0.1369 -0.2156
  144DOPC   H8R17095   2.228   1.915   7.587  0.4665 -1.2158 -0.0725
  144DOPC   H8S17096   2.092   2.008   7.513 -0.1453 -0.0843 -0.3441
  144DOPC   C2917097   2.140   1.825   7.408 -0.5660  0.0822  0.6660
  144DOPC   H9R17098   2.131   1.716   7.423  1.0207  0.2251  3.2065
  144DOPC  C21017099   2.148   1.873   7.285  0.4399  0.4052 -0.3488
  144DOPC  H10R17100   2.160   1.811   7.195 -1.9134  0.0924 -0.5024
  144DOPC  C21117101   2.167   2.015   7.244 -0.7036 -0.5407  0.1817
  144DOPC  H11R17102   2.276   2.032   7.227 -0.4089 -1.9148  0.5687
  144DOPC  H11S17103   2.132   2.090   7.318 -2.2953 -0.3792 -0.7065
  144DOPC  C21217104   2.105   2.033   7.106  0.2674 -0.4092  0.9325
  144DOPC  H12R17105   1.996   2.022   7.089  0.4117 -0.3816 -0.1149
  144DOPC  H12S17106   2.148   1.959   7.035  0.1530 -1.2589  1.7299
  144DOPC  C21317107   2.138   2.173   7.042  0.2947  0.1062 -0.7659
  144DOPC  H13R17108   2.236   2.164   6.990 -0.2942 -1.1798 -1.7195
  144DOPC  H13S17109   2.157   2.246   7.123 -1.7016 -0.9762  0.7745
  144DOPC  C21417110   2.037   2.236   6.953  0.0920 -0.1907 -0.3659
  144DOPC  H14R17111   1.958   2.293   7.006  0.3825  1.5908 -1.7454
  144DOPC  H14S17112   1.994   2.156   6.888 -1.5147 -0.4358  0.9325
  144DOPC  C21517113   2.112   2.333   6.854  0.2899 -0.1903  0.4516
  144DOPC  H15R17114   2.193   2.294   6.788  2.5178  1.5554  1.9764
  144DOPC  H15S17115   2.168   2.401   6.921  0.0334  0.5390 -0.0655
  144DOPC  C21617116   2.016   2.415   6.768 -0.4056 -0.4512  1.1522
  144DOPC  H16R17117   1.952   2.486   6.825 -0.1082  2.0746 -1.4625
  144DOPC  H16S17118   1.953   2.352   6.702  1.2836 -0.4727 -0.4898
  144DOPC  C21717119   2.086   2.508   6.672  0.0851  0.1276 -0.5282
  144DOPC  H17R17120   2.016   2.561   6.604  0.1481 -0.0283 -0.7143
  144DOPC  H17S17121   2.155   2.453   6.605  0.2905  0.6084 -0.7134
  144DOPC  C21817122   2.155   2.621   6.751 -0.4178  1.2302 -0.2518
  144DOPC  H18R17123   2.096   2.658   6.837 -2.2638  0.9692 -1.3506
  144DOPC  H18S17124   2.179   2.702   6.678 -1.4263  1.7101 -0.0727
  144DOPC  H18T17125   2.244   2.579   6.803 -1.9470 -0.9426  0.7278
  144DOPC   C3317126   1.847   2.399   8.258  0.0477  0.3434 -0.8653
  144DOPC   H3X17127   1.750   2.347   8.272  1.5880 -2.5781 -0.2300
  144DOPC   H3Y17128   1.930   2.325   8.261  1.0024  1.3831 -1.3508
  144DOPC   C3417129   1.846   2.477   8.124  0.1856 -0.5670 -0.1568
  144DOPC   H4X17130   1.946   2.524   8.118 -0.0532  0.0619  0.5369
  144DOPC   H4Y17131   1.779   2.566   8.124  1.3476  0.3512 -1.3084
  144DOPC   C3517132   1.817   2.393   8.003 -0.7306 -0.3070 -0.0477
  144DOPC   H5X17133   1.706   2.393   8.010 -0.8307  3.3745  0.5213
  144DOPC   H5Y17134   1.852   2.288   8.016 -1.0152 -0.3551  0.3995
  144DOPC   C3617135   1.869   2.460   7.879  0.2274  0.0090  0.6959
  144DOPC   H6X17136   1.821   2.560   7.882 -0.4282 -0.3308  1.7206
  144DOPC   H6Y17137   1.978   2.473   7.863 -0.0425  1.3788 -0.2294
  144DOPC   C3717138   1.819   2.391   7.752 -0.0507 -0.4650  0.4493
  144DOPC   H7X17139   1.838   2.282   7.759  0.4560 -0.4624 -0.5960
  144DOPC   H7Y17140   1.709   2.405   7.756 -0.1883 -1.1927 -0.4365
  144DOPC   C3817141   1.864   2.468   7.625 -0.4493  0.3145 -0.1321
  144DOPC   H8X17142   1.969   2.438   7.605  0.2443  1.2749  1.8207
  144DOPC   H8Y17143   1.856   2.578   7.638 -1.8088  0.1574  0.6226
  144DOPC   C3917144   1.783   2.416   7.510  0.2611 -0.3983  0.0759
  144DOPC   H9X17145   1.697   2.353   7.536 -0.3738  0.6265  0.5407
  144DOPC  C31017146   1.807   2.430   7.378 -0.1331 -0.4881  0.5237
  144DOPC  H10X17147   1.722   2.407   7.312 -2.0156  1.2721  2.1825
  144DOPC  C31117148   1.918   2.505   7.318  0.1170  0.3695 -0.0935
  144DOPC  H11X17149   1.963   2.435   7.244  1.6624 -0.0235  1.1714
  144DOPC  H11Y17150   1.995   2.531   7.393  0.7985 -1.0878 -0.2410
  144DOPC  C31217151   1.855   2.629   7.250 -0.0697  0.8750 -0.1926
  144DOPC  H12X17152   1.794   2.694   7.316 -0.4946  0.4925 -0.1997
  144DOPC  H12Y17153   1.781   2.594   7.174 -0.5686  3.9103 -1.2164
  144DOPC  C31317154   1.950   2.723   7.175  0.0851  0.0354  0.4708
  144DOPC  H13X17155   2.032   2.767   7.236  1.0824 -0.5296 -0.4259
  144DOPC  H13Y17156   2.004   2.672   7.092  1.0549 -0.2751  1.2674
  144DOPC  C31417157   1.879   2.840   7.111  0.2246 -0.1134  0.8387
  144DOPC  H14X17158   1.810   2.810   7.028  0.9899 -0.4338  0.3052
  144DOPC  H14Y17159   1.818   2.884   7.192  0.6977 -1.3909  1.9246
  144DOPC  C31517160   1.973   2.933   7.039 -0.5139  0.1071 -0.0127
  144DOPC  H15X17161   2.045   2.872   6.980 -2.2370 -0.2232 -1.8597
  144DOPC  H15Y17162   2.037   2.991   7.110 -0.9928  0.7269 -0.0748
  144DOPC  C31617163   1.907   3.038   6.950  0.7167 -0.6698 -0.3878
  144DOPC  H16X17164   1.987   3.090   6.892  0.0619 -0.4036 -1.0668
  144DOPC  H16Y17165   1.846   2.982   6.876  1.3729 -1.5468 -0.2819
  144DOPC  C31717166   1.814   3.136   7.030  0.6995 -0.7047  0.1162
  144DOPC  H17X17167   1.783   3.214   6.958  0.0838 -0.4211  0.6771
  144DOPC  H17Y17168   1.728   3.081   7.074  2.0957 -1.6179  1.8314
  144DOPC  C31817169   1.881   3.196   7.152  0.1736 -0.5985 -0.2309
  144DOPC  H18X17170   1.902   3.116   7.226  1.5825  0.1653  0.2430
  144DOPC  H18Y17171   1.980   3.231   7.114  0.3742 -0.8795  0.0310
  144DOPC  H18Z17172   1.820   3.283   7.185  2.3696  1.4147 -1.1024
  145DOPC     N17173   4.079   5.450   8.624  0.3194  0.0352 -0.6196
  145DOPC   C1217174   4.093   5.353   8.511  0.3315 -0.1488  0.4440
  145DOPC  H12A17175   4.001   5.315   8.470  0.7819 -1.2910  0.4759
  145DOPC  H12B17176   4.142   5.264   8.547 -0.9197 -1.0043  0.0848
  145DOPC   C1317177   4.020   5.370   8.733  0.1603  0.1977  0.1106
  145DOPC  H13A17178   3.929   5.324   8.699  0.3901 -1.0715  1.1398
  145DOPC  H13B17179   4.074   5.286   8.774 -2.6390 -1.0164  1.5615
  145DOPC  H13C17180   3.981   5.425   8.817  0.5580  0.5481  0.0651
  145DOPC   C1417181   3.980   5.558   8.598 -0.2179  0.5572  0.3638
  145DOPC  H14A17182   3.884   5.512   8.582  1.1040 -2.6310  0.8190
  145DOPC  H14B17183   3.967   5.623   8.683 -0.3363  0.2286  0.6014
  145DOPC  H14C17184   4.003   5.614   8.509 -0.9676 -1.0471 -0.8896
  145DOPC   C1517185   4.206   5.516   8.659 -0.3983  0.1195  0.2428
  145DOPC  H15A17186   4.197   5.575   8.749  1.2567  0.7703  0.0133
  145DOPC  H15B17187   4.242   5.574   8.576 -1.5682 -0.4616 -0.7020
  145DOPC  H15C17188   4.283   5.440   8.667 -0.3387 -0.0206 -1.3333
  145DOPC   C1117189   4.164   5.404   8.377  0.0564 -0.1838 -0.4291
  145DOPC  H11A17190   4.271   5.429   8.398  0.0256 -1.3234  1.2268
  145DOPC  H11B17191   4.167   5.308   8.321  1.4946 -0.5114  0.1609
  145DOPC     P17192   3.960   5.467   8.241  0.2732 -0.3420  0.0382
  145DOPC   O1317193   3.884   5.590   8.224 -0.5584 -0.1100  0.2851
  145DOPC   O1417194   3.898   5.360   8.322  1.0035 -0.3189 -0.5315
  145DOPC   O1217195   4.091   5.514   8.314 -0.5891 -0.5236 -0.0833
  145DOPC   O1117196   3.998   5.423   8.094  0.4100  0.7927  0.5287
  145DOPC    C117197   4.082   5.493   8.001  0.4392  0.1395 -0.0832
  145DOPC    HA17198   4.187   5.482   8.036 -0.3089  1.8313  3.1021
  145DOPC    HB17199   4.059   5.602   7.994 -0.8311 -0.0935  0.1608
  145DOPC    C217200   4.054   5.442   7.856 -0.1462  0.3623  0.1482
  145DOPC    HS17201   4.100   5.343   7.836  3.1464  1.9206 -0.8472
  145DOPC   O2117202   4.106   5.529   7.760 -0.5529  0.1572  0.3668
  145DOPC   C2117203   4.229   5.494   7.722 -0.9521 -0.5467  0.2371
  145DOPC   O2217204   4.305   5.424   7.788 -0.3914  0.0813 -0.2345
  145DOPC   C2217205   4.255   5.554   7.580 -0.1574  0.5829  0.0871
  145DOPC   H2R17206   4.276   5.662   7.590 -1.0798  0.8816 -1.0483
  145DOPC   H2S17207   4.159   5.553   7.526 -1.2718  0.9103  1.9758
  145DOPC    C317208   3.900   5.438   7.838  0.2067 -0.1413  0.4123
  145DOPC    HX17209   3.855   5.530   7.879 -0.8890  0.2422 -1.5202
  145DOPC    HY17210   3.860   5.359   7.904  2.0429 -0.4925  1.1646
  145DOPC   O3117211   3.865   5.421   7.693 -0.5224 -0.2486 -0.5673
  145DOPC   C3117212   3.732   5.409   7.674  0.0569 -0.0549 -0.6528
  145DOPC   O3217213   3.651   5.418   7.765 -0.2010  0.0749 -0.5307
  145DOPC   C3217214   3.692   5.391   7.528  0.5158 -0.4014 -0.5537
  145DOPC   H2X17215   3.716   5.284   7.511 -1.5862 -1.3261  1.7842
  145DOPC   H2Y17216   3.584   5.407   7.508  1.1811  2.6220 -2.4804
  145DOPC   C2317217   4.374   5.485   7.503 -0.1993  0.2494  0.5046
  145DOPC   H3R17218   4.364   5.375   7.490 -1.3552  0.3459  0.4547
  145DOPC   H3S17219   4.462   5.503   7.568  0.9923 -3.1177  0.0024
  145DOPC   C2417220   4.409   5.552   7.368 -0.1434  0.3006  0.0022
  145DOPC   H4R17221   4.502   5.505   7.331  1.1279  2.2546  0.5683
  145DOPC   H4S17222   4.441   5.658   7.377  1.6897  0.1837 -3.5396
  145DOPC   C2517223   4.293   5.533   7.263  0.2354  0.4864 -0.3313
  145DOPC   H5R17224   4.205   5.593   7.295 -0.1754 -0.4657  0.3917
  145DOPC   H5S17225   4.265   5.425   7.260  1.5317  0.1566 -2.0769
  145DOPC   C2617226   4.325   5.582   7.120  0.2735 -0.9378 -0.1434
  145DOPC   H6R17227   4.433   5.563   7.099  0.2260 -0.8954 -0.4345
  145DOPC   H6S17228   4.317   5.692   7.130 -1.3618 -1.0537  0.0499
  145DOPC   C2717229   4.225   5.520   7.024 -0.7844  0.2707 -0.3660
  145DOPC   H7R17230   4.127   5.567   7.049 -0.6072  0.9543 -0.9442
  145DOPC   H7S17231   4.216   5.409   7.035  2.0326 -0.0231 -0.3191
  145DOPC   C2817232   4.259   5.552   6.882  0.1232 -0.2233  0.0572
  145DOPC   H8R17233   4.255   5.661   6.857 -0.5571 -0.1853  0.3159
  145DOPC   H8S17234   4.178   5.507   6.821 -0.1310 -0.9049  0.8745
  145DOPC   C2917235   4.389   5.480   6.848 -0.3490  0.2654  0.0520
  145DOPC   H9R17236   4.430   5.392   6.899  0.7815 -0.7217 -2.3980
  145DOPC  C21017237   4.481   5.529   6.760 -0.7335 -0.5553 -0.6156
  145DOPC  H10R17238   4.578   5.477   6.756 -0.5468 -0.3250  0.5977
  145DOPC  C21117239   4.484   5.651   6.671  0.3136  0.3291  0.8243
  145DOPC  H11R17240   4.576   5.678   6.616  0.8250 -1.1564  0.9138
  145DOPC  H11S17241   4.461   5.744   6.729  2.4265  1.7659 -0.4866
  145DOPC  C21217242   4.380   5.646   6.556  0.2808 -0.3526 -0.3060
  145DOPC  H12R17243   4.362   5.750   6.521  1.7197  0.3210  0.8224
  145DOPC  H12S17244   4.283   5.618   6.601 -1.1664  1.8129 -1.8587
  145DOPC  C21317245   4.421   5.547   6.453 -0.3242 -0.6021  0.1804
  145DOPC  H13R17246   4.429   5.449   6.505  1.8473 -1.2273 -1.2016
  145DOPC  H13S17247   4.522   5.567   6.411  0.1691  1.7083  2.2031
  145DOPC  C21417248   4.321   5.537   6.345  0.6908  0.4663  0.5938
  145DOPC  H14R17249   4.321   5.635   6.293 -1.1593  0.3533  0.2939
  145DOPC  H14S17250   4.219   5.500   6.370  0.6030 -0.9701 -1.5757
  145DOPC  C21517251   4.369   5.438   6.240 -0.0730  1.1249 -0.3907
  145DOPC  H15R17252   4.276   5.403   6.190  0.5523  1.1073 -1.5752
  145DOPC  H15S17253   4.409   5.348   6.292 -0.1565  2.5623  2.3388
  145DOPC  C21617254   4.464   5.498   6.134 -0.7918  0.1630  0.2620
  145DOPC  H16R17255   4.514   5.578   6.193 -0.3810  1.1408 -1.3703
  145DOPC  H16S17256   4.406   5.559   6.062 -1.0928 -1.0204 -0.5223
  145DOPC  C21717257   4.551   5.387   6.066  0.5160 -0.0509  0.7173
  145DOPC  H17R17258   4.625   5.435   5.998 -0.9037  0.6259 -0.3974
  145DOPC  H17S17259   4.476   5.332   6.005 -1.4630  2.4711  0.6793
  145DOPC  C21817260   4.626   5.306   6.163 -0.2363  1.4906 -0.1374
  145DOPC  H18R17261   4.704   5.258   6.100 -0.3557  1.6445 -0.4072
  145DOPC  H18S17262   4.562   5.228   6.210 -0.4819  3.1700  2.4803
  145DOPC  H18T17263   4.676   5.376   6.232  1.9332 -0.7764  0.7264
  145DOPC   C3317264   3.770   5.465   7.422  0.4960  0.5002  0.5167
  145DOPC   H3X17265   3.879   5.447   7.429  0.2849 -0.7318  0.9317
  145DOPC   H3Y17266   3.752   5.574   7.429 -1.5593  0.2675 -0.3917
  145DOPC   C3417267   3.734   5.415   7.281  0.3075 -0.0208  0.5236
  145DOPC   H4X17268   3.623   5.409   7.282  0.3548 -2.1362 -0.8379
  145DOPC   H4Y17269   3.755   5.308   7.264  1.3803 -0.0434  1.8496
  145DOPC   C3517270   3.792   5.516   7.184 -0.2131 -0.0420 -0.0015
  145DOPC   H5X17271   3.901   5.530   7.202  0.0452 -0.7177 -0.9564
  145DOPC   H5Y17272   3.741   5.609   7.216 -1.2790 -1.3946  2.5049
  145DOPC   C3617273   3.752   5.485   7.039  0.8262 -0.1930 -0.4531
  145DOPC   H6X17274   3.648   5.446   7.045 -0.0376  2.1507  2.5525
  145DOPC   H6Y17275   3.738   5.581   6.985  0.4663  0.5231  0.8809
  145DOPC   C3717276   3.853   5.395   6.963 -0.0765 -0.2087 -0.1364
  145DOPC   H7X17277   3.952   5.439   6.989  0.6105 -2.5233  1.5215
  145DOPC   H7Y17278   3.844   5.293   7.006 -1.7533 -0.3895 -0.8386
  145DOPC   C3817279   3.827   5.375   6.814  0.1148  0.3221  0.0127
  145DOPC   H8X17280   3.718   5.352   6.817  0.2587 -0.2513  1.5651
  145DOPC   H8Y17281   3.883   5.287   6.775  0.0277  0.4700 -0.4605
  145DOPC   C3917282   3.846   5.496   6.724 -0.3147  0.6439  0.1799
  145DOPC   H9X17283   3.776   5.579   6.737 -0.6793  0.2905  0.5083
  145DOPC  C31017284   3.932   5.501   6.622  1.1976  0.0081  0.5113
  145DOPC  H10X17285   3.947   5.600   6.576  0.1304  0.0095  0.1338
  145DOPC  C31117286   4.026   5.400   6.578  0.0424 -0.0910 -0.2404
  145DOPC  H11X17287   4.036   5.312   6.645 -1.0927 -0.4113 -0.4710
  145DOPC  H11Y17288   4.127   5.445   6.564  0.3016 -0.3784  0.6779
  145DOPC  C31217289   3.970   5.362   6.434 -0.2525  0.1615 -0.1556
  145DOPC  H12X17290   4.053   5.315   6.377 -0.6945  0.2643 -0.9022
  145DOPC  H12Y17291   3.943   5.452   6.373  0.1299  1.2251  1.1956
  145DOPC  C31317292   3.873   5.246   6.441  0.0837 -0.2305  0.4666
  145DOPC  H13X17293   3.933   5.179   6.507  1.1791  0.3546  0.0918
  145DOPC  H13Y17294   3.783   5.273   6.501  0.2130 -0.0619  0.5844
  145DOPC  C31417295   3.837   5.185   6.303 -0.2322 -0.4976  0.0498
  145DOPC  H14X17296   3.763   5.247   6.248  0.7863  0.8515  0.1581
  145DOPC  H14Y17297   3.932   5.171   6.247 -1.5885 -1.2720 -2.1922
  145DOPC  C31517298   3.786   5.044   6.330  0.1369  0.1028  0.3536
  145DOPC  H15X17299   3.690   5.063   6.382 -0.4849 -0.4729 -0.5603
  145DOPC  H15Y17300   3.852   4.989   6.400  1.3898  0.0539 -0.8174
  145DOPC  C31617301   3.759   4.962   6.207 -0.5776 -0.0525 -0.0850
  145DOPC  H16X17302   3.730   5.027   6.122 -1.2397  0.6394  0.6528
  145DOPC  H16Y17303   3.856   4.922   6.169 -0.4576  0.5901 -0.4723
  145DOPC  C31717304   3.647   4.852   6.222 -0.5305 -0.2915  0.0328
  145DOPC  H17X17305   3.628   4.814   6.120  0.8758 -2.1436  0.3967
  145DOPC  H17Y17306   3.691   4.775   6.289  2.7240  2.2545  1.1195
  145DOPC  C31817307   3.517   4.905   6.281 -0.7194  0.2042 -0.0908
  145DOPC  H18X17308   3.522   4.907   6.392  3.3151  0.8698 -0.1370
  145DOPC  H18Y17309   3.502   5.007   6.238 -0.1828  0.2327 -0.2191
  145DOPC  H18Z17310   3.432   4.840   6.252 -0.5142 -0.9054  1.6102
  146DOPC     N17311   4.530   2.597   8.850  0.3705 -0.1770  0.2300
  146DOPC   C1217312   4.599   2.653   8.720 -0.1448 -0.0547 -0.0998
  146DOPC  H12A17313   4.571   2.582   8.642  1.6272 -0.3679 -0.4912
  146DOPC  H12B17314   4.705   2.660   8.735 -0.1925  0.8627 -0.1608
  146DOPC   C1317315   4.578   2.454   8.880  0.2127  0.0687 -0.0619
  146DOPC  H13A17316   4.685   2.467   8.884  0.1270  0.8136  0.1031
  146DOPC  H13B17317   4.529   2.420   8.970  1.4613  2.5243  1.6740
  146DOPC  H13C17318   4.546   2.384   8.805  2.5341  0.1892 -1.2556
  146DOPC   C1417319   4.379   2.599   8.848  0.1115  0.7956  0.1736
  146DOPC  H14A17320   4.343   2.697   8.820  2.2430  0.9592 -2.5050
  146DOPC  H14B17321   4.341   2.510   8.802  1.8022 -0.1610  0.5121
  146DOPC  H14C17322   4.356   2.589   8.953 -1.4775 -0.5804 -0.2708
  146DOPC   C1517323   4.580   2.683   8.966 -0.1840  0.2087  0.7162
  146DOPC  H15A17324   4.552   2.636   9.060  2.0687  0.3765  1.5268
  146DOPC  H15B17325   4.535   2.781   8.958  0.7852  0.5956 -0.0427
  146DOPC  H15C17326   4.687   2.681   8.959  0.0509 -1.0973  3.3672
  146DOPC   C1117327   4.551   2.794   8.670 -0.3886 -0.3962  0.6074
  146DOPC  H11A17328   4.570   2.796   8.561  0.9413  1.9122  0.8158
  146DOPC  H11B17329   4.442   2.779   8.681  0.0375 -2.6474  2.5982
  146DOPC     P17330   4.752   2.956   8.747  0.1665  0.3497  0.0071
  146DOPC   O1317331   4.833   2.861   8.828 -0.2558  0.7851 -0.4888
  146DOPC   O1417332   4.753   3.090   8.805 -0.5405 -0.2404  0.3498
  146DOPC   O1217333   4.597   2.911   8.738 -0.0199 -0.3664  0.4140
  146DOPC   O1117334   4.803   2.959   8.602 -0.1739 -0.4202 -0.0631
  146DOPC    C117335   4.822   3.075   8.517  0.3806 -0.0666 -0.1703
  146DOPC    HA17336   4.928   3.075   8.482  0.1651  1.0654 -0.8632
  146DOPC    HB17337   4.810   3.175   8.563 -1.4493 -0.7860  1.0107
  146DOPC    C217338   4.733   3.072   8.390 -0.5767 -0.8941  0.2277
  146DOPC    HS17339   4.630   3.072   8.431 -2.0725  2.0669 -2.9700
  146DOPC   O2117340   4.780   2.945   8.338  0.3237 -0.2321 -0.7542
  146DOPC   C2117341   4.683   2.883   8.266  0.2725 -0.4780 -1.0232
  146DOPC   O2217342   4.567   2.917   8.255  0.2804  0.5859  0.2002
  146DOPC   C2217343   4.749   2.770   8.189  0.3985 -0.0608 -0.2860
  146DOPC   H2R17344   4.731   2.683   8.255 -0.8027  2.0569  2.3832
  146DOPC   H2S17345   4.859   2.780   8.178  0.4820 -0.2508  0.3235
  146DOPC    C317346   4.759   3.196   8.303  0.5300 -0.6491  0.3524
  146DOPC    HX17347   4.870   3.204   8.293  0.4648 -0.4850 -0.2819
  146DOPC    HY17348   4.712   3.280   8.358 -0.9904 -2.3553  1.7955
  146DOPC   O3117349   4.691   3.176   8.171  0.2071 -0.3273 -0.0781
  146DOPC   C3117350   4.587   3.243   8.140  0.6735 -0.5956 -0.1359
  146DOPC   O3217351   4.519   3.313   8.216  0.3240 -0.0609  0.0878
  146DOPC   C3217352   4.539   3.202   7.998  0.2643  0.0549 -0.1601
  146DOPC   H2X17353   4.631   3.216   7.938  1.9912  0.1473  2.3404
  146DOPC   H2Y17354   4.507   3.096   8.003  0.4131  0.0413  0.7665
  146DOPC   C2317355   4.683   2.754   8.047  0.4715 -0.2083  0.7318
  146DOPC   H3R17356   4.582   2.798   8.048 -0.5807 -2.4575  2.1187
  146DOPC   H3S17357   4.668   2.645   8.031 -0.7166  0.1782 -0.9278
  146DOPC   C2417358   4.777   2.786   7.931 -0.1704 -0.0450 -0.1482
  146DOPC   H4R17359   4.843   2.701   7.904 -1.8262 -2.1485  2.0021
  146DOPC   H4S17360   4.843   2.872   7.957  1.2858 -1.1774  0.0308
  146DOPC   C2517361   4.706   2.819   7.798 -0.0975 -0.1644 -0.8066
  146DOPC   H5R17362   4.782   2.839   7.719  0.5386 -1.6800 -0.6031
  146DOPC   H5S17363   4.663   2.919   7.820 -0.1800 -0.4345  0.3036
  146DOPC   C2617364   4.597   2.724   7.751 -0.4395  0.1912 -0.0583
  146DOPC   H6R17365   4.529   2.704   7.837 -0.5827 -0.4080 -0.2982
  146DOPC   H6S17366   4.641   2.622   7.740 -1.4953 -0.4843  1.4990
  146DOPC   C2717367   4.523   2.757   7.628  0.0806  0.4908  0.3225
  146DOPC   H7R17368   4.482   2.860   7.622 -0.4821  0.2391 -0.2434
  146DOPC   H7S17369   4.432   2.694   7.620  0.5959 -0.5962  2.3795
  146DOPC   C2817370   4.614   2.721   7.504  0.4840  0.0395 -0.3222
  146DOPC   H8R17371   4.631   2.612   7.511  0.2942  0.0796  0.9419
  146DOPC   H8S17372   4.715   2.766   7.519  0.4509  0.1441 -0.4099
  146DOPC   C2917373   4.556   2.775   7.369 -0.3760 -0.6139 -0.8024
  146DOPC   H9R17374   4.600   2.872   7.341 -0.4655 -0.0872  0.7977
  146DOPC  C21017375   4.467   2.710   7.296  0.0757 -0.6886 -0.3265
  146DOPC  H10R17376   4.433   2.752   7.200  1.3703 -1.2919 -1.0888
  146DOPC  C21117377   4.407   2.578   7.327  0.9910  0.0488  0.2582
  146DOPC  H11R17378   4.301   2.611   7.318  0.9635  0.1111  0.8050
  146DOPC  H11S17379   4.419   2.546   7.432  0.4974 -0.6013  0.1238
  146DOPC  C21217380   4.453   2.461   7.236  0.2484  0.0177  0.4796
  146DOPC  H12R17381   4.391   2.370   7.248  1.2309 -0.7150  0.0927
  146DOPC  H12S17382   4.557   2.430   7.258 -0.0829 -0.8037  0.9189
  146DOPC  C21317383   4.436   2.500   7.087  0.5974 -0.2930  1.2325
  146DOPC  H13R17384   4.500   2.591   7.074 -0.8543  1.0245  2.8078
  146DOPC  H13S17385   4.333   2.533   7.063  2.3867  1.9524 -5.7655
  146DOPC  C21417386   4.496   2.402   6.988  0.1973  0.0888 -0.0156
  146DOPC  H14R17387   4.471   2.297   7.015 -0.1190  0.9294  3.3582
  146DOPC  H14S17388   4.605   2.420   6.995  0.0163  2.0338 -1.3071
  146DOPC  C21517389   4.435   2.436   6.849  0.0905  0.1039 -0.0835
  146DOPC  H15R17390   4.498   2.519   6.811  1.0540 -0.4347  0.2963
  146DOPC  H15S17391   4.328   2.464   6.860  0.0817  0.4193 -0.9442
  146DOPC  C21617392   4.444   2.322   6.746  0.7101  0.2429 -0.6082
  146DOPC  H16R17393   4.365   2.248   6.772  2.3800 -1.3938  0.0516
  146DOPC  H16S17394   4.543   2.272   6.749  0.1039 -0.9570  0.3072
  146DOPC  C21717395   4.423   2.366   6.600  0.1636 -0.1016  1.2884
  146DOPC  H17R17396   4.510   2.406   6.543 -1.3984  1.0061 -0.4194
  146DOPC  H17S17397   4.371   2.463   6.608 -0.0625 -0.3358  3.0231
  146DOPC  C21817398   4.345   2.270   6.513 -0.1009  0.4537  0.3409
  146DOPC  H18R17399   4.248   2.243   6.560 -0.8016  0.2252 -1.1696
  146DOPC  H18S17400   4.415   2.185   6.495  0.2378  0.5565  1.1215
  146DOPC  H18T17401   4.320   2.314   6.414 -1.3994 -0.2755  0.3205
  146DOPC   C3317402   4.427   3.291   7.943  0.2584  0.6143 -0.2403
  146DOPC   H3X17403   4.463   3.391   7.911  1.7989  0.7342  1.6857
  146DOPC   H3Y17404   4.349   3.317   8.017  0.4183  2.3774 -0.6504
  146DOPC   C3417405   4.359   3.221   7.827 -0.1190 -0.1147 -0.3200
  146DOPC   H4X17406   4.258   3.266   7.813  0.4662  1.9653  1.5942
  146DOPC   H4Y17407   4.357   3.112   7.849  0.5874  0.2491  1.7372
  146DOPC   C3517408   4.445   3.237   7.696  0.9150  0.5880  0.6850
  146DOPC   H5X17409   4.546   3.194   7.712  0.4010 -1.2890 -0.6959
  146DOPC   H5Y17410   4.450   3.346   7.680  0.5020  0.6571  1.0293
  146DOPC   C3617411   4.387   3.163   7.568  0.3684 -0.3106 -0.3541
  146DOPC   H6X17412   4.342   3.065   7.595 -0.4788 -0.0796 -0.8969
  146DOPC   H6Y17413   4.295   3.218   7.540  0.5992  1.7961  2.5396
  146DOPC   C3717414   4.494   3.150   7.458 -0.7595  0.7734 -0.9887
  146DOPC   H7X17415   4.586   3.106   7.503  0.1037  3.1790 -0.2678
  146DOPC   H7Y17416   4.443   3.076   7.393 -0.9308 -0.6112  0.6432
  146DOPC   C3817417   4.522   3.277   7.379 -0.6973  0.5793 -0.0663
  146DOPC   H8X17418   4.618   3.272   7.323 -0.7803  2.0778 -0.3667
  146DOPC   H8Y17419   4.528   3.355   7.457 -3.3213 -0.1305  0.9596
  146DOPC   C3917420   4.407   3.325   7.291  0.3420 -0.2966 -0.7909
  146DOPC   H9X17421   4.320   3.343   7.356  0.4744 -1.1423 -0.3562
  146DOPC  C31017422   4.399   3.304   7.162  0.1027 -0.3425 -0.8842
  146DOPC  H10X17423   4.305   3.342   7.121 -0.6385  0.9976  1.8277
  146DOPC  C31117424   4.507   3.259   7.067  0.0632  0.3204 -0.4649
  146DOPC  H11X17425   4.610   3.259   7.108  0.4018  1.4487 -1.2737
  146DOPC  H11Y17426   4.511   3.330   6.982  0.7161  0.0423 -0.6788
  146DOPC  C31217427   4.459   3.120   7.018 -0.5690 -0.6812  0.2542
  146DOPC  H12X17428   4.354   3.121   6.980 -0.2298  0.1502 -0.7248
  146DOPC  H12Y17429   4.476   3.049   7.101 -0.2337 -0.3889  0.4422
  146DOPC  C31317430   4.546   3.074   6.899  0.1877  0.4134 -0.5238
  146DOPC  H13X17431   4.499   3.119   6.809  0.4799  0.9867 -0.3926
  146DOPC  H13Y17432   4.653   3.098   6.916 -0.4923  2.9229  0.6297
  146DOPC  C31417433   4.539   2.921   6.881  0.1445 -0.1714 -0.9229
  146DOPC  H14X17434   4.587   2.868   6.966  0.8190 -0.8525 -1.7104
  146DOPC  H14Y17435   4.432   2.891   6.874 -0.2457  1.5391 -3.7849
  146DOPC  C31517436   4.604   2.876   6.750 -0.5944 -0.1384 -0.2535
  146DOPC  H15X17437   4.603   2.767   6.733  2.5664 -0.2966 -0.0145
  146DOPC  H15Y17438   4.710   2.910   6.755 -0.0970 -1.4589 -1.2971
  146DOPC  C31617439   4.536   2.923   6.619  0.7909  0.4914  0.2948
  146DOPC  H16X17440   4.434   2.881   6.609  1.5569 -1.0013 -2.0914
  146DOPC  H16Y17441   4.522   3.032   6.632  1.1761  0.2640  3.3995
  146DOPC  C31717442   4.610   2.903   6.482 -0.3302  0.4287  0.2843
  146DOPC  H17X17443   4.709   2.952   6.495  0.0636 -0.1347 -0.4641
  146DOPC  H17Y17444   4.632   2.794   6.472 -2.2613  0.0691 -0.5740
  146DOPC  C31817445   4.531   2.955   6.368  0.0659 -0.6145  1.4852
  146DOPC  H18X17446   4.591   2.971   6.276 -2.5367  1.6213  0.0190
  146DOPC  H18Y17447   4.450   2.886   6.336 -0.3521  0.3925  0.2910
  146DOPC  H18Z17448   4.505   3.063   6.378  1.2816  0.0177 -1.2103
  147DOPC     N17449   0.797   2.304   8.921 -0.1347  0.2771  0.3753
  147DOPC   C1217450   0.827   2.161   8.888  0.3519 -0.3411  0.4457
  147DOPC  H12A17451   0.733   2.109   8.895 -0.1676  0.5115 -0.1581
  147DOPC  H12B17452   0.901   2.124   8.958  1.1610 -1.1281 -0.7859
  147DOPC   C1317453   0.922   2.391   8.944  0.3164  0.0911 -0.7213
  147DOPC  H13A17454   0.977   2.404   8.851  2.0900  3.3460  0.6046
  147DOPC  H13B17455   0.895   2.494   8.965  0.2232 -0.0176 -0.3173
  147DOPC  H13C17456   0.991   2.354   9.018  1.6245  1.4101 -1.2310
  147DOPC   C1417457   0.731   2.325   9.051 -0.5345  0.5271  0.0384
  147DOPC  H14A17458   0.726   2.431   9.071 -0.3575  0.9687 -2.0373
  147DOPC  H14B17459   0.631   2.283   9.054 -0.7148  0.5709 -2.8756
  147DOPC  H14C17460   0.786   2.283   9.134 -2.5398 -0.9743  0.7063
  147DOPC   C1517461   0.717   2.374   8.817 -0.2715 -0.6409  0.0436
  147DOPC  H15A17462   0.685   2.466   8.863  1.8669 -0.3222  0.9825
  147DOPC  H15B17463   0.627   2.319   8.792 -1.0354  0.4776  0.2409
  147DOPC  H15C17464   0.778   2.401   8.732 -0.8231 -1.5171 -0.6604
  147DOPC   C1117465   0.897   2.128   8.754 -0.4644  0.2656  1.0153
  147DOPC  H11A17466   0.938   2.025   8.764 -0.2558 -0.0151 -1.8606
  147DOPC  H11B17467   0.822   2.131   8.672  1.5969  2.3416 -0.9463
  147DOPC     P17468   1.150   2.207   8.730  0.0834  0.0588 -0.4106
  147DOPC   O1317469   1.181   2.140   8.863 -0.4069 -0.0553 -0.5882
  147DOPC   O1417470   1.213   2.337   8.709  0.1230 -0.2183 -0.1889
  147DOPC   O1217471   0.996   2.226   8.724 -0.1600 -0.6399  0.0771
  147DOPC   O1117472   1.166   2.109   8.604 -0.0247 -0.2238 -0.1705
  147DOPC    C117473   1.109   2.154   8.481  0.0216  0.4466 -0.2019
  147DOPC    HA17474   1.129   2.262   8.465 -0.0650  0.4282 -0.4522
  147DOPC    HB17475   1.002   2.130   8.466  0.4653 -1.9011 -0.0013
  147DOPC    C217476   1.187   2.083   8.358  0.1817  0.0167 -0.5299
  147DOPC    HS17477   1.153   2.126   8.261  2.2037  1.7121 -0.5567
  147DOPC   O2117478   1.162   1.942   8.355  0.3771 -0.3161 -0.3584
  147DOPC   C2117479   1.216   1.873   8.255  0.7071  0.9404  0.1163
  147DOPC   O2217480   1.265   1.920   8.155 -0.0520  0.1120  0.5045
  147DOPC   C2217481   1.192   1.720   8.287  0.1612 -0.3068 -0.1051
  147DOPC   H2R17482   1.091   1.712   8.333  0.4088  3.2479  1.3627
  147DOPC   H2S17483   1.260   1.697   8.373  1.0864 -0.8950 -0.9696
  147DOPC    C317484   1.338   2.129   8.366  0.0304 -0.0295 -0.8839
  147DOPC    HX17485   1.399   2.069   8.295 -0.3503 -0.6258 -0.7182
  147DOPC    HY17486   1.367   2.103   8.470  0.1258  0.5871 -0.7527
  147DOPC   O3117487   1.350   2.268   8.332 -0.5523  0.4733 -0.4356
  147DOPC   C3117488   1.453   2.329   8.400  0.2850 -0.0312 -0.5298
  147DOPC   O3217489   1.531   2.267   8.469  0.0198  0.5514 -0.2671
  147DOPC   C3217490   1.452   2.486   8.372 -0.0625  0.3233  0.0542
  147DOPC   H2X17491   1.353   2.523   8.407  0.6991  1.5466  0.9797
  147DOPC   H2Y17492   1.524   2.536   8.441 -1.3052 -0.2433  1.8308
  147DOPC   C2317493   1.235   1.626   8.170  0.0984 -0.0184 -0.2499
  147DOPC   H3R17494   1.215   1.519   8.191  1.6852 -0.8182 -2.3407
  147DOPC   H3S17495   1.344   1.636   8.152 -0.0662  2.1111 -0.3440
  147DOPC   C2417496   1.156   1.638   8.037  0.1795 -0.0897 -0.6658
  147DOPC   H4R17497   1.182   1.730   7.979  0.2596 -1.3399 -2.7002
  147DOPC   H4S17498   1.046   1.639   8.049  0.2115 -0.8613 -0.2965
  147DOPC   C2517499   1.175   1.528   7.936  0.2938  1.1028  0.2220
  147DOPC   H5R17500   1.082   1.468   7.946  0.1868  0.7815 -2.0954
  147DOPC   H5S17501   1.266   1.468   7.959 -0.1066  0.1729 -0.5543
  147DOPC   C2617502   1.162   1.574   7.790 -0.3910 -0.3102  0.2598
  147DOPC   H6R17503   1.239   1.653   7.775  0.2114 -0.5190  1.9939
  147DOPC   H6S17504   1.059   1.617   7.790 -0.5249 -0.5787  1.4925
  147DOPC   C2717505   1.178   1.464   7.680 -0.2965  0.0999  0.0794
  147DOPC   H7R17506   1.113   1.385   7.722 -2.7906  0.8161 -2.1754
  147DOPC   H7S17507   1.280   1.418   7.679 -0.1353  0.4572 -0.1104
  147DOPC   C2817508   1.131   1.510   7.545  0.3469 -0.0121 -0.4082
  147DOPC   H8R17509   1.027   1.550   7.543  0.4119  0.2625 -3.2977
  147DOPC   H8S17510   1.123   1.414   7.490 -0.8419  0.0546 -0.3783
  147DOPC   C2917511   1.231   1.614   7.499  0.4056  0.3170  0.4173
  147DOPC   H9R17512   1.236   1.710   7.552  0.9555  1.2450 -1.2279
  147DOPC  C21017513   1.312   1.599   7.395  0.3103 -0.4873  0.2847
  147DOPC  H10R17514   1.391   1.672   7.370  0.1894 -0.8990 -1.3870
  147DOPC  C21117515   1.322   1.490   7.296  0.0777  0.5149 -0.5571
  147DOPC  H11R17516   1.245   1.412   7.311  0.2905  0.4287  0.1358
  147DOPC  H11S17517   1.413   1.437   7.332 -1.3750 -0.8151  1.3653
  147DOPC  C21217518   1.337   1.533   7.152  0.3004  0.8101 -0.2543
  147DOPC  H12R17519   1.401   1.624   7.146  0.7440  0.5267  0.0767
  147DOPC  H12S17520   1.237   1.568   7.119 -1.2013 -0.0575  2.9177
  147DOPC  C21317521   1.404   1.424   7.068  0.3357 -0.6464 -0.6869
  147DOPC  H13R17522   1.331   1.340   7.064  1.8579 -1.9911 -3.5791
  147DOPC  H13S17523   1.496   1.381   7.114  0.6265 -0.5609 -1.1887
  147DOPC  C21417524   1.431   1.464   6.922  0.7862  0.1941  0.1393
  147DOPC  H14R17525   1.445   1.574   6.923 -0.1892  0.3227  0.1580
  147DOPC  H14S17526   1.331   1.455   6.874  0.0884 -2.2593  1.8426
  147DOPC  C21517527   1.542   1.384   6.859 -0.3211 -0.2571  0.6273
  147DOPC  H15R17528   1.536   1.280   6.895 -1.4312 -0.3407  0.2311
  147DOPC  H15S17529   1.644   1.420   6.886  0.7263 -1.2595 -1.6700
  147DOPC  C21617530   1.543   1.389   6.703  0.7602  0.4186  0.3158
  147DOPC  H16R17531   1.537   1.496   6.677 -0.0352  0.7167  1.6429
  147DOPC  H16S17532   1.447   1.350   6.662  0.7515  0.4729  0.2847
  147DOPC  C21717533   1.658   1.310   6.646  0.0021 -0.0233 -0.1456
  147DOPC  H17R17534   1.649   1.199   6.650 -0.1947  0.0134  0.4954
  147DOPC  H17S17535   1.747   1.332   6.709 -0.0367 -1.1578  0.3351
  147DOPC  C21817536   1.680   1.339   6.499 -0.1069 -0.3221  0.2305
  147DOPC  H18R17537   1.701   1.446   6.476 -2.2416  0.0004 -0.4758
  147DOPC  H18S17538   1.592   1.316   6.435 -1.0953  3.3710  0.0009
  147DOPC  H18T17539   1.761   1.276   6.457  0.9015  1.0593  0.0277
  147DOPC   C3317540   1.486   2.506   8.222 -0.1607 -0.0625  0.2679
  147DOPC   H3X17541   1.425   2.437   8.160  0.2956  0.4191 -0.7470
  147DOPC   H3Y17542   1.595   2.496   8.200 -0.1545 -0.0777  0.3048
  147DOPC   C3417543   1.452   2.654   8.182  0.0434  0.5359 -0.2396
  147DOPC   H4X17544   1.506   2.683   8.089 -1.7392 -1.0346 -1.8610
  147DOPC   H4Y17545   1.485   2.713   8.270  1.9517 -1.9736  0.8775
  147DOPC   C3517546   1.295   2.665   8.154  0.2658 -0.6558 -0.0950
  147DOPC   H5X17547   1.274   2.774   8.152 -0.7824 -0.8489 -0.7002
  147DOPC   H5Y17548   1.235   2.622   8.238  0.7272 -1.2350 -0.0530
  147DOPC   C3617549   1.261   2.582   8.027  0.1675 -0.3224 -0.0510
  147DOPC   H6X17550   1.341   2.590   7.951  0.0898 -0.4125 -0.1420
  147DOPC   H6Y17551   1.230   2.477   8.049 -1.5274 -0.0863 -1.1327
  147DOPC   C3717552   1.133   2.636   7.963  0.3120  0.2624 -0.4042
  147DOPC   H7X17553   1.061   2.638   8.047  1.4108  1.5951  0.5438
  147DOPC   H7Y17554   1.140   2.737   7.918 -4.7338  0.5500 -1.1681
  147DOPC   C3817555   1.075   2.540   7.865 -0.1913  0.8668  0.5893
  147DOPC   H8X17556   1.046   2.449   7.923  2.1492 -0.3553 -0.0183
  147DOPC   H8Y17557   1.147   2.508   7.787 -0.5800  0.3141  0.4401
  147DOPC   C3917558   0.949   2.596   7.804  0.2763  0.0678 -0.0759
  147DOPC   H9X17559   0.863   2.596   7.872  0.7168 -1.9501  0.5467
  147DOPC  C31017560   0.931   2.614   7.668 -0.0013  0.6534 -0.0260
  147DOPC  H10X17561   0.828   2.646   7.646  0.1904  0.4430 -1.2950
  147DOPC  C31117562   1.030   2.592   7.553  0.8873  0.1960  0.2930
  147DOPC  H11X17563   1.114   2.529   7.591  0.5315 -0.7719 -0.4802
  147DOPC  H11Y17564   1.064   2.693   7.524 -1.3428  1.0606  0.4542
  147DOPC  C31217565   0.978   2.532   7.415  0.3159  0.1513  0.1362
  147DOPC  H12X17566   0.897   2.600   7.381 -0.4243 -0.0713  1.3665
  147DOPC  H12Y17567   0.934   2.434   7.445 -0.6354  0.7395  0.7402
  147DOPC  C31317568   1.090   2.506   7.315 -0.1163  0.7382 -0.4588
  147DOPC  H13X17569   1.161   2.586   7.283  0.4933 -0.0920 -1.2709
  147DOPC  H13Y17570   1.162   2.432   7.358  2.2068  3.8081  1.3383
  147DOPC  C31417571   1.028   2.443   7.190  0.1152 -0.4905  0.6873
  147DOPC  H14X17572   0.956   2.517   7.149  1.8765 -0.2067 -2.1057
  147DOPC  H14Y17573   1.105   2.432   7.111 -1.5900 -3.2584 -0.7373
  147DOPC  C31517574   0.951   2.305   7.202  0.1065  0.1917  1.3747
  147DOPC  H15X17575   0.864   2.323   7.268 -0.9059 -0.0144  0.1435
  147DOPC  H15Y17576   1.015   2.243   7.269  1.7391  1.0249  0.6471
  147DOPC  C31617577   0.929   2.237   7.066 -0.0924  0.3036 -0.3424
  147DOPC  H16X17578   1.027   2.201   7.026 -0.2837  0.0911 -0.6214
  147DOPC  H16Y17579   0.863   2.151   7.091 -1.2279  1.7244  1.7414
  147DOPC  C31717580   0.859   2.324   6.961  0.1061 -0.1832  0.3153
  147DOPC  H17X17581   0.769   2.357   7.016  0.4654  1.0551  0.1857
  147DOPC  H17Y17582   0.934   2.405   6.944  0.4020 -0.2670  1.1913
  147DOPC  C31817583   0.829   2.257   6.831  0.3169 -0.0105 -0.2271
  147DOPC  H18X17584   0.766   2.321   6.765 -2.2115  0.5133  2.5057
  147DOPC  H18Y17585   0.923   2.239   6.775  1.7640  2.5361  1.2175
  147DOPC  H18Z17586   0.767   2.166   6.844  0.2978 -0.3075 -2.1368
  148DOPC     N17587   3.274   4.935   8.213  0.4225  0.0686 -0.4020
  148DOPC   C1217588   3.196   4.848   8.316 -0.5044  0.0871  0.3473
  148DOPC  H12A17589   3.146   4.912   8.387  1.8051  2.1868  0.1937
  148DOPC  H12B17590   3.262   4.787   8.377 -0.8917  1.1134  1.8467
  148DOPC   C1317591   3.343   4.853   8.110  0.4061 -0.3611  0.5924
  148DOPC  H13A17592   3.416   4.796   8.165  1.7201  0.3148 -0.3927
  148DOPC  H13B17593   3.275   4.788   8.056  0.2783 -1.4065  1.9533
  148DOPC  H13C17594   3.400   4.918   8.045  1.6692 -1.2656  0.7640
  148DOPC   C1417595   3.376   5.020   8.277  0.0729  0.3007  0.3520
  148DOPC  H14A17596   3.433   5.075   8.204 -0.8187 -0.2600 -0.8100
  148DOPC  H14B17597   3.321   5.097   8.329 -0.7523 -1.1036  1.6322
  148DOPC  H14C17598   3.440   4.969   8.348  1.4497  0.5029 -0.7010
  148DOPC   C1517599   3.181   5.027   8.142  0.9667  0.1739 -0.6348
  148DOPC  H15A17600   3.219   5.066   8.048 -3.2015  0.3333 -2.4788
  148DOPC  H15B17601   3.151   5.107   8.208 -0.2771 -1.2394  0.5535
  148DOPC  H15C17602   3.088   4.979   8.118  1.0080  0.2292 -0.9140
  148DOPC   C1117603   3.102   4.740   8.252  0.2299 -0.6085  0.2587
  148DOPC  H11A17604   3.155   4.676   8.179  0.0889  0.1812 -0.5580
  148DOPC  H11B17605   3.083   4.664   8.330  2.1168 -0.2821  1.0749
  148DOPC     P17606   2.865   4.856   8.284 -0.1054  0.2322  0.0892
  148DOPC   O1317607   2.885   5.006   8.283 -0.2950  0.9879  0.1437
  148DOPC   O1417608   2.870   4.795   8.418 -0.3483  0.9114 -0.4511
  148DOPC   O1217609   2.984   4.800   8.204 -0.0313  0.3767 -0.3087
  148DOPC   O1117610   2.739   4.813   8.206 -0.4693 -0.2079 -0.0604
  148DOPC    C117611   2.719   4.876   8.072  0.4705  0.5782 -0.1171
  148DOPC    HA17612   2.761   4.978   8.069  0.0266  0.8036  0.9708
  148DOPC    HB17613   2.613   4.898   8.047  0.8266  0.7863 -1.5115
  148DOPC    C217614   2.773   4.795   7.954  0.6579  0.0561  0.3462
  148DOPC    HS17615   2.780   4.686   7.973 -0.3273  0.1497  1.3843
  148DOPC   O2117616   2.898   4.853   7.916 -0.0886 -0.1041  0.5332
  148DOPC   C2117617   2.982   4.779   7.863  0.6357 -0.6176  0.8124
  148DOPC   O2217618   2.974   4.653   7.843  0.1298 -0.2852  0.6168
  148DOPC   C2217619   3.102   4.865   7.816 -0.7097 -0.5579 -0.1134
  148DOPC   H2R17620   3.171   4.889   7.900  1.0266  0.0405 -1.6386
  148DOPC   H2S17621   3.061   4.964   7.786  2.0845  0.4987 -0.8212
  148DOPC    C317622   2.679   4.788   7.826 -0.0849 -0.1609  0.0290
  148DOPC    HX17623   2.668   4.895   7.798  0.3469  0.7612  2.9961
  148DOPC    HY17624   2.580   4.751   7.860 -0.5873  1.3185  0.2547
  148DOPC   O3117625   2.741   4.703   7.731  0.3486  0.4332 -0.1223
  148DOPC   C3117626   2.660   4.672   7.629 -0.3589 -0.2712  0.5331
  148DOPC   O3217627   2.541   4.690   7.624 -0.3802 -0.4727  0.7933
  148DOPC   C3217628   2.754   4.608   7.518 -0.3639 -0.1328 -0.5782
  148DOPC   H2X17629   2.855   4.587   7.561 -1.1857 -2.4418  0.4244
  148DOPC   H2Y17630   2.710   4.506   7.510 -1.8275  0.5626 -1.8495
  148DOPC   C2317631   3.188   4.814   7.699 -0.1152 -0.0022  0.5061
  148DOPC   H3R17632   3.212   4.708   7.725 -0.3301 -0.0757  0.4070
  148DOPC   H3S17633   3.284   4.870   7.695  0.9704 -1.5828  2.4265
  148DOPC   C2417634   3.127   4.815   7.554 -0.1121 -0.4091 -0.5153
  148DOPC   H4R17635   3.104   4.916   7.514 -1.4094 -0.2847  0.4645
  148DOPC   H4S17636   3.032   4.756   7.549 -0.2705 -0.0800 -1.5742
  148DOPC   C2517637   3.214   4.752   7.451  0.1011  0.2818 -0.1874
  148DOPC   H5R17638   3.220   4.643   7.472  0.5812  0.1182 -1.1347
  148DOPC   H5S17639   3.313   4.798   7.471 -0.3114  0.1962  2.4836
  148DOPC   C2617640   3.162   4.766   7.311  0.0371 -0.3104 -0.6371
  148DOPC   H6R17641   3.104   4.861   7.316  2.2553  1.1375 -0.6960
  148DOPC   H6S17642   3.095   4.681   7.289 -0.3727 -0.0790 -0.2984
  148DOPC   C2717643   3.273   4.786   7.206  0.0921  0.1950 -0.4772
  148DOPC   H7R17644   3.341   4.870   7.231  0.6175 -0.7703  1.5280
  148DOPC   H7S17645   3.218   4.820   7.115  2.4118  0.5270 -1.8432
  148DOPC   C2817646   3.361   4.671   7.170  0.7057  0.4465 -0.0780
  148DOPC   H8R17647   3.290   4.594   7.132  2.3661 -0.4068 -1.6274
  148DOPC   H8S17648   3.410   4.616   7.254 -0.9421 -2.1117 -0.6612
  148DOPC   C2917649   3.458   4.684   7.056  0.1149 -0.8506  0.5806
  148DOPC   H9R17650   3.565   4.677   7.080  1.1987  2.3960 -2.4425
  148DOPC  C21017651   3.440   4.705   6.925 -0.1132 -0.0621 -0.3509
  148DOPC  H10R17652   3.531   4.727   6.868  0.2938  0.0015  0.3104
  148DOPC  C21117653   3.310   4.728   6.846 -0.0208 -0.1969 -0.1168
  148DOPC  H11R17654   3.300   4.839   6.838 -0.5435 -0.2986 -1.0209
  148DOPC  H11S17655   3.220   4.697   6.904  0.3931 -0.8414  0.1808
  148DOPC  C21217656   3.308   4.678   6.700 -0.1308 -0.0404 -0.0742
  148DOPC  H12R17657   3.401   4.713   6.651 -0.9395  0.3817 -1.3614
  148DOPC  H12S17658   3.223   4.713   6.637  0.6635  0.2749 -0.9975
  148DOPC  C21317659   3.309   4.524   6.682 -0.7791 -0.5319  0.0760
  148DOPC  H13R17660   3.224   4.462   6.719 -0.3288 -1.7399 -0.8266
  148DOPC  H13S17661   3.403   4.477   6.717 -1.7998 -2.6341  0.1682
  148DOPC  C21417662   3.299   4.490   6.527 -0.6788  1.0042 -0.2000
  148DOPC  H14R17663   3.349   4.392   6.509 -1.1439  1.0132 -1.7454
  148DOPC  H14S17664   3.361   4.558   6.465  2.0024  0.6081  1.8568
  148DOPC  C21517665   3.147   4.500   6.493 -0.2627 -0.2804 -0.4502
  148DOPC  H15R17666   3.109   4.603   6.508  0.3019 -0.0795 -0.3738
  148DOPC  H15S17667   3.111   4.442   6.581 -1.0078 -0.9450 -1.1795
  148DOPC  C21617668   3.101   4.429   6.363 -0.6191  0.0902 -0.1357
  148DOPC  H16R17669   3.003   4.380   6.377 -0.1317 -0.8197  0.1678
  148DOPC  H16S17670   3.173   4.345   6.354 -0.9443 -0.7347  3.5177
  148DOPC  C21717671   3.076   4.528   6.246  0.3961 -0.4163 -0.0034
  148DOPC  H17R17672   2.994   4.600   6.265  0.5633 -0.1095 -0.4205
  148DOPC  H17S17673   3.040   4.474   6.156 -0.4720  1.7681 -1.0265
  148DOPC  C21817674   3.204   4.605   6.212 -0.0971  0.7104  0.5590
  148DOPC  H18R17675   3.234   4.672   6.295 -0.7580  0.5298  0.9473
  148DOPC  H18S17676   3.182   4.677   6.129  2.2556  0.8670  0.0014
  148DOPC  H18T17677   3.294   4.550   6.177  0.3094  2.6612 -1.8274
  148DOPC   C3317678   2.747   4.674   7.384  0.4298  0.0409  0.3042
  148DOPC   H3X17679   2.814   4.762   7.388  1.5486 -0.8070  0.6368
  148DOPC   H3Y17680   2.644   4.704   7.354  1.3088  2.2232 -0.7398
  148DOPC   C3417681   2.793   4.578   7.277  0.2591  0.2404 -0.6432
  148DOPC   H4X17682   2.726   4.490   7.278  2.3262 -1.4201 -0.4933
  148DOPC   H4Y17683   2.885   4.523   7.306  0.4061  0.6704 -0.2739
  148DOPC   C3517684   2.808   4.639   7.133  0.3538  0.5429 -0.6114
  148DOPC   H5X17685   2.861   4.735   7.149 -1.0333  0.7978  3.8455
  148DOPC   H5Y17686   2.708   4.666   7.093 -0.6393  0.0594  1.4052
  148DOPC   C3617687   2.908   4.551   7.055 -0.4373 -1.0270  0.8902
  148DOPC   H6X17688   3.009   4.551   7.101 -0.4954  1.6951  1.2124
  148DOPC   H6Y17689   2.868   4.448   7.046 -0.2117 -1.0507  0.0372
  148DOPC   C3717690   2.935   4.607   6.914 -0.2856  1.0875  0.9791
  148DOPC   H7X17691   2.955   4.715   6.927 -0.8001  1.1275  1.4609
  148DOPC   H7Y17692   3.028   4.559   6.875 -1.0669 -0.4661  0.9252
  148DOPC   C3817693   2.817   4.576   6.819  0.0375  0.1170  0.1743
  148DOPC   H8X17694   2.727   4.638   6.841 -1.2838 -2.0397  1.2512
  148DOPC   H8Y17695   2.782   4.471   6.830 -0.0266  0.2532  1.4338
  148DOPC   C3917696   2.863   4.600   6.673  0.4780 -0.0140  0.3898
  148DOPC   H9X17697   2.941   4.678   6.667 -1.3991  1.9452  0.0019
  148DOPC  C31017698   2.839   4.521   6.565  0.0385  0.4871  0.6130
  148DOPC  H10X17699   2.884   4.546   6.468  0.4710  2.5595  1.3069
  148DOPC  C31117700   2.733   4.413   6.555 -0.0971 -0.5303 -0.4880
  148DOPC  H11X17701   2.661   4.426   6.639  0.7950  2.4161 -0.0676
  148DOPC  H11Y17702   2.772   4.310   6.571 -2.4951 -1.4954 -0.4442
  148DOPC  C31217703   2.658   4.416   6.425  0.5964 -0.1085 -0.1664
  148DOPC  H12X17704   2.733   4.421   6.343 -0.1851  0.4230 -0.8705
  148DOPC  H12Y17705   2.588   4.503   6.416 -1.5857 -1.6267  1.1692
  148DOPC  C31317706   2.559   4.299   6.393 -0.4155  0.2012 -0.9549
  148DOPC  H13X17707   2.623   4.213   6.364  0.9799 -0.0482  2.4422
  148DOPC  H13Y17708   2.493   4.270   6.477 -1.0930  2.3722 -0.6753
  148DOPC  C31417709   2.466   4.339   6.282 -0.5899  0.3049 -0.0794
  148DOPC  H14X17710   2.387   4.401   6.329 -1.9946 -1.1112 -0.4821
  148DOPC  H14Y17711   2.526   4.398   6.210  1.5093 -0.9015  0.5913
  148DOPC  C31517712   2.394   4.214   6.220  0.1226  0.0771  0.2670
  148DOPC  H15X17713   2.319   4.185   6.296  0.9295 -2.6241  0.1385
  148DOPC  H15Y17714   2.465   4.128   6.211  0.7668  0.6157  0.1490
  148DOPC  C31617715   2.328   4.240   6.080 -0.1111  0.8318  0.0897
  148DOPC  H16X17716   2.410   4.262   6.008  1.4548 -0.8806  1.2487
  148DOPC  H16Y17717   2.273   4.149   6.048  0.6365 -1.0626  3.6914
  148DOPC  C31717718   2.222   4.352   6.087 -0.2549 -0.6446  0.2612
  148DOPC  H17X17719   2.144   4.321   6.160 -1.4167 -3.3297 -1.9578
  148DOPC  H17Y17720   2.263   4.445   6.131 -0.9804 -0.5447  0.7489
  148DOPC  C31817721   2.148   4.380   5.956 -0.5021 -0.1402  0.7190
  148DOPC  H18X17722   2.113   4.281   5.919 -1.1181 -0.1005  1.1749
  148DOPC  H18Y17723   2.068   4.456   5.966 -2.2547 -1.9856  1.3090
  148DOPC  H18Z17724   2.216   4.422   5.879  0.9728  0.4046  2.2464
  149DOPC     N17725   1.431   1.433   9.396  0.3424  0.0858 -0.1573
  149DOPC   C1217726   1.356   1.358   9.288  0.0993  0.2771  0.4165
  149DOPC  H12A17727   1.415   1.332   9.201  0.7253  0.9464  0.6299
  149DOPC  H12B17728   1.283   1.426   9.245  0.0798  0.2471  0.4028
  149DOPC   C1317729   1.518   1.547   9.334  0.6041  0.7221 -0.2114
  149DOPC  H13A17730   1.571   1.597   9.414  0.7388  0.8623 -0.3883
  149DOPC  H13B17731   1.576   1.498   9.256  1.0435 -2.2890  1.8163
  149DOPC  H13C17732   1.448   1.615   9.289 -1.3280 -0.2954  1.1332
  149DOPC   C1417733   1.520   1.345   9.474  0.2799  0.0102 -0.4982
  149DOPC  H14A17734   1.464   1.270   9.529  2.0243 -0.6056  0.4911
  149DOPC  H14B17735   1.568   1.283   9.400 -0.9041  1.2884 -2.4342
  149DOPC  H14C17736   1.583   1.389   9.549  2.5630  0.5772 -2.6352
  149DOPC   C1517737   1.337   1.491   9.504 -0.1489 -0.2419  0.7507
  149DOPC  H15A17738   1.272   1.569   9.468  0.2513 -0.5193 -0.6173
  149DOPC  H15B17739   1.404   1.543   9.571  1.1724 -0.0775 -0.6347
  149DOPC  H15C17740   1.289   1.418   9.567 -2.7057  1.6631  1.1939
  149DOPC   C1117741   1.282   1.233   9.329  0.5099 -0.4231  0.1667
  149DOPC  H11A17742   1.220   1.241   9.421 -0.5123 -1.2349 -0.4263
  149DOPC  H11B17743   1.214   1.213   9.242  1.4893  0.2900 -0.7836
  149DOPC     P17744   1.433   1.046   9.228  0.1562 -0.1649 -0.2999
  149DOPC   O1317745   1.332   0.941   9.192 -0.1398  0.6441  0.0073
  149DOPC   O1417746   1.575   1.019   9.254  0.0066  0.1793 -0.1657
  149DOPC   O1217747   1.368   1.125   9.346 -0.0125  0.1659  0.1255
  149DOPC   O1117748   1.432   1.152   9.102 -0.4615  0.5844  0.1575
  149DOPC    C117749   1.371   1.117   8.979 -0.3150  0.2578  0.9426
  149DOPC    HA17750   1.268   1.080   8.998 -1.2517  2.1798 -0.0792
  149DOPC    HB17751   1.430   1.038   8.928  0.2425  1.2364  0.0385
  149DOPC    C217752   1.364   1.230   8.868  0.6236  0.3892 -0.0592
  149DOPC    HS17753   1.323   1.184   8.775  2.0252 -1.4795  0.1755
  149DOPC   O2117754   1.497   1.275   8.847 -0.0711  0.4385  0.2905
  149DOPC   C2117755   1.567   1.207   8.756 -0.1512 -0.0245 -0.0490
  149DOPC   O2217756   1.529   1.113   8.689  0.3601  1.1841 -0.0414
  149DOPC   C2217757   1.706   1.270   8.750  0.1622 -0.0749 -0.6479
  149DOPC   H2R17758   1.777   1.205   8.805 -0.0282  1.5266  1.6290
  149DOPC   H2S17759   1.697   1.373   8.792 -0.9846 -0.4442  0.0590
  149DOPC    C317760   1.268   1.353   8.907  0.4792  0.4416  0.3201
  149DOPC    HX17761   1.327   1.416   8.977  1.5611 -1.6108  1.3524
  149DOPC    HY17762   1.172   1.316   8.950 -0.1436 -0.3137 -1.6172
  149DOPC   O3117763   1.248   1.433   8.789 -0.4089  0.0781 -0.0715
  149DOPC   C3117764   1.155   1.527   8.799 -0.1251 -0.3194  0.0422
  149DOPC   O3217765   1.093   1.549   8.905  0.0657 -0.3016 -0.4420
  149DOPC   C3217766   1.137   1.602   8.676  0.6310 -0.3021 -0.0942
  149DOPC   H2X17767   1.232   1.658   8.666  0.2200  0.5614  0.6897
  149DOPC   H2Y17768   1.127   1.536   8.587 -1.6281  1.0845 -0.9700
  149DOPC   C2317769   1.754   1.271   8.607  0.2557  0.2194 -0.2182
  149DOPC   H3R17770   1.761   1.166   8.570  2.3829  0.3696 -0.4201
  149DOPC   H3S17771   1.862   1.298   8.604  0.3337  0.4544  2.4093
  149DOPC   C2417772   1.675   1.368   8.522 -0.8809 -1.0128  1.0560
  149DOPC   H4R17773   1.678   1.473   8.560  1.6931 -0.1281 -1.2136
  149DOPC   H4S17774   1.576   1.331   8.491 -0.4982 -0.6288 -0.7251
  149DOPC   C2517775   1.750   1.400   8.390  0.1985  0.3018 -0.2314
  149DOPC   H5R17776   1.738   1.299   8.345 -3.7331 -0.5648  2.2778
  149DOPC   H5S17777   1.858   1.423   8.405 -0.2253  1.0535  2.1214
  149DOPC   C2617778   1.668   1.503   8.304 -0.2819  0.6092  0.2897
  149DOPC   H6R17779   1.656   1.600   8.357  0.0871 -0.3757  2.2809
  149DOPC   H6S17780   1.571   1.458   8.275 -0.7165  0.5773  1.7167
  149DOPC   C2717781   1.749   1.514   8.174 -0.2259 -0.2895 -0.0877
  149DOPC   H7R17782   1.775   1.416   8.127  1.7330  0.1106  0.0499
  149DOPC   H7S17783   1.836   1.577   8.202 -1.7470  0.7674  2.7187
  149DOPC   C2817784   1.678   1.603   8.064 -0.2625  0.1873  0.4694
  149DOPC   H8R17785   1.748   1.646   7.988 -1.6249 -1.7861 -2.0865
  149DOPC   H8S17786   1.625   1.684   8.117 -1.5870 -0.2311 -0.1688
  149DOPC   C2917787   1.564   1.530   7.994  0.2154  0.3785  0.5441
  149DOPC   H9R17788   1.503   1.462   8.056 -0.0745 -1.6448 -1.7743
  149DOPC  C21017789   1.553   1.513   7.861 -0.3935 -0.0802  0.2000
  149DOPC  H10R17790   1.473   1.446   7.826  0.3515 -2.4838  2.6943
  149DOPC  C21117791   1.640   1.587   7.766 -0.5873 -0.4210  0.1224
  149DOPC  H11R17792   1.747   1.563   7.789  0.2556  2.2423 -0.6993
  149DOPC  H11S17793   1.629   1.697   7.774  0.0097 -0.3191 -0.4000
  149DOPC  C21217794   1.623   1.552   7.611  0.4900  0.4385  0.7768
  149DOPC  H12R17795   1.531   1.601   7.573 -0.7876 -0.7097  2.2626
  149DOPC  H12S17796   1.619   1.442   7.596 -1.1357  0.5625  0.0888
  149DOPC  C21317797   1.732   1.620   7.526 -0.4326 -0.2254  0.6564
  149DOPC  H13R17798   1.831   1.573   7.548  1.1578  2.2019 -0.7421
  149DOPC  H13S17799   1.747   1.728   7.549  1.5436 -0.4296  0.5389
  149DOPC  C21417800   1.702   1.611   7.374 -0.1962  0.7968  0.6179
  149DOPC  H14R17801   1.617   1.676   7.343  0.3916  0.6188 -1.5425
  149DOPC  H14S17802   1.663   1.513   7.339 -1.0207  1.2536  0.2393
  149DOPC  C21517803   1.813   1.662   7.277  0.4485  0.2600 -0.7829
  149DOPC  H15R17804   1.908   1.608   7.297  1.3759  1.9420 -0.4144
  149DOPC  H15S17805   1.831   1.768   7.305  0.6966  0.0961 -0.3067
  149DOPC  C21617806   1.778   1.658   7.125  0.2811 -0.3237 -1.0812
  149DOPC  H16R17807   1.682   1.713   7.113  1.3950  2.6779  2.2627
  149DOPC  H16S17808   1.769   1.550   7.101  0.1257 -0.1732 -1.7292
  149DOPC  C21717809   1.879   1.723   7.038 -0.2125  0.5183  0.2450
  149DOPC  H17R17810   1.980   1.690   7.072 -1.3341 -2.1286  1.2589
  149DOPC  H17S17811   1.885   1.833   7.051 -0.8711  0.4132  1.6743
  149DOPC  C21817812   1.855   1.694   6.889  0.4689 -0.8269 -0.1150
  149DOPC  H18R17813   1.850   1.586   6.862  1.7510 -0.3313 -2.6531
  149DOPC  H18S17814   1.939   1.736   6.831 -1.7620  0.7254 -2.4755
  149DOPC  H18T17815   1.757   1.739   6.861  1.1267 -0.5382 -2.0583
  149DOPC   C3317816   1.030   1.710   8.684  0.1796 -0.6778 -0.0477
  149DOPC   H3X17817   1.059   1.797   8.621 -0.8561 -0.3047 -0.0386
  149DOPC   H3Y17818   1.024   1.745   8.790 -0.0124  0.1675 -0.3362
  149DOPC   C3417819   0.891   1.669   8.627 -0.1444  0.1003 -0.0062
  149DOPC   H4X17820   0.829   1.612   8.699 -0.4771  0.1857 -0.2230
  149DOPC   H4Y17821   0.905   1.610   8.534  0.7828  0.4112 -0.0714
  149DOPC   C3517822   0.803   1.790   8.613 -0.9370 -0.1980  0.0648
  149DOPC   H5X17823   0.863   1.855   8.546  0.2051  0.4718  1.7070
  149DOPC   H5Y17824   0.788   1.837   8.712 -3.8264  0.2237 -0.4856
  149DOPC   C3617825   0.657   1.765   8.567 -0.8224  0.6121  0.4612
  149DOPC   H6X17826   0.656   1.693   8.483 -2.6297 -0.6920  1.5340
  149DOPC   H6Y17827   0.593   1.716   8.643 -2.2147  2.0388  0.2667
  149DOPC   C3717828   0.594   1.899   8.532 -0.1725  0.0391  0.6869
  149DOPC   H7X17829   0.597   1.971   8.617  0.0785 -1.2462  1.8070
  149DOPC   H7Y17830   0.651   1.947   8.449 -0.5191  0.0301  0.4419
  149DOPC   C3817831   0.450   1.902   8.479 -0.3799 -0.0245 -0.0839
  149DOPC   H8X17832   0.425   2.002   8.438  2.8719  0.6887 -0.5712
  149DOPC   H8Y17833   0.382   1.865   8.559 -1.0761  0.8577 -0.2603
  149DOPC   C3917834   0.423   1.806   8.367 -0.3062 -0.0086  0.4386
  149DOPC   H9X17835   0.390   1.706   8.397  2.2345 -1.2519 -0.6358
  149DOPC  C31017836   0.436   1.842   8.232  0.6551 -0.2228 -0.4992
  149DOPC  H10X17837   0.418   1.758   8.162 -2.1316 -0.5413  0.4906
  149DOPC  C31117838   0.481   1.968   8.167  0.1101 -0.1667  0.6382
  149DOPC  H11X17839   0.550   1.939   8.085 -1.6343  1.8965 -1.7595
  149DOPC  H11Y17840   0.526   2.045   8.233 -1.9895  1.9016 -0.2039
  149DOPC  C31217841   0.374   2.050   8.082 -0.4401  0.8571 -0.0801
  149DOPC  H12X17842   0.408   2.155   8.076  0.0496  1.1012  3.9578
  149DOPC  H12Y17843   0.286   2.053   8.150  0.4685  0.4674  1.1390
  149DOPC  C31317844   0.332   1.978   7.955 -0.1982  0.5103 -0.2577
  149DOPC  H13X17845   0.293   1.877   7.979 -0.7137  0.6476 -0.4950
  149DOPC  H13Y17846   0.251   2.045   7.918  0.0222  0.5171 -0.7386
  149DOPC  C31417847   0.446   1.977   7.850 -0.3767  0.3118  0.2583
  149DOPC  H14X17848   0.505   2.071   7.857 -0.6621  0.6188 -1.1545
  149DOPC  H14Y17849   0.520   1.902   7.886 -1.0292  1.8371  5.6972
  149DOPC  C31517850   0.412   1.945   7.700 -0.2601  0.3940 -0.3507
  149DOPC  H15X17851   0.364   1.849   7.673  0.2491 -0.1816  0.7220
  149DOPC  H15Y17852   0.511   1.948   7.649 -0.0262  2.0516  0.1467
  149DOPC  C31617853   0.319   2.049   7.635 -0.4121  0.0311  0.1762
  149DOPC  H16X17854   0.229   2.060   7.699 -0.1920  1.2473  0.3056
  149DOPC  H16Y17855   0.372   2.147   7.633  1.2387 -0.8192 -1.8220
  149DOPC  C31717856   0.269   2.015   7.495 -0.1408 -0.3483 -0.0252
  149DOPC  H17X17857   0.199   1.929   7.495  0.4534 -0.8848 -2.3884
  149DOPC  H17Y17858   0.213   2.106   7.464 -2.6259 -1.7493  0.0750
  149DOPC  C31817859   0.383   1.985   7.403  0.4089  0.2308  0.0062
  149DOPC  H18X17860   0.350   1.969   7.298  0.6863 -1.8048  0.1985
  149DOPC  H18Y17861   0.458   2.065   7.421  0.1509  0.2898  0.8528
  149DOPC  H18Z17862   0.436   1.893   7.435  1.6113  0.7239 -0.5213
  150DOPC     N17863   5.526   4.831   8.720 -0.4043 -0.1096 -0.2667
  150DOPC   C1217864   5.584   4.806   8.580  0.8708 -0.4973 -0.0809
  150DOPC  H12A17865   5.531   4.728   8.528  2.6373 -1.5184 -0.4250
  150DOPC  H12B17866   5.681   4.763   8.601  1.5332  1.1680  0.4364
  150DOPC   C1317867   5.412   4.920   8.721 -0.5215 -0.4991  0.0803
  150DOPC  H13A17868   5.440   5.023   8.703  1.4570 -0.4567  2.8035
  150DOPC  H13B17869   5.341   4.895   8.643 -0.2930  2.7805 -1.3475
  150DOPC  H13C17870   5.361   4.910   8.815 -1.5686  0.6416 -0.3400
  150DOPC   C1417871   5.639   4.891   8.805 -0.1285 -0.0427  0.1406
  150DOPC  H14A17872   5.657   4.990   8.766 -0.0426 -0.9439 -2.2324
  150DOPC  H14B17873   5.610   4.888   8.909  0.8959 -1.5675  0.4196
  150DOPC  H14C17874   5.721   4.821   8.796  0.1709  0.4232 -0.8660
  150DOPC   C1517875   5.495   4.694   8.774 -0.2481  0.3460  0.2186
  150DOPC  H15A17876   5.443   4.645   8.693  1.0579  2.1091 -1.7925
  150DOPC  H15B17877   5.433   4.694   8.862 -1.9868  1.5541 -0.9387
  150DOPC  H15C17878   5.590   4.646   8.792  0.4822  1.3772 -0.7226
  150DOPC   C1117879   5.612   4.929   8.489  0.3895  0.7131 -0.7299
  150DOPC  H11A17880   5.665   4.992   8.563  0.8773 -0.5504  0.0181
  150DOPC  H11B17881   5.681   4.899   8.407 -0.9885 -1.0620 -1.3366
  150DOPC     P17882   5.406   4.948   8.332  0.1909  0.1232  0.2461
  150DOPC   O1317883   5.339   5.060   8.267  0.2591 -0.2628  0.3887
  150DOPC   O1417884   5.320   4.846   8.390 -0.3594 -0.2077 -0.5359
  150DOPC   O1217885   5.497   4.996   8.446  0.3755 -0.1163 -0.3715
  150DOPC   O1117886   5.494   4.885   8.219 -0.6678 -0.1322 -0.9289
  150DOPC    C117887   5.592   4.970   8.150  0.4360 -0.3884 -0.9574
  150DOPC    HA17888   5.692   4.926   8.167  0.9149  0.6356 -1.0760
  150DOPC    HB17889   5.611   5.066   8.202 -0.1774 -0.5774 -0.3680
  150DOPC    C217890   5.546   5.008   8.008 -0.6727 -0.4150  0.6049
  150DOPC    HS17891   5.486   5.100   8.020  0.3733  0.2355  0.9554
  150DOPC   O2117892   5.472   4.902   7.952  0.3499 -0.2530  0.2737
  150DOPC   C2117893   5.381   4.939   7.865 -0.0953  0.1659 -0.5193
  150DOPC   O2217894   5.347   5.054   7.830 -0.3045  0.1199 -0.7402
  150DOPC   C2217895   5.305   4.818   7.808 -0.2807  0.2276  0.0437
  150DOPC   H2R17896   5.201   4.825   7.847 -0.6566 -1.0476 -0.6585
  150DOPC   H2S17897   5.350   4.727   7.853  1.4290  0.9620 -0.1134
  150DOPC    C317898   5.667   5.037   7.915  0.7551 -0.6955  0.8723
  150DOPC    HX17899   5.742   4.957   7.931 -0.4821 -1.9593  0.6275
  150DOPC    HY17900   5.715   5.128   7.955 -1.9376  0.6868  1.1508
  150DOPC   O3117901   5.631   5.042   7.774  0.5318  0.0899  0.8025
  150DOPC   C3117902   5.648   5.153   7.702  0.7493 -0.3141 -0.4792
  150DOPC   O3217903   5.699   5.253   7.744 -0.9193  0.4258  0.3069
  150DOPC   C3217904   5.586   5.125   7.564  0.4912  0.2913  0.3185
  150DOPC   H2X17905   5.595   5.015   7.554  1.1066  0.2830  0.9403
  150DOPC   H2Y17906   5.479   5.155   7.561  0.2912 -0.2849  1.3551
  150DOPC   C2317907   5.310   4.816   7.652  0.3706 -0.3292  0.1071
  150DOPC   H3R17908   5.297   4.915   7.602 -0.9420  0.4092  1.8209
  150DOPC   H3S17909   5.237   4.741   7.615 -0.9952  0.7163  0.5953
  150DOPC   C2417910   5.437   4.748   7.602 -0.1286  0.3772 -0.2503
  150DOPC   H4R17911   5.468   4.664   7.669  1.1944  2.3708  1.8103
  150DOPC   H4S17912   5.522   4.820   7.598 -1.3018  1.7154 -2.3295
  150DOPC   C2517913   5.433   4.698   7.455 -0.6395 -0.9602  0.5312
  150DOPC   H5R17914   5.383   4.599   7.458  0.2356 -1.4878 -1.1460
  150DOPC   H5S17915   5.534   4.676   7.415 -0.9154 -0.3427 -0.5673
  150DOPC   C2617916   5.361   4.790   7.351  0.3562 -0.3986 -0.2128
  150DOPC   H6R17917   5.415   4.886   7.362  0.3319 -0.3333 -0.6581
  150DOPC   H6S17918   5.257   4.812   7.382  0.4063 -0.7140  0.1925
  150DOPC   C2717919   5.362   4.740   7.208  0.3793  0.6085 -0.0427
  150DOPC   H7R17920   5.307   4.645   7.189  2.3376 -0.0989 -3.0815
  150DOPC   H7S17921   5.467   4.704   7.197  0.2542 -0.6720  2.3059
  150DOPC   C2817922   5.334   4.844   7.098  0.2212 -0.1783  0.1549
  150DOPC   H8R17923   5.391   4.938   7.114 -2.1383  1.1229  1.5778
  150DOPC   H8S17924   5.229   4.876   7.118  0.2318  0.7629 -1.1535
  150DOPC   C2917925   5.338   4.792   6.959  0.2256 -0.3497 -0.7122
  150DOPC   H9R17926   5.244   4.742   6.935 -1.0611  1.8099 -0.4219
  150DOPC  C21017927   5.442   4.789   6.874  0.3736 -0.3797 -0.5848
  150DOPC  H10R17928   5.433   4.774   6.765  1.5560  3.5487 -1.4026
  150DOPC  C21117929   5.575   4.860   6.910  0.1781  0.1571  1.1305
  150DOPC  H11R17930   5.583   4.864   7.021 -1.3827 -0.1745  1.2872
  150DOPC  H11S17931   5.582   4.963   6.870  2.5352 -1.3913 -2.9438
  150DOPC  C21217932   5.701   4.795   6.856  0.1993  0.7805  0.7256
  150DOPC  H12R17933   5.686   4.784   6.747  0.9493  2.2696  0.4399
  150DOPC  H12S17934   5.706   4.692   6.897  1.4674  0.2028 -0.7740
  150DOPC  C21317935   5.827   4.877   6.869 -0.1394  0.3490 -0.9339
  150DOPC  H13R17936   5.823   4.967   6.805  0.1351  0.1470 -1.2339
  150DOPC  H13S17937   5.918   4.828   6.830 -0.7844  0.0029 -2.0260
  150DOPC  C21417938   5.855   4.915   7.022 -0.0466  0.0182 -0.3100
  150DOPC  H14R17939   5.775   4.982   7.062 -0.0638 -0.5282  0.5943
  150DOPC  H14S17940   5.945   4.979   7.032 -2.1139  3.2595 -0.7104
  150DOPC  C21517941   5.879   4.786   7.101 -0.5536 -0.1436  0.1181
  150DOPC  H15R17942   5.938   4.714   7.040  1.4464  2.5748 -1.3207
  150DOPC  H15S17943   5.778   4.749   7.130  0.2756 -1.4888  1.5030
  150DOPC  C21617944   5.962   4.814   7.234  0.0923 -0.4403  0.3915
  150DOPC  H16R17945   6.043   4.885   7.209 -1.1522  0.2091 -2.0609
  150DOPC  H16S17946   6.002   4.716   7.269 -1.4372 -2.3795 -2.8695
  150DOPC  C21717947   5.869   4.870   7.350 -0.7381  0.7157 -0.3329
  150DOPC  H17R17948   5.789   4.795   7.366  0.0153  0.2543  1.5536
  150DOPC  H17S17949   5.826   4.967   7.319  0.9181  0.4554 -3.8674
  150DOPC  C21817950   5.941   4.878   7.486 -0.3633  0.3771  0.6081
  150DOPC  H18R17951   6.015   4.795   7.481  0.8605  1.3113  2.0983
  150DOPC  H18S17952   5.879   4.843   7.570 -0.7437 -1.8052 -0.5226
  150DOPC  H18T17953   6.007   4.968   7.488  0.9278 -0.5293  0.2514
  150DOPC   C3317954   5.674   5.178   7.447 -0.0306  0.2583 -0.3231
  150DOPC   H3X17955   5.778   5.138   7.445  0.4168  1.2608  1.2709
  150DOPC   H3Y17956   5.696   5.285   7.469 -1.1264  0.0515  1.9874
  150DOPC   C3417957   5.610   5.178   7.307  0.3280 -0.8080 -0.0621
  150DOPC   H4X17958   5.512   5.231   7.308 -0.1330 -1.5712 -1.4114
  150DOPC   H4Y17959   5.594   5.076   7.265 -0.6464 -0.4067 -0.7147
  150DOPC   C3517960   5.684   5.255   7.204 -0.3681 -0.4553 -0.8046
  150DOPC   H5X17961   5.788   5.216   7.207  0.9964  2.6922 -1.9529
  150DOPC   H5Y17962   5.699   5.364   7.223  3.9189 -0.6656 -1.9433
  150DOPC   C3617963   5.620   5.236   7.067  0.4979  0.0691  0.1138
  150DOPC   H6X17964   5.605   5.128   7.050  1.2641 -0.0007 -0.1598
  150DOPC   H6Y17965   5.523   5.290   7.064  0.1277 -0.6468 -2.1329
  150DOPC   C3717966   5.704   5.305   6.951 -0.2785  0.1544  0.5546
  150DOPC   H7X17967   5.693   5.416   6.949  1.4250  0.3517 -1.3351
  150DOPC   H7Y17968   5.809   5.277   6.971  0.1399  0.9744 -0.3869
  150DOPC   C3817969   5.666   5.244   6.809 -0.8589 -0.4785  0.0328
  150DOPC   H8X17970   5.556   5.232   6.798 -0.9752  0.8382 -0.3800
  150DOPC   H8Y17971   5.700   5.138   6.813 -1.0314 -0.6315 -1.5715
  150DOPC   C3917972   5.742   5.310   6.698 -1.0828  0.6888 -0.1705
  150DOPC   H9X17973   5.849   5.330   6.714  0.2460 -3.7947 -1.6849
  150DOPC  C31017974   5.693   5.306   6.571  0.2764  0.5011 -0.2268
  150DOPC  H10X17975   5.751   5.361   6.495  2.1725 -0.1802  0.6703
  150DOPC  C31117976   5.561   5.255   6.517  0.3476  0.0009 -0.7750
  150DOPC  H11X17977   5.491   5.333   6.480 -0.3205 -0.0847  0.2953
  150DOPC  H11Y17978   5.500   5.212   6.599  0.0090  1.0844 -0.4395
  150DOPC  C31217979   5.578   5.159   6.396  0.0081 -0.7856 -0.3269
  150DOPC  H12X17980   5.650   5.197   6.321  2.2172 -1.3393  1.3945
  150DOPC  H12Y17981   5.478   5.150   6.348 -0.1483 -0.5400 -0.0511
  150DOPC  C31317982   5.626   5.020   6.446  0.2007  0.6450  1.0024
  150DOPC  H13X17983   5.728   5.019   6.491  0.9181 -0.4139 -0.5788
  150DOPC  H13Y17984   5.553   4.982   6.521  1.0670  2.1431  2.6950
  150DOPC  C31417985   5.628   4.911   6.337 -0.5031  0.2295  0.2221
  150DOPC  H14X17986   5.527   4.894   6.295  0.7197 -0.0267 -2.8798
  150DOPC  H14Y17987   5.689   4.941   6.250 -1.4249 -0.8880 -0.8497
  150DOPC  C31517988   5.691   4.772   6.380 -0.5239 -0.1770 -0.5660
  150DOPC  H15X17989   5.674   4.687   6.311  1.7461 -1.8602  0.7844
  150DOPC  H15Y17990   5.652   4.748   6.482 -0.8017  0.8807 -0.4035
  150DOPC  C31617991   5.847   4.784   6.388  0.3670 -0.5328 -0.2156
  150DOPC  H16X17992   5.896   4.802   6.290 -0.5401 -0.1630 -0.6133
  150DOPC  H16Y17993   5.878   4.870   6.452 -1.4361 -1.8190  2.5522
  150DOPC  C31717994   5.916   4.656   6.431 -0.7624 -0.0370 -0.1507
  150DOPC  H17X17995   6.023   4.665   6.402 -0.9623 -0.7547 -1.1800
  150DOPC  H17Y17996   5.902   4.657   6.541  2.0042  0.5267  0.2758
  150DOPC  C31817997   5.856   4.526   6.368 -0.2764  0.1033 -0.5297
  150DOPC  H18X17998   5.755   4.492   6.401  0.7129 -1.4040  1.1156
  150DOPC  H18Y17999   5.870   4.531   6.257 -1.6507 -1.9691 -0.8677
  150DOPC  H18Z18000   5.925   4.446   6.402  1.4363  2.2440  1.2760
  151DOPC     N18001   0.848   3.435   9.156  0.0860  0.6237  0.5587
  151DOPC   C1218002   0.904   3.418   9.018 -0.1225  0.0418  0.1767
  151DOPC  H12A18003   0.898   3.314   8.990  0.6446  0.2209 -0.6985
  151DOPC  H12B18004   1.010   3.436   9.026 -0.1866 -0.3100  2.8016
  151DOPC   C1318005   0.707   3.386   9.164  0.6354 -0.3675  0.1468
  151DOPC  H13A18006   0.642   3.431   9.237 -0.6168 -1.1909 -0.4017
  151DOPC  H13B18007   0.650   3.406   9.074 -1.5576 -1.0614  1.2988
  151DOPC  H13C18008   0.705   3.279   9.177  3.0473 -0.3386  1.0923
  151DOPC   C1418009   0.848   3.581   9.197  0.4191  0.0701 -0.0161
  151DOPC  H14A18010   0.783   3.645   9.140 -0.2085  0.0799  0.7005
  151DOPC  H14B18011   0.818   3.589   9.301 -0.4230 -0.6507 -0.1969
  151DOPC  H14C18012   0.947   3.624   9.186  0.7432 -0.7907 -0.5690
  151DOPC   C1518013   0.932   3.355   9.249  0.4959 -0.2497 -0.7804
  151DOPC  H15A18014   1.035   3.384   9.257  0.8169 -1.5233  0.0510
  151DOPC  H15B18015   0.930   3.247   9.240  0.9328 -0.2634 -0.7048
  151DOPC  H15C18016   0.899   3.372   9.350  2.6088 -0.8272  0.0477
  151DOPC   C1118017   0.835   3.492   8.898 -0.5953  0.4804 -0.6428
  151DOPC  H11A18018   0.824   3.600   8.921  3.4442  1.0926 -0.9019
  151DOPC  H11B18019   0.905   3.506   8.812  2.2310  0.7884  1.5736
  151DOPC     P18020   0.694   3.326   8.758  0.3719 -0.0128 -0.1258
  151DOPC   O1318021   0.551   3.319   8.716 -0.2186  0.5924  0.3787
  151DOPC   O1418022   0.759   3.202   8.815 -0.8085 -0.4773 -0.0776
  151DOPC   O1218023   0.707   3.444   8.857 -0.4513  0.2995  0.5581
  151DOPC   O1118024   0.763   3.378   8.632  0.1469 -0.0969  0.0063
  151DOPC    C118025   0.721   3.363   8.498  0.2575  0.0842 -0.8249
  151DOPC    HA18026   0.766   3.451   8.446 -0.8318  0.4527 -1.1605
  151DOPC    HB18027   0.611   3.359   8.487  0.4163 -1.3325 -2.3968
  151DOPC    C218028   0.777   3.235   8.438 -0.1450  0.3330  0.3154
  151DOPC    HS18029   0.732   3.156   8.502  1.1140  1.5801  2.9068
  151DOPC   O2118030   0.919   3.235   8.467  0.3299 -0.1891  0.2692
  151DOPC   C2118031   0.979   3.128   8.436 -0.1222  0.5832  0.1962
  151DOPC   O2218032   0.929   3.014   8.416 -0.2679  0.0076  0.1723
  151DOPC   C2218033   1.124   3.153   8.425 -0.2768 -0.2189 -0.5021
  151DOPC   H2R18034   1.175   3.114   8.515  0.6790  1.4434 -0.2784
  151DOPC   H2S18035   1.139   3.263   8.428  1.4242 -0.4166 -0.6526
  151DOPC    C318036   0.736   3.227   8.288  0.3865 -0.2713 -0.0627
  151DOPC    HX18037   0.626   3.233   8.284  0.3954 -0.5623 -0.8445
  151DOPC    HY18038   0.766   3.125   8.254  2.9443  0.2470  0.3844
  151DOPC   O3118039   0.801   3.334   8.214  0.8339 -0.4248  0.1619
  151DOPC   C3118040   0.772   3.310   8.082  0.3420 -0.1197  0.1093
  151DOPC   O3218041   0.685   3.237   8.046 -0.3228  0.0701 -0.4409
  151DOPC   C3218042   0.866   3.387   7.993 -1.0428  0.3442 -0.2619
  151DOPC   H2X18043   0.843   3.496   7.999  2.5214  1.2892 -1.3411
  151DOPC   H2Y18044   0.969   3.365   8.028 -0.5703  1.6279 -0.7825
  151DOPC   C2318045   1.184   3.092   8.300 -0.4090 -0.0980  0.3576
  151DOPC   H3R18046   1.178   2.982   8.313 -1.3448 -0.5195 -2.8343
  151DOPC   H3S18047   1.287   3.131   8.303 -0.4883  0.7174 -3.0551
  151DOPC   C2418048   1.132   3.134   8.163  0.4346  0.4981  0.0173
  151DOPC   H4R18049   1.134   3.245   8.151  1.1077  0.6218  1.1065
  151DOPC   H4S18050   1.025   3.106   8.160  0.8715 -1.2334 -2.3166
  151DOPC   C2518051   1.209   3.055   8.054 -0.1266 -0.5509  0.8119
  151DOPC   H5R18052   1.188   2.946   8.063  1.3534 -1.0016 -0.6275
  151DOPC   H5S18053   1.316   3.084   8.059  0.0493  0.0827 -3.2801
  151DOPC   C2618054   1.160   3.103   7.916  0.2115  0.2827  0.6107
  151DOPC   H6R18055   1.198   3.205   7.899  0.0249  0.1434 -0.7382
  151DOPC   H6S18056   1.049   3.110   7.908  0.2766 -0.1445 -1.0188
  151DOPC   C2718057   1.214   3.024   7.794 -0.2614  0.4956  0.0182
  151DOPC   H7R18058   1.170   2.924   7.816 -0.6055  1.3343  4.1000
  151DOPC   H7S18059   1.323   3.012   7.808 -0.2247  0.8301  0.0327
  151DOPC   C2818060   1.167   3.067   7.648 -0.1766 -0.6000  0.2254
  151DOPC   H8R18061   1.075   3.129   7.658  0.6879  0.4399  2.2145
  151DOPC   H8S18062   1.143   2.975   7.590  0.0630 -0.6991  0.2830
  151DOPC   C2918063   1.277   3.143   7.575  0.3098  0.0614  0.4225
  151DOPC   H9R18064   1.383   3.122   7.596 -0.1643 -0.9249  1.9359
  151DOPC  C21018065   1.265   3.228   7.467 -0.5294  0.9610 -0.0409
  151DOPC  H10R18066   1.362   3.272   7.443 -0.3313  0.7611  0.3750
  151DOPC  C21118067   1.142   3.277   7.405  0.1855 -0.5604 -0.9939
  151DOPC  H11R18068   1.146   3.387   7.394 -0.3841 -0.3756  0.4266
  151DOPC  H11S18069   1.051   3.254   7.466  0.0783 -0.6041 -1.1688
  151DOPC  C21218070   1.135   3.210   7.262 -0.0619  0.5668  0.8299
  151DOPC  H12R18071   1.145   3.100   7.258  0.9466  0.6833 -0.6976
  151DOPC  H12S18072   1.231   3.248   7.220 -0.5827  2.9272  1.5770
  151DOPC  C21318073   1.023   3.254   7.177  0.2174 -0.0822 -0.2199
  151DOPC  H13R18074   1.020   3.363   7.159  0.0489  0.3669  2.1123
  151DOPC  H13S18075   0.925   3.227   7.224  1.3175 -3.4155  0.4720
  151DOPC  C21418076   1.026   3.190   7.038  0.5091 -0.6788  0.2639
  151DOPC  H14R18077   0.930   3.206   6.984  1.8179 -2.1398 -2.7350
  151DOPC  H14S18078   1.030   3.079   7.044 -0.4389 -0.6446  3.5985
  151DOPC  C21518079   1.133   3.248   6.951  0.4372 -0.1927 -0.4078
  151DOPC  H15R18080   1.230   3.196   6.966  0.6233  0.2850  0.0520
  151DOPC  H15S18081   1.144   3.357   6.968  2.7767 -0.6827  1.9519
  151DOPC  C21618082   1.109   3.225   6.796  0.6383 -0.1545 -0.2496
  151DOPC  H16R18083   1.206   3.249   6.746  0.4852 -0.5915 -0.7640
  151DOPC  H16S18084   1.030   3.296   6.764  0.1464 -0.0259  1.1963
  151DOPC  C21718085   1.081   3.074   6.765 -0.2350  0.1537 -0.4566
  151DOPC  H17R18086   1.004   3.033   6.834 -1.0321  0.1780 -1.3159
  151DOPC  H17S18087   1.177   3.018   6.775  0.2958  0.8121 -1.6545
  151DOPC  C21818088   1.040   3.053   6.621 -0.4424  0.8223 -0.4771
  151DOPC  H18R18089   1.021   2.947   6.594 -0.7047  0.8415 -0.3785
  151DOPC  H18S18090   1.108   3.082   6.538 -0.3971  1.0720 -0.3533
  151DOPC  H18T18091   0.943   3.102   6.596 -0.8262 -0.6531 -2.0945
  151DOPC   C3318092   0.863   3.341   7.842 -0.2162  0.9492 -0.8441
  151DOPC   H3X18093   0.853   3.231   7.834  1.0401  0.8935 -1.9905
  151DOPC   H3Y18094   0.966   3.357   7.805  0.2352 -1.0765 -0.5558
  151DOPC   C3418095   0.774   3.422   7.750 -0.0270 -0.1526 -0.8408
  151DOPC   H4X18096   0.777   3.532   7.766 -0.1282  0.1467 -2.6749
  151DOPC   H4Y18097   0.671   3.392   7.781  0.4082  0.3306  1.1924
  151DOPC   C3518098   0.796   3.393   7.604  0.1169 -0.7975  0.3286
  151DOPC   H5X18099   0.766   3.288   7.588  0.0433 -0.6294 -0.6825
  151DOPC   H5Y18100   0.905   3.398   7.580  0.3374 -0.5233  1.3360
  151DOPC   C3618101   0.718   3.487   7.507 -0.0972  0.2300 -0.4312
  151DOPC   H6X18102   0.613   3.474   7.539 -0.0320 -1.2641 -0.7596
  151DOPC   H6Y18103   0.758   3.591   7.510  0.6317 -0.0027 -1.5781
  151DOPC   C3718104   0.735   3.437   7.362  0.2965  0.1680  0.1711
  151DOPC   H7X18105   0.843   3.414   7.356  0.2479 -2.0171  4.0110
  151DOPC   H7Y18106   0.684   3.339   7.356  0.4649  0.0432  0.6908
  151DOPC   C3818107   0.691   3.533   7.250  0.4521 -0.5461 -0.1243
  151DOPC   H8X18108   0.741   3.631   7.260  0.4716 -0.7070  1.9302
  151DOPC   H8Y18109   0.580   3.541   7.257  0.3049 -1.1759 -1.4916
  151DOPC   C3918110   0.731   3.477   7.115  0.2562 -0.5840 -0.3475
  151DOPC   H9X18111   0.831   3.507   7.080  0.1753 -0.2790 -0.3183
  151DOPC  C31018112   0.669   3.392   7.030  0.2848 -0.6565  0.7213
  151DOPC  H10X18113   0.716   3.369   6.933  1.8358 -2.0229  1.7430
  151DOPC  C31118114   0.545   3.312   7.039  0.1428 -0.0080 -0.0703
  151DOPC  H11X18115   0.490   3.348   7.129 -1.3380 -2.2693  0.0311
  151DOPC  H11Y18116   0.571   3.205   7.058  0.0805 -0.1186 -0.5792
  151DOPC  C31218117   0.448   3.308   6.922  0.2626 -0.2598  0.0439
  151DOPC  H12X18118   0.423   3.409   6.884 -0.9202 -0.6767 -0.3401
  151DOPC  H12Y18119   0.349   3.265   6.947 -0.7060  1.0573 -1.3464
  151DOPC  C31318120   0.500   3.223   6.808  0.2586 -0.0477 -0.7095
  151DOPC  H13X18121   0.595   3.265   6.769  2.2378  1.4158  4.6708
  151DOPC  H13Y18122   0.507   3.122   6.853 -1.5827  0.8558  1.8760
  151DOPC  C31418123   0.390   3.201   6.703  0.4170 -0.0038 -0.3375
  151DOPC  H14X18124   0.290   3.184   6.749 -0.0908 -0.4309 -1.5548
  151DOPC  H14Y18125   0.373   3.291   6.640  0.9563  1.7133  1.8295
  151DOPC  C31518126   0.423   3.077   6.616 -0.1252 -0.2230 -0.2232
  151DOPC  H15X18127   0.342   3.063   6.541 -0.5768 -0.3820  0.2817
  151DOPC  H15Y18128   0.404   2.995   6.688  0.3062  0.2380  0.4330
  151DOPC  C31618129   0.563   3.075   6.557 -0.3642  0.7431 -0.1310
  151DOPC  H16X18130   0.591   3.168   6.503  0.6028  0.5401 -0.0087
  151DOPC  H16Y18131   0.641   3.060   6.635 -0.3242  0.9144 -0.1376
  151DOPC  C31718132   0.587   2.975   6.450 -0.3588 -0.6909  0.2589
  151DOPC  H17X18133   0.697   2.975   6.434 -0.3261 -0.7290  0.4741
  151DOPC  H17Y18134   0.551   2.874   6.480 -1.1146 -0.6870 -0.6181
  151DOPC  C31818135   0.513   2.990   6.310 -0.8059  0.3899  0.1864
  151DOPC  H18X18136   0.568   3.064   6.249 -0.2222  0.9699  1.3875
  151DOPC  H18Y18137   0.492   2.893   6.261  0.0156  1.4371 -2.3703
  151DOPC  H18Z18138   0.414   3.039   6.327 -2.5980 -1.4250 -3.7127
  152DOPC     N18139   3.331   2.172   8.830 -0.5692 -0.4865  0.0539
  152DOPC   C1218140   3.341   2.039   8.754 -0.2892 -0.0621  0.1888
  152DOPC  H12A18141   3.385   1.973   8.827  0.4007  0.9489  0.7025
  152DOPC  H12B18142   3.413   2.044   8.673 -0.4366 -0.1534  0.0497
  152DOPC   C1318143   3.465   2.213   8.888 -0.5867 -0.1657 -0.4745
  152DOPC  H13A18144   3.459   2.304   8.944 -2.1148 -0.5639  0.0431
  152DOPC  H13B18145   3.497   2.133   8.953  0.0196  0.2550 -0.2440
  152DOPC  H13C18146   3.527   2.218   8.799 -2.1605  0.9542 -1.5420
  152DOPC   C1418147   3.241   2.160   8.948 -0.2327 -0.1478  0.9366
  152DOPC  H14A18148   3.239   2.256   8.997 -0.0229 -0.2785  1.1989
  152DOPC  H14B18149   3.145   2.126   8.912 -0.5700  1.5206  0.1669
  152DOPC  H14C18150   3.285   2.093   9.020 -0.3806 -0.1881  0.9905
  152DOPC   C1518151   3.277   2.291   8.751  0.0357 -0.4211 -0.1025
  152DOPC  H15A18152   3.335   2.311   8.663 -1.9726 -0.2850 -1.4620
  152DOPC  H15B18153   3.291   2.383   8.806  0.2880 -0.2894 -0.3858
  152DOPC  H15C18154   3.171   2.283   8.730 -0.1314  0.1618  0.4891
  152DOPC   C1118155   3.210   1.976   8.696 -0.6546  0.1769 -0.1331
  152DOPC  H11A18156   3.147   2.063   8.669  1.7546  2.2989  0.6575
  152DOPC  H11B18157   3.237   1.916   8.607  2.0874  0.3086  0.5227
  152DOPC     P18158   3.135   1.744   8.806 -0.1804 -0.1516  0.1016
  152DOPC   O1318159   3.017   1.709   8.881 -0.1823  0.0359 -0.3460
  152DOPC   O1418160   3.267   1.696   8.862  0.4162  0.2652 -0.7258
  152DOPC   O1218161   3.138   1.907   8.795  0.1307 -0.2271 -0.3252
  152DOPC   O1118162   3.120   1.700   8.655 -0.2820 -0.2032 -0.0767
  152DOPC    C118163   3.006   1.745   8.583 -0.0638  0.0860  0.2758
  152DOPC    HA18164   2.986   1.854   8.594 -0.8140 -0.0554  0.3499
  152DOPC    HB18165   2.920   1.684   8.619  0.7225 -0.9372  0.4825
  152DOPC    C218166   3.029   1.715   8.436 -0.8052 -0.4728  0.0546
  152DOPC    HS18167   3.051   1.606   8.434 -0.2782 -0.3688  0.1576
  152DOPC   O2118168   3.139   1.791   8.382  0.1036 -0.6238 -0.5647
  152DOPC   C2118169   3.213   1.727   8.295  0.0281 -0.1624  0.5208
  152DOPC   O2218170   3.207   1.612   8.262  0.0558  0.0792  0.3775
  152DOPC   C2218171   3.318   1.827   8.231  0.4729  0.5157  0.3926
  152DOPC   H2R18172   3.391   1.846   8.312 -0.8280  4.0036  0.8818
  152DOPC   H2S18173   3.265   1.922   8.209  0.8474  1.1105  1.9433
  152DOPC    C318174   2.901   1.740   8.347  0.0201 -0.3227 -0.1455
  152DOPC    HX18175   2.875   1.848   8.345 -2.5228 -0.8633 -0.4469
  152DOPC    HY18176   2.808   1.691   8.383  0.4593 -1.3961 -0.4352
  152DOPC   O3118177   2.935   1.708   8.211  0.1922  0.0470 -0.1818
  152DOPC   C3118178   2.899   1.586   8.179 -0.0523 -0.1284  0.0756
  152DOPC   O3218179   2.847   1.513   8.265 -0.1245  0.0220  0.1897
  152DOPC   C3218180   2.930   1.535   8.035 -0.5141 -0.5402 -0.7902
  152DOPC   H2X18181   2.940   1.613   7.957  0.9175  1.7997  1.5504
  152DOPC   H2Y18182   3.032   1.492   8.046 -1.5669 -2.5986  2.2875
  152DOPC   C2318183   3.396   1.752   8.118 -0.2399  0.2269  0.3131
  152DOPC   H3R18184   3.416   1.647   8.148  0.9531 -0.6859 -3.1456
  152DOPC   H3S18185   3.496   1.795   8.098  0.4471 -2.1142 -1.7701
  152DOPC   C2418186   3.322   1.743   7.983  0.4260 -0.1039 -0.5168
  152DOPC   H4R18187   3.285   1.840   7.945  1.1054  0.6030  0.5830
  152DOPC   H4S18188   3.231   1.680   7.998  1.5331 -1.9530 -1.2528
  152DOPC   C2518189   3.399   1.682   7.864 -0.3277  0.3466 -0.2183
  152DOPC   H5R18190   3.439   1.583   7.896  1.6642  0.7505 -1.2719
  152DOPC   H5S18191   3.490   1.745   7.852  1.1940 -1.4917  0.8965
  152DOPC   C2618192   3.309   1.657   7.743  0.7921  0.7572 -0.6562
  152DOPC   H6R18193   3.252   1.749   7.721 -0.8065 -0.3837 -1.5212
  152DOPC   H6S18194   3.232   1.580   7.767  1.1511 -0.1097 -2.1761
  152DOPC   C2718195   3.395   1.633   7.614  0.2511  0.4886 -0.2596
  152DOPC   H7R18196   3.406   1.523   7.605  0.4866  0.4808  0.1453
  152DOPC   H7S18197   3.495   1.672   7.639  1.0446 -2.5835  1.9023
  152DOPC   C2818198   3.320   1.678   7.486 -0.2999 -0.2994 -1.0473
  152DOPC   H8R18199   3.271   1.774   7.513 -0.4783 -1.0275  1.5661
  152DOPC   H8S18200   3.234   1.607   7.482 -0.3661 -0.5511  2.0524
  152DOPC   C2918201   3.417   1.660   7.368  0.1320  0.2193  0.1982
  152DOPC   H9R18202   3.519   1.700   7.379  0.2194  0.0339  0.0532
  152DOPC  C21018203   3.394   1.588   7.256  0.7168  0.0157  0.6384
  152DOPC  H10R18204   3.468   1.584   7.174  0.4576 -3.5668  0.3919
  152DOPC  C21118205   3.271   1.508   7.225  0.3998 -0.1831 -0.1792
  152DOPC  H11R18206   3.188   1.545   7.289  0.8858  1.5909 -0.5068
  152DOPC  H11S18207   3.287   1.401   7.247  0.1732 -0.0987  0.4263
  152DOPC  C21218208   3.246   1.506   7.068  1.0390  0.1137  0.2454
  152DOPC  H12R18209   3.230   1.609   7.028 -0.4054 -0.3403 -0.4251
  152DOPC  H12S18210   3.155   1.445   7.045 -0.1012  1.3819  1.2147
  152DOPC  C21318211   3.364   1.437   6.988  0.6649 -0.6760 -0.1177
  152DOPC  H13R18212   3.405   1.356   7.052  0.3219 -1.9849 -1.4974
  152DOPC  H13S18213   3.441   1.514   6.963  1.4060 -1.3309  0.1147
  152DOPC  C21418214   3.316   1.380   6.856  0.0808  0.4312  0.5511
  152DOPC  H14R18215   3.295   1.466   6.790  1.0483  0.6670  0.5279
  152DOPC  H14S18216   3.226   1.318   6.876  0.4137 -0.3771 -0.4068
  152DOPC  C21518217   3.411   1.287   6.778  0.3749  0.5803  0.4078
  152DOPC  H15R18218   3.457   1.209   6.842 -1.2421  0.2704  1.2485
  152DOPC  H15S18219   3.487   1.359   6.740 -0.1624 -0.0193 -2.0085
  152DOPC  C21618220   3.343   1.217   6.657  0.2923  0.5992 -0.3799
  152DOPC  H16R18221   3.266   1.145   6.692  0.6801  0.2144 -0.3143
  152DOPC  H16S18222   3.414   1.153   6.601 -0.2175 -1.3654  1.1321
  152DOPC  C21718223   3.288   1.318   6.551 -0.3411 -0.7682 -0.7404
  152DOPC  H17R18224   3.379   1.377   6.527  1.4832 -3.2389 -0.3744
  152DOPC  H17S18225   3.202   1.371   6.597  0.0943  0.7690 -1.6286
  152DOPC  C21818226   3.250   1.256   6.415 -0.4060  0.0817  0.5686
  152DOPC  H18R18227   3.204   1.325   6.341  0.3177 -1.5603 -1.5202
  152DOPC  H18S18228   3.183   1.170   6.439 -0.3436 -0.0050  0.4295
  152DOPC  H18T18229   3.332   1.202   6.363 -0.9485  0.7438 -1.0384
  152DOPC   C3318230   2.830   1.425   7.993 -0.0954  0.7568  0.8274
  152DOPC   H3X18231   2.729   1.471   7.995 -1.0974 -0.7874 -3.3957
  152DOPC   H3Y18232   2.838   1.336   8.059  1.0013 -0.0741 -0.3769
  152DOPC   C3418233   2.860   1.372   7.851 -0.1831  0.6415  0.0947
  152DOPC   H4X18234   2.801   1.278   7.840 -2.1470  1.7341  0.7332
  152DOPC   H4Y18235   2.965   1.339   7.839 -0.3800  0.5156 -1.4800
  152DOPC   C3518236   2.834   1.468   7.736  0.0085  0.0035  0.2548
  152DOPC   H5X18237   2.872   1.571   7.752 -1.3859  1.6481 -5.0513
  152DOPC   H5Y18238   2.724   1.482   7.728  0.1505  0.6178 -0.7576
  152DOPC   C3618239   2.899   1.402   7.607  0.0628 -1.0436  0.2521
  152DOPC   H6X18240   3.009   1.412   7.604 -0.1512  2.1376 -0.8820
  152DOPC   H6Y18241   2.876   1.294   7.603  0.4476 -1.1423  0.7218
  152DOPC   C3718242   2.862   1.487   7.475 -0.6210 -0.3267 -0.2694
  152DOPC   H7X18243   2.879   1.415   7.391 -0.5204  0.9166 -1.3491
  152DOPC   H7Y18244   2.752   1.497   7.486 -0.5936 -1.0606  0.7043
  152DOPC   C3818245   2.943   1.614   7.448  0.6601  0.3468 -1.2187
  152DOPC   H8X18246   3.041   1.583   7.408  1.9212 -1.2487  2.6665
  152DOPC   H8Y18247   2.967   1.673   7.539 -0.8765  0.2767 -0.7463
  152DOPC   C3918248   2.870   1.708   7.357  0.0480  0.6677 -0.4614
  152DOPC   H9X18249   2.906   1.704   7.253  2.5200 -0.2803  0.3508
  152DOPC  C31018250   2.751   1.763   7.385  0.9587  0.1878  0.5116
  152DOPC  H10X18251   2.702   1.826   7.308  1.6648  0.3464  0.1858
  152DOPC  C31118252   2.679   1.763   7.513 -1.1105  0.3087 -0.4763
  152DOPC  H11X18253   2.761   1.741   7.585 -0.9111 -0.3097 -0.8803
  152DOPC  H11Y18254   2.613   1.674   7.525  2.7014 -2.8003 -0.5534
  152DOPC  C31218255   2.615   1.899   7.551 -0.5362  0.4130 -0.0504
  152DOPC  H12X18256   2.541   1.911   7.470  0.6424  1.6133 -0.9932
  152DOPC  H12Y18257   2.681   1.987   7.533 -2.2818  1.9973  0.9372
  152DOPC  C31318258   2.566   1.921   7.694 -0.1659  0.5535  0.2518
  152DOPC  H13X18259   2.507   2.013   7.715  0.6003  1.5098 -1.6112
  152DOPC  H13Y18260   2.495   1.842   7.726  1.0359 -0.5890  0.1726
  152DOPC  C31418261   2.687   1.904   7.792 -0.3278 -0.8688 -0.5085
  152DOPC  H14X18262   2.715   1.797   7.800  1.3270 -0.4588 -0.2738
  152DOPC  H14Y18263   2.779   1.951   7.750 -0.5719 -0.1453 -0.2611
  152DOPC  C31518264   2.654   1.974   7.922  1.1866 -0.2489 -1.0809
  152DOPC  H15X18265   2.723   1.943   8.004 -1.2674  0.4273  1.4133
  152DOPC  H15Y18266   2.552   1.941   7.951  1.6090  0.1326  1.0519
  152DOPC  C31618267   2.657   2.125   7.936  0.3389 -0.2542 -0.0616
  152DOPC  H16X18268   2.765   2.152   7.939  0.5041 -0.9632  1.2077
  152DOPC  H16Y18269   2.607   2.171   7.848 -0.8407  1.7793  1.5821
  152DOPC  C31718270   2.599   2.171   8.072  1.0142 -0.6139 -0.0618
  152DOPC  H17X18271   2.613   2.279   8.095 -2.9629 -0.7402  4.5317
  152DOPC  H17Y18272   2.490   2.154   8.063  0.5096  0.3031  3.0855
  152DOPC  C31818273   2.663   2.114   8.191  0.6531  0.7701 -0.0842
  152DOPC  H18X18274   2.634   2.007   8.199 -1.7189  1.3727 -0.0386
  152DOPC  H18Y18275   2.774   2.121   8.180  0.7847 -1.2466 -0.3058
  152DOPC  H18Z18276   2.630   2.166   8.283 -0.0323 -1.2296  0.8524
  153DOPC     N18277   4.120   6.360   8.650  0.0146 -0.4685 -0.3254
  153DOPC   C1218278   4.102   6.363   8.499  0.2881 -0.1402  0.2976
  153DOPC  H12A18279   4.073   6.461   8.464 -1.4478  0.1645  2.3841
  153DOPC  H12B18280   4.017   6.302   8.473  0.6926 -0.7651  0.4081
  153DOPC   C1318281   4.244   6.429   8.703  0.1471  0.2297 -0.8708
  153DOPC  H13A18282   4.255   6.426   8.811  1.2460  0.5311 -0.9655
  153DOPC  H13B18283   4.327   6.380   8.656 -1.1829 -3.7946  0.5957
  153DOPC  H13C18284   4.248   6.532   8.671 -3.2512  1.2815  1.4982
  153DOPC   C1418285   4.119   6.216   8.701 -0.0164  0.1540  0.3021
  153DOPC  H14A18286   4.206   6.161   8.669 -0.2300 -0.1441  0.2283
  153DOPC  H14B18287   4.104   6.202   8.807  2.2966 -2.0934  0.4110
  153DOPC  H14C18288   4.031   6.165   8.665 -1.2945  1.3651  1.5522
  153DOPC   C1518289   4.001   6.429   8.721  0.5115  0.0034  0.3794
  153DOPC  H15A18290   3.972   6.528   8.690 -1.5264 -0.8628 -0.6615
  153DOPC  H15B18291   4.022   6.429   8.827  1.2729 -0.4055  0.2329
  153DOPC  H15C18292   3.911   6.374   8.699  0.5354  0.2565 -0.3909
  153DOPC   C1118293   4.220   6.313   8.419 -0.9168  0.0040 -0.4162
  153DOPC  H11A18294   4.215   6.348   8.314  0.2987  0.9603 -0.1786
  153DOPC  H11B18295   4.315   6.363   8.450  0.2042 -2.2926  0.0998
  153DOPC     P18296   4.144   6.087   8.322 -0.1555 -0.1359  0.7765
  153DOPC   O1318297   4.001   6.125   8.340 -0.0997 -0.2548  0.3914
  153DOPC   O1418298   4.167   5.943   8.305  0.1002 -0.0577  0.4343
  153DOPC   O1218299   4.232   6.162   8.423 -0.3966 -0.2736 -0.3599
  153DOPC   O1118300   4.190   6.162   8.190  0.3338  0.0398 -0.1977
  153DOPC    C118301   4.329   6.135   8.146 -0.2065  0.2418 -0.1327
  153DOPC    HA18302   4.337   6.036   8.096  1.0426 -0.5912  1.6134
  153DOPC    HB18303   4.396   6.137   8.235 -1.3332  1.1388  0.7240
  153DOPC    C218304   4.373   6.244   8.042  0.3778  0.7204  0.2247
  153DOPC    HS18305   4.398   6.338   8.095  0.4992 -0.5888  2.6383
  153DOPC   O2118306   4.273   6.262   7.941  0.8762 -0.2771  0.6721
  153DOPC   C2118307   4.291   6.372   7.873  0.1605 -0.1856  0.3407
  153DOPC   O2218308   4.375   6.458   7.889  0.9396 -0.3353  0.3817
  153DOPC   C2218309   4.189   6.371   7.764  0.1637  0.5619  1.0686
  153DOPC   H2R18310   4.090   6.348   7.807 -0.9182  0.5186 -1.2947
  153DOPC   H2S18311   4.225   6.285   7.703  1.1338  0.8038  1.2862
  153DOPC    C318312   4.504   6.197   7.973  0.6615 -0.2510  0.1805
  153DOPC    HX18313   4.591   6.199   8.042 -1.2461 -0.4520  2.7246
  153DOPC    HY18314   4.522   6.275   7.895  0.1271  0.7848  1.0649
  153DOPC   O3118315   4.491   6.066   7.908 -1.2451 -0.0941  0.0774
  153DOPC   C3118316   4.607   6.021   7.865  0.7689  0.0621 -0.2569
  153DOPC   O3218317   4.715   6.079   7.883  0.1110 -0.1335 -1.1031
  153DOPC   C3218318   4.584   5.890   7.798 -0.0693 -0.3236  0.1755
  153DOPC   H2X18319   4.628   5.814   7.867  1.9627  1.3006  0.7700
  153DOPC   H2Y18320   4.478   5.860   7.787 -0.2824 -0.4972  2.3472
  153DOPC   C2318321   4.192   6.492   7.665 -0.1266 -0.2097 -0.8640
  153DOPC   H3R18322   4.267   6.569   7.689 -1.4178  0.7338  0.3358
  153DOPC   H3S18323   4.093   6.541   7.681  0.8515  1.8941 -1.0523
  153DOPC   C2418324   4.215   6.445   7.524  0.7632  0.1453  0.7095
  153DOPC   H4R18325   4.138   6.370   7.496  3.1025 -2.2641  0.3219
  153DOPC   H4S18326   4.312   6.395   7.507  1.4574  1.4848  0.6040
  153DOPC   C2518327   4.192   6.567   7.429  0.3305 -0.6418  0.4261
  153DOPC   H5R18328   4.271   6.637   7.464  0.1241 -0.2540  0.1345
  153DOPC   H5S18329   4.092   6.611   7.449  0.7170 -0.1634  1.3326
  153DOPC   C2618330   4.209   6.532   7.279  0.3257  0.1339 -0.0307
  153DOPC   H6R18331   4.311   6.491   7.260 -0.0303 -1.2054  0.7614
  153DOPC   H6S18332   4.203   6.629   7.226  1.4982  0.9498  1.2886
  153DOPC   C2718333   4.101   6.436   7.227 -0.1551  0.4714 -0.5049
  153DOPC   H7R18334   4.011   6.438   7.292 -2.6445 -2.3950 -3.5477
  153DOPC   H7S18335   4.127   6.328   7.227 -0.6169  0.3357  0.8661
  153DOPC   C2818336   4.050   6.467   7.083 -0.8931  0.5188  0.1139
  153DOPC   H8R18337   4.010   6.570   7.070  0.1676  0.7031 -2.2517
  153DOPC   H8S18338   3.967   6.395   7.068 -0.6170  0.1606  0.2913
  153DOPC   C2918339   4.161   6.445   6.989  0.2453  0.3128  0.5584
  153DOPC   H9R18340   4.261   6.427   7.031  0.4549 -0.7836 -0.3548
  153DOPC  C21018341   4.147   6.438   6.853  0.7634 -0.3239  0.1255
  153DOPC  H10R18342   4.235   6.406   6.795  1.3598  0.5202  0.5489
  153DOPC  C21118343   4.022   6.464   6.776 -0.5596  0.3829  0.8745
  153DOPC  H11R18344   4.008   6.571   6.749  1.2388  1.2570  3.0622
  153DOPC  H11S18345   3.935   6.437   6.840 -0.4812  0.1565  0.8836
  153DOPC  C21218346   4.010   6.374   6.646  0.0999  0.9626 -0.4470
  153DOPC  H12R18347   3.900   6.379   6.628 -0.5392 -0.4754  2.4273
  153DOPC  H12S18348   4.035   6.267   6.664  0.0755  0.8707 -0.9466
  153DOPC  C21318349   4.081   6.433   6.524 -1.7300  0.1221  0.5153
  153DOPC  H13R18350   4.187   6.460   6.541 -1.3560 -0.9586 -0.0275
  153DOPC  H13S18351   4.035   6.526   6.486 -2.1842 -0.8161 -1.3627
  153DOPC  C21418352   4.080   6.338   6.401  0.0505 -0.8182  0.1648
  153DOPC  H14R18353   3.974   6.324   6.371 -0.2836  1.6722 -0.0252
  153DOPC  H14S18354   4.130   6.242   6.428  0.6782 -0.5126  0.1044
  153DOPC  C21518355   4.157   6.390   6.278 -0.2987 -0.1630  0.0372
  153DOPC  H15R18356   4.265   6.377   6.301 -0.5013  1.6075  2.4915
  153DOPC  H15S18357   4.135   6.497   6.253 -1.6200 -0.4432 -0.1053
  153DOPC  C21618358   4.107   6.310   6.167 -0.2163  0.2346  0.0911
  153DOPC  H16R18359   4.009   6.353   6.139 -0.3051 -0.3440 -0.5008
  153DOPC  H16S18360   4.105   6.200   6.185  0.2072  0.2875  0.4888
  153DOPC  C21718361   4.197   6.336   6.042 -0.2069 -0.0644 -0.1773
  153DOPC  H17R18362   4.142   6.276   5.966 -1.4334  1.7515 -0.8123
  153DOPC  H17S18363   4.298   6.296   6.065  0.4182  2.2804  1.6013
  153DOPC  C21818364   4.206   6.481   5.985 -0.1559 -0.0937  0.1609
  153DOPC  H18R18365   4.261   6.541   6.060  1.1520 -0.0717 -0.7885
  153DOPC  H18S18366   4.106   6.530   5.979 -0.2897 -0.3419  0.3261
  153DOPC  H18T18367   4.255   6.488   5.886 -1.3657  0.4486 -0.4251
  153DOPC   C3318368   4.655   5.900   7.657 -0.0089 -0.2200  0.2200
  153DOPC   H3X18369   4.746   5.962   7.661  0.0937 -0.4313  2.3053
  153DOPC   H3Y18370   4.588   5.948   7.583  1.2648 -0.0046 -0.8190
  153DOPC   C3418371   4.687   5.758   7.598  0.0981  1.1219 -0.2171
  153DOPC   H4X18372   4.725   5.768   7.494  0.3408  2.4243 -0.0179
  153DOPC   H4Y18373   4.588   5.707   7.600  0.0234  1.2857  1.4102
  153DOPC   C3518374   4.803   5.701   7.677  0.1398 -0.0623 -0.3453
  153DOPC   H5X18375   4.767   5.678   7.780  0.4559 -2.1723 -0.6590
  153DOPC   H5Y18376   4.892   5.767   7.685 -0.2445  0.4718 -0.4836
  153DOPC   C3618377   4.861   5.563   7.622  0.6757 -0.1965  0.4148
  153DOPC   H6X18378   4.918   5.516   7.705  2.1886  1.6055  0.4583
  153DOPC   H6Y18379   4.768   5.506   7.604 -1.6279  3.8558 -1.9253
  153DOPC   C3718380   4.942   5.552   7.490 -0.4590 -0.6245 -0.3980
  153DOPC   H7X18381   4.874   5.613   7.427 -0.7610 -1.8150 -1.2601
  153DOPC   H7Y18382   5.041   5.603   7.493  0.7139 -2.8086  0.4525
  153DOPC   C3818383   4.945   5.412   7.427 -0.1385  0.1178  0.6524
  153DOPC   H8X18384   4.970   5.433   7.321 -0.1757  0.5475  0.7293
  153DOPC   H8Y18385   4.841   5.376   7.420  0.5641 -1.8724 -0.4080
  153DOPC   C3918386   5.039   5.315   7.494 -0.4110  0.3229  0.2061
  153DOPC   H9X18387   5.028   5.315   7.604  0.5667  0.4394  0.3155
  153DOPC  C31018388   5.157   5.279   7.443  0.4476 -0.0025  0.0842
  153DOPC  H10X18389   5.204   5.195   7.498 -0.0403 -0.8210 -0.7252
  153DOPC  C31118390   5.200   5.310   7.300 -0.7807 -0.1096  0.5730
  153DOPC  H11X18391   5.311   5.313   7.301 -0.7683  0.2621  2.8974
  153DOPC  H11Y18392   5.179   5.416   7.274 -1.7674 -0.6282 -0.8686
  153DOPC  C31218393   5.150   5.222   7.184  0.1662 -0.2529  0.4877
  153DOPC  H12X18394   5.040   5.236   7.179  0.1523 -0.2400  0.8041
  153DOPC  H12Y18395   5.171   5.116   7.208  0.9196 -0.0965  0.5256
  153DOPC  C31318396   5.224   5.229   7.049 -0.6484  0.0749 -0.0472
  153DOPC  H13X18397   5.220   5.337   7.023 -0.9444  0.3165  0.9308
  153DOPC  H13Y18398   5.328   5.195   7.067 -0.5822  0.6839  0.7971
  153DOPC  C31418399   5.159   5.140   6.950  0.1959 -0.1828  0.1934
  153DOPC  H14X18400   5.162   5.038   6.993 -0.6225 -0.8836 -1.3030
  153DOPC  H14Y18401   5.049   5.152   6.938  0.4021  1.0789 -0.5344
  153DOPC  C31518402   5.237   5.130   6.815 -0.3271 -0.8796 -0.4750
  153DOPC  H15X18403   5.347   5.125   6.833 -0.6820 -0.6451  2.2478
  153DOPC  H15Y18404   5.230   5.223   6.755 -1.9995 -1.0716 -0.6381
  153DOPC  C31618405   5.192   5.014   6.729  0.0151  0.0034  0.1329
  153DOPC  H16X18406   5.176   4.917   6.780 -0.0820 -0.5299 -0.8819
  153DOPC  H16Y18407   5.093   5.020   6.680  0.4715  0.1849 -0.7900
  153DOPC  C31718408   5.293   4.996   6.611  0.4058  0.0526 -0.5235
  153DOPC  H17X18409   5.287   5.087   6.548 -0.9674 -0.9197 -1.8843
  153DOPC  H17Y18410   5.393   4.996   6.660 -0.8260 -2.0565  2.2832
  153DOPC  C31818411   5.281   4.864   6.529 -0.4994  0.0962  0.5705
  153DOPC  H18X18412   5.324   4.776   6.580 -0.5355 -0.5900 -0.5583
  153DOPC  H18Y18413   5.173   4.852   6.507  0.0164 -0.0019 -2.1937
  153DOPC  H18Z18414   5.334   4.865   6.432 -0.3231 -1.4744  0.6297
  154DOPC     N18415   6.020   3.817   8.478  0.0115 -0.5277  0.5247
  154DOPC   C1218416   5.967   3.749   8.350 -0.1918 -0.7316  0.0267
  154DOPC  H12A18417   6.041   3.679   8.314  1.9406  1.4739 -0.1598
  154DOPC  H12B18418   5.967   3.822   8.270  0.0011  0.9380  1.4971
  154DOPC   C1318419   6.062   3.723   8.586  0.1952 -0.4404 -0.2466
  154DOPC  H13A18420   6.139   3.655   8.553 -0.5450 -0.2179 -2.6163
  154DOPC  H13B18421   6.093   3.774   8.676  0.0716  0.7249 -0.8413
  154DOPC  H13C18422   5.981   3.661   8.621 -0.4112 -0.3379 -1.4241
  154DOPC   C1418423   5.927   3.926   8.535  0.1522  0.0354  0.2257
  154DOPC  H14A18424   5.891   4.001   8.466 -1.4596 -0.4817  0.4631
  154DOPC  H14B18425   5.836   3.888   8.579 -0.1440  0.1937 -0.2475
  154DOPC  H14C18426   5.975   3.978   8.617  1.0585 -0.2643 -0.0981
  154DOPC   C1518427   6.148   3.884   8.437  0.4068  0.0483  0.0996
  154DOPC  H15A18428   6.182   3.933   8.528  0.7382 -1.9315  1.1029
  154DOPC  H15B18429   6.141   3.951   8.353 -0.3418 -1.5853 -1.2023
  154DOPC  H15C18430   6.218   3.811   8.400  0.4866  0.7520 -1.2079
  154DOPC   C1118431   5.832   3.684   8.366 -0.2952  0.1326  0.2212
  154DOPC  H11A18432   5.816   3.625   8.273 -0.1778 -0.0412  0.3125
  154DOPC  H11B18433   5.841   3.613   8.450  1.6427  1.2876  1.0494
  154DOPC     P18434   5.678   3.868   8.253  0.0676 -0.6724  0.0473
  154DOPC   O1318435   5.609   3.989   8.307 -0.3635 -0.0511  0.3475
  154DOPC   O1418436   5.594   3.785   8.158 -0.2642 -0.1329 -0.2884
  154DOPC   O1218437   5.724   3.776   8.375  0.6607 -0.2999  0.0630
  154DOPC   O1118438   5.811   3.922   8.186  0.0532 -0.0624  0.4030
  154DOPC    C118439   5.823   3.957   8.051 -0.6498 -0.0714  0.8755
  154DOPC    HA18440   5.905   4.031   8.039  0.0498 -1.0271 -0.5610
  154DOPC    HB18441   5.734   4.012   8.012 -0.1357 -0.0623 -0.3499
  154DOPC    C218442   5.841   3.833   7.962  0.4626 -0.0349 -0.1353
  154DOPC    HS18443   5.752   3.769   7.981  0.5067  0.3564  1.5361
  154DOPC   O2118444   5.967   3.770   7.996  0.4487  0.1302 -0.2061
  154DOPC   C2118445   5.957   3.634   7.998 -0.9099 -0.6134 -0.3451
  154DOPC   O2218446   5.862   3.569   7.969  0.0358  0.0930 -0.4238
  154DOPC   C2218447   6.086   3.579   8.045  0.3061 -0.3177  0.0767
  154DOPC   H2R18448   6.068   3.529   8.143 -1.6972 -1.7888 -0.9932
  154DOPC   H2S18449   6.170   3.649   8.069 -1.3253  1.6695  0.2128
  154DOPC    C318450   5.844   3.871   7.809  0.0119 -0.2883 -0.2679
  154DOPC    HX18451   5.927   3.940   7.786  0.3530 -0.8198 -0.6643
  154DOPC    HY18452   5.749   3.922   7.781  1.2745  1.9809 -0.6231
  154DOPC   O3118453   5.861   3.760   7.721  0.1193  0.1513  0.2588
  154DOPC   C3118454   5.759   3.673   7.703 -0.2349 -0.5141  0.3141
  154DOPC   O3218455   5.652   3.688   7.758  0.4817  0.2518 -0.3612
  154DOPC   C3218456   5.799   3.555   7.609  0.0376 -0.2283  0.2500
  154DOPC   H2X18457   5.907   3.561   7.585 -0.3516 -0.6057 -1.7758
  154DOPC   H2Y18458   5.777   3.466   7.673 -0.9870 -0.6179 -0.6138
  154DOPC   C2318459   6.132   3.463   7.952 -0.2269  0.0932  0.0948
  154DOPC   H3R18460   6.046   3.395   7.935 -1.2089  1.0017  1.2580
  154DOPC   H3S18461   6.218   3.409   7.996 -1.2900 -1.3864  0.4400
  154DOPC   C2418462   6.179   3.506   7.805  0.2753  0.2861  0.0527
  154DOPC   H4R18463   6.232   3.603   7.812  1.3248 -0.3574  1.5129
  154DOPC   H4S18464   6.083   3.517   7.750 -1.9644  1.5249  3.8429
  154DOPC   C2518465   6.279   3.410   7.737 -0.1953  0.7084  0.2932
  154DOPC   H5R18466   6.231   3.310   7.726  2.6666 -0.7243 -0.4367
  154DOPC   H5S18467   6.374   3.388   7.792 -0.3928 -1.8913 -0.2575
  154DOPC   C2618468   6.321   3.453   7.592  0.5777 -0.1637 -0.2849
  154DOPC   H6R18469   6.392   3.379   7.548  1.0738 -0.1850  0.5313
  154DOPC   H6S18470   6.383   3.544   7.605  1.4805 -0.4792 -2.0375
  154DOPC   C2718471   6.208   3.479   7.485  0.0458  0.3964 -0.7279
  154DOPC   H7R18472   6.174   3.584   7.495 -0.2447  0.2047  0.4794
  154DOPC   H7S18473   6.124   3.417   7.525 -0.5516  1.1326 -0.8217
  154DOPC   C2818474   6.236   3.437   7.341  0.5984 -0.1554 -0.0850
  154DOPC   H8R18475   6.140   3.411   7.292  0.9790 -1.5034 -0.1546
  154DOPC   H8S18476   6.289   3.340   7.348  0.9992  0.1234  0.8915
  154DOPC   C2918477   6.310   3.532   7.261  0.8909 -1.1006 -0.2330
  154DOPC   H9R18478   6.381   3.597   7.313 -0.5334 -0.2047  0.6647
  154DOPC  C21018479   6.304   3.538   7.124 -0.2905  0.2831 -0.3268
  154DOPC  H10R18480   6.369   3.599   7.059 -0.5933 -1.3036 -2.2364
  154DOPC  C21118481   6.217   3.458   7.042  0.4838  0.3929  0.9247
  154DOPC  H11R18482   6.193   3.503   6.943 -2.6870 -0.5217  1.1694
  154DOPC  H11S18483   6.117   3.448   7.089 -0.3375 -1.7928 -1.0573
  154DOPC  C21218484   6.268   3.313   7.019  0.3768  0.2571 -0.3752
  154DOPC  H12R18485   6.194   3.258   6.958 -0.2809  0.0359  0.6058
  154DOPC  H12S18486   6.277   3.255   7.113 -1.2661  0.4872 -0.0499
  154DOPC  C21318487   6.389   3.305   6.925 -0.4548  1.3293 -0.1729
  154DOPC  H13R18488   6.396   3.202   6.885 -0.5140  0.4508  1.9348
  154DOPC  H13S18489   6.485   3.320   6.978 -0.0650 -0.2752 -0.3744
  154DOPC  C21418490   6.392   3.399   6.803  0.2606 -0.6747  0.3792
  154DOPC  H14R18491   6.481   3.388   6.738  0.7477 -1.8410  1.2084
  154DOPC  H14S18492   6.398   3.506   6.834 -2.1142  0.2922 -2.1359
  154DOPC  C21518493   6.272   3.374   6.714 -0.2346 -0.3012 -0.6911
  154DOPC  H15R18494   6.175   3.385   6.768  0.1295 -1.4615  0.2443
  154DOPC  H15S18495   6.278   3.270   6.676  1.3729 -0.4319 -0.1659
  154DOPC  C21618496   6.277   3.478   6.592 -0.5319  0.4392 -0.5958
  154DOPC  H16R18497   6.308   3.579   6.625  1.9113 -0.0942 -1.0842
  154DOPC  H16S18498   6.176   3.497   6.549 -1.7056  0.3419  1.9655
  154DOPC  C21718499   6.378   3.440   6.482 -0.2695 -0.2497 -0.2249
  154DOPC  H17R18500   6.389   3.331   6.468  0.7831  0.0128 -1.6968
  154DOPC  H17S18501   6.480   3.465   6.519  1.0387 -1.9624 -2.4581
  154DOPC  C21818502   6.355   3.508   6.351 -0.6072 -0.6401 -0.0114
  154DOPC  H18R18503   6.398   3.611   6.360  1.7994 -1.5012 -0.9064
  154DOPC  H18S18504   6.248   3.511   6.322 -0.6814 -1.0323  0.2175
  154DOPC  H18T18505   6.422   3.454   6.280  1.8162 -0.5242  2.0510
  154DOPC   C3318506   5.710   3.544   7.488 -0.5921 -0.2429  0.2750
  154DOPC   H3X18507   5.644   3.630   7.464  0.5229  0.3037 -0.9737
  154DOPC   H3Y18508   5.643   3.457   7.505  1.7548 -2.2196 -0.0938
  154DOPC   C3418509   5.802   3.517   7.359  0.5397 -0.5977 -0.6593
  154DOPC   H4X18510   5.882   3.448   7.391 -0.6966 -1.3026  1.0583
  154DOPC   H4Y18511   5.851   3.611   7.325  0.9641 -0.7335 -0.4222
  154DOPC   C3518512   5.731   3.466   7.237  0.5494 -0.3166  0.5887
  154DOPC   H5X18513   5.630   3.506   7.217  0.0451  0.1010  3.5388
  154DOPC   H5Y18514   5.721   3.355   7.244  3.1781 -0.6615  0.0050
  154DOPC   C3618515   5.807   3.484   7.108 -0.3224  0.0130  0.0916
  154DOPC   H6X18516   5.812   3.594   7.089  0.0637 -0.2221 -1.2394
  154DOPC   H6Y18517   5.914   3.452   7.107 -0.4131 -0.2966  0.2434
  154DOPC   C3718518   5.740   3.418   6.991 -0.4719 -0.0080  0.5300
  154DOPC   H7X18519   5.720   3.316   7.029  0.6985 -0.5404 -0.2401
  154DOPC   H7Y18520   5.640   3.465   6.978  0.0616  0.8697 -0.5146
  154DOPC   C3818521   5.815   3.409   6.859 -0.3527  0.1309  0.0477
  154DOPC   H8X18522   5.907   3.351   6.882  0.2819  1.0387 -0.1547
  154DOPC   H8Y18523   5.840   3.508   6.815  1.2693 -0.6425 -0.8390
  154DOPC   C3918524   5.744   3.330   6.753 -0.1398  0.1187  0.1984
  154DOPC   H9X18525   5.672   3.256   6.791 -0.8737  0.5733 -0.2684
  154DOPC  C31018526   5.758   3.343   6.622 -0.8730  0.5584  0.4696
  154DOPC  H10X18527   5.706   3.275   6.553  1.1796  1.9600 -2.7099
  154DOPC  C31118528   5.855   3.430   6.549 -0.1477 -1.0787  0.9160
  154DOPC  H11X18529   5.916   3.365   6.483 -1.0029  0.4413 -1.5265
  154DOPC  H11Y18530   5.929   3.488   6.609 -0.6690 -0.0672  0.6078
  154DOPC  C31218531   5.777   3.536   6.474  0.5008 -0.1388  0.1376
  154DOPC  H12X18532   5.710   3.600   6.536  1.7300 -0.0574  1.4448
  154DOPC  H12Y18533   5.711   3.490   6.397 -0.7576  0.1177  1.0280
  154DOPC  C31318534   5.886   3.620   6.406  0.3655 -0.3383  0.1569
  154DOPC  H13X18535   5.959   3.655   6.482  0.4408  3.3938 -1.3925
  154DOPC  H13Y18536   5.939   3.561   6.328  0.6064  0.7598 -0.5455
  154DOPC  C31418537   5.828   3.744   6.346 -0.2781 -0.7775 -0.1143
  154DOPC  H14X18538   5.762   3.720   6.261  1.3031 -0.3451 -1.5297
  154DOPC  H14Y18539   5.768   3.786   6.430  1.7179  1.3743  0.3719
  154DOPC  C31518540   5.940   3.848   6.298  0.5523  0.4553 -0.1813
  154DOPC  H15X18541   5.996   3.852   6.394 -0.0124 -0.1870  0.1789
  154DOPC  H15Y18542   5.892   3.948   6.290  1.6040  1.1187  1.3048
  154DOPC  C31618543   6.022   3.821   6.177 -0.0561 -0.5446 -0.4477
  154DOPC  H16X18544   6.087   3.911   6.171 -1.1347  0.3735  0.9558
  154DOPC  H16Y18545   6.082   3.730   6.203  0.5531  0.3843  1.6585
  154DOPC  C31718546   5.931   3.805   6.063 -0.0606  0.3480  1.5223
  154DOPC  H17X18547   5.854   3.725   6.068 -1.4018  1.3402 -1.2585
  154DOPC  H17Y18548   5.872   3.898   6.049  0.6644  0.7033  0.7426
  154DOPC  C31818549   5.991   3.785   5.919  0.4150  0.3227 -0.2709
  154DOPC  H18X18550   6.062   3.869   5.902  0.1366  0.5864 -0.1305
  154DOPC  H18Y18551   6.034   3.684   5.904 -1.0420 -0.3202 -0.2573
  154DOPC  H18Z18552   5.912   3.794   5.841  0.3749  0.7597 -0.1831
  155DOPC     N18553   0.326   1.165   9.275 -0.4211  0.4323  0.5617
  155DOPC   C1218554   0.310   1.198   9.120 -0.3039  0.1125 -0.0807
  155DOPC  H12A18555   0.346   1.299   9.111  2.3904 -0.6781  0.6834
  155DOPC  H12B18556   0.206   1.178   9.099  0.0305 -0.3636 -1.3872
  155DOPC   C1318557   0.312   1.017   9.301 -0.2438  0.1757  0.3297
  155DOPC  H13A18558   0.218   0.979   9.262  0.1734 -0.3143 -0.2269
  155DOPC  H13B18559   0.387   0.958   9.250  1.8510  2.2405  0.8812
  155DOPC  H13C18560   0.315   0.983   9.404  3.6064  0.3095  0.4017
  155DOPC   C1418561   0.216   1.237   9.356 -0.7860 -0.2107  0.8516
  155DOPC  H14A18562   0.225   1.344   9.344  1.2097 -0.6261 -2.6188
  155DOPC  H14B18563   0.115   1.202   9.337 -0.5419 -1.3250  1.5671
  155DOPC  H14C18564   0.240   1.219   9.460 -1.7170  0.4701  1.2078
  155DOPC   C1518565   0.451   1.214   9.327 -0.0309 -0.6305 -0.6497
  155DOPC  H15A18566   0.533   1.148   9.299  1.1191 -0.0299  1.1461
  155DOPC  H15B18567   0.463   1.211   9.434  3.2910  1.5661 -0.8013
  155DOPC  H15C18568   0.476   1.314   9.295  2.4456 -1.2268 -0.8062
  155DOPC   C1118569   0.397   1.120   9.018  0.0910 -0.1340 -0.5725
  155DOPC  H11A18570   0.380   1.012   9.038  0.6306 -0.2521 -0.7362
  155DOPC  H11B18571   0.373   1.153   8.915 -0.8801  1.2617  0.0707
  155DOPC     P18572   0.613   1.261   9.011 -0.0047  0.0078 -0.6029
  155DOPC   O1318573   0.740   1.256   9.091 -0.0759 -0.3798  0.1326
  155DOPC   O1418574   0.522   1.376   9.029  0.7219 -0.1852  0.3225
  155DOPC   O1218575   0.535   1.127   9.044  0.0642  0.2897  0.2175
  155DOPC   O1118576   0.653   1.247   8.864 -0.1607  0.0634 -0.3895
  155DOPC    C118577   0.737   1.139   8.821 -0.2098  0.5488  0.3934
  155DOPC    HA18578   0.677   1.076   8.753  1.7255  1.5883 -2.4804
  155DOPC    HB18579   0.779   1.075   8.902 -1.4022  1.4906  1.8143
  155DOPC    C218580   0.849   1.189   8.732 -0.1731  0.1299 -0.4632
  155DOPC    HS18581   0.900   1.265   8.795 -1.4183  0.8780 -0.3061
  155DOPC   O2118582   0.784   1.249   8.617  0.1696 -0.2743 -0.4627
  155DOPC   C2118583   0.856   1.307   8.523  0.0552 -0.5481 -0.2992
  155DOPC   O2218584   0.981   1.323   8.524  0.7981 -0.2404 -0.3182
  155DOPC   C2218585   0.763   1.353   8.412  0.1484  0.6106 -0.6601
  155DOPC   H2R18586   0.672   1.404   8.451  0.7564  1.8348 -0.8012
  155DOPC   H2S18587   0.730   1.259   8.364 -2.5855  0.2323  1.6732
  155DOPC    C318588   0.943   1.071   8.698  0.6855 -0.2902 -0.2144
  155DOPC    HX18589   0.995   1.027   8.785  0.9978  0.5277  0.0251
  155DOPC    HY18590   1.022   1.101   8.627 -1.4685 -1.6201 -3.4063
  155DOPC   O3118591   0.864   0.979   8.624  0.0321  0.3608  0.8795
  155DOPC   C3118592   0.906   0.850   8.615  0.0654 -0.9489  0.1980
  155DOPC   O3218593   1.011   0.806   8.661 -0.3786 -0.2871 -0.0335
  155DOPC   C3218594   0.817   0.785   8.517  0.1309  0.6432 -0.6525
  155DOPC   H2X18595   0.869   0.689   8.493 -0.9792 -0.0680 -0.2729
  155DOPC   H2Y18596   0.723   0.755   8.566 -0.4999  0.7392 -1.7754
  155DOPC   C2318597   0.823   1.447   8.307  0.4722 -0.2470 -0.0167
  155DOPC   H3R18598   0.926   1.427   8.271  1.7577  0.9056  2.6945
  155DOPC   H3S18599   0.829   1.551   8.346 -0.4732  0.4646 -1.6403
  155DOPC   C2418600   0.719   1.469   8.195  0.3249  0.4878 -0.8339
  155DOPC   H4R18601   0.613   1.453   8.223  1.1868 -1.2973  1.8337
  155DOPC   H4S18602   0.739   1.386   8.124  3.4060  0.5656 -0.2267
  155DOPC   C2518603   0.732   1.599   8.124  0.4166  0.6438 -0.4456
  155DOPC   H5R18604   0.841   1.603   8.102  0.8152  0.0588  1.2700
  155DOPC   H5S18605   0.709   1.685   8.190  2.4408 -0.2958  1.6262
  155DOPC   C2618606   0.652   1.609   7.992  0.5442 -0.2993 -0.6653
  155DOPC   H6R18607   0.652   1.719   7.981  1.8464 -0.1636  0.5233
  155DOPC   H6S18608   0.550   1.567   8.006  1.5427 -2.1590  1.6691
  155DOPC   C2718609   0.714   1.532   7.881 -0.4379  0.9570  0.3002
  155DOPC   H7R18610   0.738   1.427   7.912  0.6191  0.5064 -1.8530
  155DOPC   H7S18611   0.812   1.566   7.842 -1.0067  0.2605 -1.8480
  155DOPC   C2818612   0.616   1.517   7.759 -0.2791  0.4315 -0.0064
  155DOPC   H8R18613   0.508   1.499   7.779 -0.4831 -2.3803 -2.7493
  155DOPC   H8S18614   0.652   1.434   7.695 -0.4042  2.5704 -3.0814
  155DOPC   C2918615   0.614   1.652   7.682  0.2341  0.8063 -0.3958
  155DOPC   H9R18616   0.637   1.739   7.745  0.7472  0.2056  0.2701
  155DOPC  C21018617   0.622   1.654   7.548 -0.7040 -0.2433 -0.3311
  155DOPC  H10R18618   0.614   1.753   7.502 -1.2680 -0.4416 -0.6755
  155DOPC  C21118619   0.624   1.540   7.445  0.8746 -0.0120 -0.5176
  155DOPC  H11R18620   0.594   1.444   7.492 -1.0560 -0.4571 -2.5116
  155DOPC  H11S18621   0.729   1.526   7.411  1.7473  1.7385  1.2715
  155DOPC  C21218622   0.535   1.562   7.321  0.1589  0.5474  0.3328
  155DOPC  H12R18623   0.436   1.599   7.355  0.4684  1.6967  0.0116
  155DOPC  H12S18624   0.525   1.467   7.264 -1.1018 -0.1118  1.5933
  155DOPC  C21318625   0.586   1.673   7.229 -0.2831 -0.4473  0.2866
  155DOPC  H13R18626   0.681   1.635   7.186  0.5143  0.7287  0.9565
  155DOPC  H13S18627   0.619   1.761   7.288  0.5723  0.1076 -0.9916
  155DOPC  C21418628   0.495   1.702   7.115  0.0781  0.0470 -0.7929
  155DOPC  H14R18629   0.394   1.726   7.156 -0.5812 -1.9952 -1.0967
  155DOPC  H14S18630   0.474   1.604   7.067  0.2628 -0.0119 -0.7546
  155DOPC  C21518631   0.545   1.817   7.020 -0.1306  0.4285 -0.0252
  155DOPC  H15R18632   0.648   1.792   6.985  0.9468 -0.0485  3.2058
  155DOPC  H15S18633   0.559   1.904   7.087 -1.3598 -0.2329  1.1460
  155DOPC  C21618634   0.456   1.856   6.904  0.2251  0.8753 -0.6224
  155DOPC  H16R18635   0.526   1.933   6.864  1.8806  0.2422  0.9275
  155DOPC  H16S18636   0.355   1.900   6.917  0.3022  2.2975 -3.9088
  155DOPC  C21718637   0.431   1.743   6.803  0.8102  0.4852  0.4774
  155DOPC  H17R18638   0.340   1.764   6.743  1.0839 -3.0419 -1.4209
  155DOPC  H17S18639   0.396   1.655   6.862 -0.4870  1.1942  0.8033
  155DOPC  C21818640   0.543   1.706   6.706 -0.3974  0.5041 -0.2541
  155DOPC  H18R18641   0.645   1.711   6.748 -0.4689  4.7485 -0.1552
  155DOPC  H18S18642   0.538   1.776   6.620 -0.3723 -0.4930 -1.0979
  155DOPC  H18T18643   0.515   1.605   6.669 -1.6252  0.6496  0.2307
  155DOPC   C3318644   0.773   0.865   8.391 -0.5180 -0.5359  0.0114
  155DOPC   H3X18645   0.737   0.966   8.420 -0.1181 -0.8963  1.8674
  155DOPC   H3Y18646   0.681   0.822   8.345  0.3295 -1.3095 -1.0352
  155DOPC   C3418647   0.878   0.870   8.282  0.1723  0.2517 -0.3023
  155DOPC   H4X18648   0.911   0.766   8.263  1.1979 -0.0851  2.7493
  155DOPC   H4Y18649   0.972   0.928   8.291  1.1029 -0.6502 -3.2852
  155DOPC   C3518650   0.813   0.928   8.151  0.4934  0.2998  0.8050
  155DOPC   H5X18651   0.731   0.999   8.176 -0.8468 -1.6379  2.2189
  155DOPC   H5Y18652   0.753   0.845   8.107 -0.1351  0.7384  0.8161
  155DOPC   C3618653   0.906   1.001   8.052  0.4806 -0.3633 -0.6543
  155DOPC   H6X18654   0.953   1.084   8.109  0.4663 -0.2259 -0.8416
  155DOPC   H6Y18655   0.981   0.932   8.006  0.2746  0.0790 -1.6868
  155DOPC   C3718656   0.830   1.082   7.946  0.5321 -0.1832 -0.2820
  155DOPC   H7X18657   0.754   1.035   7.882  1.2021 -1.3771 -0.2262
  155DOPC   H7Y18658   0.756   1.136   8.009 -1.4470 -1.7842 -1.1602
  155DOPC   C3818659   0.917   1.182   7.870 -0.2789 -0.5425  0.4104
  155DOPC   H8X18660   0.969   1.248   7.944  0.5606  1.6637 -1.9899
  155DOPC   H8Y18661   0.850   1.253   7.818  0.5868 -0.2657 -0.3462
  155DOPC   C3918662   1.017   1.118   7.776  0.2722 -0.3865  0.2097
  155DOPC   H9X18663   1.114   1.091   7.822  0.4302 -4.3016 -1.9755
  155DOPC  C31018664   1.000   1.093   7.641  0.0658 -0.1864  0.3315
  155DOPC  H10X18665   1.079   1.029   7.599 -0.0870  0.2989 -0.7145
  155DOPC  C31118666   0.871   1.098   7.560  0.2106 -0.1251 -0.6336
  155DOPC  H11X18667   0.790   1.140   7.624  0.6233  0.1911 -0.3140
  155DOPC  H11Y18668   0.846   1.000   7.513 -2.1986  0.5833 -0.9895
  155DOPC  C31218669   0.858   1.202   7.434  0.1545  0.0373 -0.4446
  155DOPC  H12X18670   0.843   1.306   7.470  0.0002 -0.7536  1.9226
  155DOPC  H12Y18671   0.763   1.186   7.377  0.5602 -0.3264 -1.0215
  155DOPC  C31318672   0.970   1.203   7.341 -0.4344  0.0791 -0.2085
  155DOPC  H13X18673   1.047   1.281   7.358  0.0947 -0.1100 -1.6616
  155DOPC  H13Y18674   1.019   1.103   7.352 -1.1295 -0.1124  1.3856
  155DOPC  C31418675   0.934   1.207   7.194  0.3213  0.2915 -0.4449
  155DOPC  H14X18676   1.020   1.160   7.142  0.8602  2.3107 -1.4496
  155DOPC  H14Y18677   0.848   1.138   7.177 -0.4044  1.2690 -0.8160
  155DOPC  C31518678   0.911   1.341   7.131 -0.1699  1.1266 -0.3082
  155DOPC  H15X18679   0.999   1.408   7.146 -0.1073  0.4584  3.0826
  155DOPC  H15Y18680   0.828   1.386   7.188 -0.9038 -1.3771  0.7348
  155DOPC  C31618681   0.877   1.330   6.980 -0.4358 -0.5641 -0.6153
  155DOPC  H16X18682   0.940   1.254   6.929 -0.2584 -0.5241 -0.4571
  155DOPC  H16Y18683   0.774   1.288   6.972  0.3050 -2.7943  0.4677
  155DOPC  C31718684   0.899   1.470   6.916  0.2984 -0.2601  1.2682
  155DOPC  H17X18685   0.843   1.554   6.964 -1.1782 -0.3956 -0.1342
  155DOPC  H17Y18686   1.006   1.492   6.936  0.5472 -1.1471  0.9245
  155DOPC  C31818687   0.868   1.471   6.766  0.2177 -1.2296  0.8299
  155DOPC  H18X18688   0.767   1.426   6.754  1.6010 -4.1677 -0.7106
  155DOPC  H18Y18689   0.885   1.578   6.739 -0.3986  0.1657  5.1901
  155DOPC  H18Z18690   0.932   1.397   6.713  2.0342 -0.1753  1.4591
  156DOPC     N18691   6.518   5.040   8.837 -0.0942 -0.9548  0.2080
  156DOPC   C1218692   6.614   4.982   8.740 -1.0126 -0.1066 -0.1532
  156DOPC  H12A18693   6.714   4.984   8.782 -1.8973  0.5573  2.0638
  156DOPC  H12B18694   6.625   5.046   8.654  0.1969 -1.0350 -0.7318
  156DOPC   C1318695   6.402   5.094   8.763  0.3289 -0.2048 -0.8311
  156DOPC  H13A18696   6.337   5.023   8.714 -1.5678 -0.4989  1.8882
  156DOPC  H13B18697   6.334   5.143   8.830  1.7448 -0.7213  1.1002
  156DOPC  H13C18698   6.449   5.168   8.700  1.2261 -0.3361 -0.3428
  156DOPC   C1418699   6.588   5.151   8.910  0.0945  0.1743  0.0464
  156DOPC  H14A18700   6.524   5.201   8.981  1.0491 -1.0720  1.8588
  156DOPC  H14B18701   6.665   5.100   8.965 -1.1756 -1.3627  0.4645
  156DOPC  H14C18702   6.635   5.217   8.838 -1.1341  1.3645  0.3072
  156DOPC   C1518703   6.470   4.934   8.930 -0.2669 -0.6497 -0.6048
  156DOPC  H15A18704   6.556   4.880   8.966 -0.4507  0.1600  1.1731
  156DOPC  H15B18705   6.412   4.858   8.879  0.4484 -2.3315  0.9415
  156DOPC  H15C18706   6.415   4.965   9.018  1.2373 -2.5464  1.1218
  156DOPC   C1118707   6.596   4.836   8.699  0.5917  0.1218 -0.3784
  156DOPC  H11A18708   6.665   4.814   8.615  0.9135 -0.8110  0.1143
  156DOPC  H11B18709   6.620   4.780   8.792  0.9109 -0.5348 -0.8509
  156DOPC     P18710   6.418   4.700   8.564  0.3477  0.0991 -0.3618
  156DOPC   O1318711   6.270   4.696   8.554 -0.0470 -0.1522  0.0924
  156DOPC   O1418712   6.483   4.572   8.617 -0.3908  0.6681 -0.4902
  156DOPC   O1218713   6.458   4.814   8.662  0.2362 -0.5721  0.3136
  156DOPC   O1118714   6.480   4.738   8.424  0.3309 -0.1820 -0.2929
  156DOPC    C118715   6.467   4.870   8.364  0.2817 -0.4694 -0.0250
  156DOPC    HA18716   6.561   4.929   8.360  0.1928 -0.2379  1.0941
  156DOPC    HB18717   6.400   4.935   8.424 -0.2325 -2.2599  1.4416
  156DOPC    C218718   6.392   4.871   8.222 -0.1938  0.0876  0.8220
  156DOPC    HS18719   6.293   4.827   8.246 -0.7236  1.6940  1.7193
  156DOPC   O2118720   6.473   4.797   8.129 -0.2118  0.0505  0.1916
  156DOPC   C2118721   6.421   4.693   8.069  0.0714 -0.4593 -0.3251
  156DOPC   O2218722   6.321   4.628   8.104 -0.2287  0.4594  0.0795
  156DOPC   C2218723   6.517   4.657   7.952 -0.0542  0.5643 -1.0150
  156DOPC   H2R18724   6.606   4.611   8.000 -0.6710 -1.6049 -1.8321
  156DOPC   H2S18725   6.543   4.751   7.900 -1.3767  3.2297  2.7268
  156DOPC    C318726   6.384   5.022   8.173  0.0323  0.4160  0.3485
  156DOPC    HX18727   6.469   5.067   8.229 -0.4589 -0.6736  2.0716
  156DOPC    HY18728   6.295   5.078   8.211 -0.5475 -0.4246  0.2533
  156DOPC   O3118729   6.402   5.036   8.033  0.0388  0.4748 -0.1192
  156DOPC   C3118730   6.302   4.988   7.966  0.0063 -0.5542 -0.5835
  156DOPC   O3218731   6.201   4.939   8.014 -0.1772  0.0656  0.5665
  156DOPC   C3218732   6.326   4.985   7.816  0.7444 -0.2657 -0.3571
  156DOPC   H2X18733   6.311   5.086   7.773  0.4475 -0.5623 -0.9680
  156DOPC   H2Y18734   6.431   4.950   7.811  1.7567  1.8594  2.7418
  156DOPC   C2318735   6.454   4.546   7.872  0.2188  0.0853 -0.1831
  156DOPC   H3R18736   6.359   4.579   7.824  1.1955  1.2616 -1.3693
  156DOPC   H3S18737   6.418   4.465   7.938 -2.5995  2.3084  1.2595
  156DOPC   C2418738   6.547   4.489   7.766  0.2007  0.0467  0.3291
  156DOPC   H4R18739   6.648   4.459   7.801 -0.6541 -0.9987  1.9973
  156DOPC   H4S18740   6.562   4.563   7.685 -0.3141  0.4368  0.5833
  156DOPC   C2518741   6.478   4.359   7.701 -0.2449 -0.0326  0.1602
  156DOPC   H5R18742   6.368   4.377   7.694 -0.0649  0.7208 -1.2381
  156DOPC   H5S18743   6.508   4.279   7.771  2.7917  0.3769 -0.5283
  156DOPC   C2618744   6.531   4.343   7.560  0.0386 -0.0912  0.2014
  156DOPC   H6R18745   6.518   4.235   7.539  1.4946 -0.4814  1.2066
  156DOPC   H6S18746   6.641   4.359   7.565  0.0873 -0.7185  1.2606
  156DOPC   C2718747   6.465   4.444   7.460 -0.0064 -0.3305 -0.3060
  156DOPC   H7R18748   6.491   4.544   7.501 -1.9012 -0.2358  0.7543
  156DOPC   H7S18749   6.356   4.436   7.479  0.1330  0.1798  0.7491
  156DOPC   C2818750   6.492   4.432   7.314 -0.2200 -1.1309 -0.2252
  156DOPC   H8R18751   6.420   4.495   7.258 -0.4463 -0.7372  0.5025
  156DOPC   H8S18752   6.467   4.325   7.296 -0.0629 -1.1129 -0.5658
  156DOPC   C2918753   6.632   4.461   7.255  0.6449  0.0805 -0.2373
  156DOPC   H9R18754   6.709   4.463   7.334 -1.1023 -2.6917  1.7308
  156DOPC  C21018755   6.669   4.462   7.129 -0.1691 -0.2967  0.3933
  156DOPC  H10R18756   6.775   4.486   7.115 -0.4324 -0.0255 -1.2499
  156DOPC  C21118757   6.588   4.418   7.004  0.6691  0.3555 -0.2158
  156DOPC  H11R18758   6.655   4.362   6.936  1.1739  0.2287  0.3753
  156DOPC  H11S18759   6.565   4.507   6.941  2.4776 -0.8871 -2.7755
  156DOPC  C21218760   6.461   4.334   7.009 -0.6145 -0.3381 -0.2554
  156DOPC  H12R18761   6.423   4.321   6.906  0.0764 -0.4634 -0.4957
  156DOPC  H12S18762   6.382   4.385   7.068 -0.4451  1.4278 -1.4840
  156DOPC  C21318763   6.497   4.200   7.062 -0.7453  0.2087  0.9115
  156DOPC  H13R18764   6.559   4.203   7.154  0.2423 -1.1193  0.3246
  156DOPC  H13S18765   6.562   4.144   6.992 -1.6184  1.9881 -1.4669
  156DOPC  C21418766   6.382   4.107   7.092  0.3943 -0.3742  0.2059
  156DOPC  H14R18767   6.280   4.151   7.088 -0.4770 -2.1994  0.8431
  156DOPC  H14S18768   6.389   4.082   7.200  3.4228 -3.5440 -0.5292
  156DOPC  C21518769   6.377   3.982   7.001 -0.0688 -0.4025 -0.4165
  156DOPC  H15R18770   6.298   3.916   7.043  2.9993 -3.5457  0.9289
  156DOPC  H15S18771   6.476   3.930   7.005 -0.4868 -1.1886 -0.1490
  156DOPC  C21618772   6.341   4.008   6.848 -0.3044  0.2330 -0.9553
  156DOPC  H16R18773   6.410   4.083   6.804 -1.5783  1.9921 -0.0943
  156DOPC  H16S18774   6.245   4.064   6.850 -0.6938 -0.3410  2.1726
  156DOPC  C21718775   6.322   3.880   6.775 -0.1348  0.2088  0.2750
  156DOPC  H17R18776   6.245   3.815   6.821 -0.8032 -0.5192 -1.7226
  156DOPC  H17S18777   6.417   3.822   6.776  0.4406  1.0675 -1.0216
  156DOPC  C21818778   6.287   3.896   6.624 -1.0472  0.2567 -0.0688
  156DOPC  H18R18779   6.266   3.795   6.583 -0.6017  0.5710 -1.1014
  156DOPC  H18S18780   6.375   3.940   6.572 -0.5521  0.1494  0.6598
  156DOPC  H18T18781   6.200   3.964   6.612 -0.8174  0.6851  0.5952
  156DOPC   C3318782   6.243   4.883   7.732 -0.0308  0.0104 -0.4559
  156DOPC   H3X18783   6.148   4.933   7.703  1.0261  1.9076 -0.8015
  156DOPC   H3Y18784   6.218   4.792   7.791  0.8091 -0.4160 -0.7492
  156DOPC   C3418785   6.306   4.807   7.609  0.1404  1.0845  0.6289
  156DOPC   H4X18786   6.229   4.741   7.564  0.1243  0.5703  1.4015
  156DOPC   H4Y18787   6.387   4.736   7.633  0.1210 -0.0666 -2.3216
  156DOPC   C3518788   6.352   4.892   7.494  0.2481  0.3555  0.2010
  156DOPC   H5X18789   6.437   4.957   7.524 -0.0147  0.3217  1.0400
  156DOPC   H5Y18790   6.268   4.956   7.461 -2.1165 -1.5530  2.1660
  156DOPC   C3618791   6.390   4.808   7.371 -0.0413  0.1198  0.0327
  156DOPC   H6X18792   6.488   4.760   7.390 -0.9251 -1.3733  0.9318
  156DOPC   H6Y18793   6.318   4.730   7.339  1.5386 -1.1719 -0.5270
  156DOPC   C3718794   6.404   4.889   7.241 -0.3312  0.2030 -0.5765
  156DOPC   H7X18795   6.317   4.956   7.223 -0.6617 -0.3290 -1.0170
  156DOPC   H7Y18796   6.499   4.947   7.243  1.7700 -2.9864 -0.2779
  156DOPC   C3818797   6.418   4.797   7.119  0.2845 -0.0572  0.8670
  156DOPC   H8X18798   6.483   4.711   7.146 -0.5930 -0.5082  1.6147
  156DOPC   H8Y18799   6.473   4.857   7.043 -0.5731  0.6939  0.8172
  156DOPC   C3918800   6.289   4.743   7.061  0.6373 -0.0140  0.1098
  156DOPC   H9X18801   6.235   4.667   7.120  0.9410 -0.2358  0.1047
  156DOPC  C31018802   6.232   4.774   6.947 -0.4261 -0.0528 -0.2571
  156DOPC  H10X18803   6.138   4.727   6.914 -0.3414  0.3787 -1.1601
  156DOPC  C31118804   6.284   4.886   6.855  0.4410  0.4924  0.9854
  156DOPC  H11X18805   6.376   4.932   6.896  3.3420 -1.1951 -2.9454
  156DOPC  H11Y18806   6.212   4.970   6.847 -0.3357 -0.3460 -1.7469
  156DOPC  C31218807   6.340   4.826   6.717  0.4092  0.6392 -0.3467
  156DOPC  H12X18808   6.417   4.750   6.743 -0.4014 -0.6648 -1.6649
  156DOPC  H12Y18809   6.391   4.909   6.664 -0.4569  1.0017 -0.6310
  156DOPC  C31318810   6.241   4.758   6.619 -0.3915 -0.1545 -0.4258
  156DOPC  H13X18811   6.181   4.695   6.688 -0.7243  0.6983  0.0758
  156DOPC  H13Y18812   6.176   4.840   6.582  1.3470  0.9982 -1.0822
  156DOPC  C31418813   6.315   4.680   6.509 -0.3468 -0.0434 -0.4542
  156DOPC  H14X18814   6.398   4.618   6.550  0.0697 -0.1378 -1.4069
  156DOPC  H14Y18815   6.243   4.604   6.471  0.2599 -1.8052  1.6597
  156DOPC  C31518816   6.338   4.762   6.380  0.5706 -0.3727 -0.1149
  156DOPC  H15X18817   6.437   4.810   6.369  0.3331 -0.0822 -0.9953
  156DOPC  H15Y18818   6.270   4.850   6.384  0.4760 -0.4598  0.3060
  156DOPC  C31618819   6.323   4.675   6.252  0.1490  0.0296  0.2649
  156DOPC  H16X18820   6.403   4.599   6.243  0.7491  0.8858 -2.8017
  156DOPC  H16Y18821   6.223   4.628   6.249  1.0147 -1.8695 -2.3712
  156DOPC  C31718822   6.324   4.766   6.127 -0.2596  0.4038  0.0896
  156DOPC  H17X18823   6.221   4.809   6.122 -0.2909  0.2583 -0.6026
  156DOPC  H17Y18824   6.409   4.837   6.124  0.7625 -0.7795  0.0420
  156DOPC  C31818825   6.349   4.677   6.001  0.1801 -0.5902  0.3530
  156DOPC  H18X18826   6.457   4.649   5.994 -0.0419 -1.1759 -1.0055
  156DOPC  H18Y18827   6.277   4.592   6.005 -1.2199  0.5678  3.4696
  156DOPC  H18Z18828   6.327   4.733   5.909 -2.3172  0.0301  1.2631
  157DOPC     N18829   5.513   1.337   8.915  0.2068 -0.0215  0.0308
  157DOPC   C1218830   5.560   1.383   8.773 -0.1947  0.8552 -0.8852
  157DOPC  H12A18831   5.489   1.359   8.695 -1.3771  2.2648 -0.2884
  157DOPC  H12B18832   5.651   1.328   8.755 -0.1474  0.2791  0.9220
  157DOPC   C1318833   5.474   1.193   8.917  0.2320  0.1184  0.0947
  157DOPC  H13A18834   5.379   1.191   8.865 -0.2716  1.3800  0.8984
  157DOPC  H13B18835   5.539   1.127   8.862 -0.7071  0.3454 -1.3456
  157DOPC  H13C18836   5.459   1.158   9.018 -2.0682 -0.3403 -0.3465
  157DOPC   C1418837   5.388   1.414   8.957  0.1803 -0.7715 -0.5028
  157DOPC  H14A18838   5.308   1.408   8.885 -1.1216 -0.0775  0.8393
  157DOPC  H14B18839   5.352   1.379   9.053 -1.7923  1.8076 -0.1879
  157DOPC  H14C18840   5.415   1.518   8.973  2.9078 -1.3069 -1.0535
  157DOPC   C1518841   5.626   1.370   9.009 -0.0451 -0.2734  0.6186
  157DOPC  H15A18842   5.650   1.474   8.992 -0.2908 -0.2549  0.3813
  157DOPC  H15B18843   5.711   1.308   8.984 -1.1580 -1.1717 -1.0872
  157DOPC  H15C18844   5.594   1.347   9.110 -1.7515 -1.3291 -0.1204
  157DOPC   C1118845   5.586   1.531   8.745 -0.8696 -0.4012  0.0115
  157DOPC  H11A18846   5.668   1.576   8.805 -0.9712 -1.6897  1.1736
  157DOPC  H11B18847   5.622   1.551   8.642  2.4930  1.8120  1.4331
  157DOPC     P18848   5.349   1.613   8.663 -0.1039  0.0564 -0.1209
  157DOPC   O1318849   5.238   1.700   8.700 -0.0730 -0.0853 -0.7165
  157DOPC   O1418850   5.306   1.481   8.623  0.7303 -0.0816 -0.2858
  157DOPC   O1218851   5.468   1.616   8.772  0.1354 -0.0857 -0.4106
  157DOPC   O1118852   5.416   1.678   8.539 -0.5516  0.0926 -0.3297
  157DOPC    C118853   5.402   1.818   8.501 -0.2338 -0.0368 -0.0863
  157DOPC    HA18854   5.454   1.863   8.589  2.3558 -0.7908 -1.1182
  157DOPC    HB18855   5.297   1.851   8.509  0.3426  1.5645  1.4354
  157DOPC    C218856   5.461   1.850   8.361 -0.3466  0.5775  0.1332
  157DOPC    HS18857   5.466   1.960   8.346 -2.2561  0.6008 -0.6143
  157DOPC   O2118858   5.389   1.802   8.253  0.0617  0.1061  0.6015
  157DOPC   C2118859   5.265   1.853   8.239  0.7084 -0.4084 -1.0279
  157DOPC   O2218860   5.221   1.953   8.293 -0.0218  0.0119 -0.1389
  157DOPC   C2218861   5.188   1.777   8.131 -0.0870  0.1475  0.1486
  157DOPC   H2R18862   5.085   1.817   8.131  0.6463  2.1980  0.6656
  157DOPC   H2S18863   5.191   1.667   8.147  1.1469 -0.2121 -2.0917
  157DOPC    C318864   5.610   1.789   8.353  0.0099 -0.7824 -0.1185
  157DOPC    HX18865   5.597   1.683   8.383 -0.6809 -0.8548 -0.6353
  157DOPC    HY18866   5.670   1.845   8.427 -0.9677  2.5134 -1.6446
  157DOPC   O3118867   5.668   1.803   8.226  0.2971  0.2686  0.2747
  157DOPC   C3118868   5.650   1.699   8.146 -0.4545  0.3847  0.0401
  157DOPC   O3218869   5.618   1.585   8.178  0.5806  0.8612 -0.2858
  157DOPC   C3218870   5.696   1.735   8.010  0.2683  0.2532  0.3283
  157DOPC   H2X18871   5.638   1.822   7.975  0.2333  0.6816  1.4051
  157DOPC   H2Y18872   5.807   1.745   8.007  0.4477 -1.5264 -0.1588
  157DOPC   C2318873   5.260   1.793   7.995  0.3721  0.5502  0.1023
  157DOPC   H3R18874   5.369   1.785   8.014  0.1965  0.9686  1.4123
  157DOPC   H3S18875   5.233   1.894   7.958  1.6189  0.3472 -1.4721
  157DOPC   C2418876   5.231   1.683   7.890  0.1284  0.0196  0.1398
  157DOPC   H4R18877   5.122   1.664   7.885 -0.0068  0.4416  1.0937
  157DOPC   H4S18878   5.275   1.589   7.930  0.4571 -0.2705 -0.8725
  157DOPC   C2518879   5.299   1.698   7.753 -0.2447 -0.1955  0.1040
  157DOPC   H5R18880   5.407   1.708   7.779  0.0515 -4.0345  0.9446
  157DOPC   H5S18881   5.262   1.790   7.702 -1.0691 -0.4383  0.2572
  157DOPC   C2618882   5.290   1.575   7.663  0.1266  0.0391 -0.5860
  157DOPC   H6R18883   5.184   1.542   7.663  0.3686 -0.8058  0.8615
  157DOPC   H6S18884   5.341   1.484   7.701 -0.7948 -0.4259 -0.4397
  157DOPC   C2718885   5.342   1.604   7.526 -0.3597 -0.4146  0.0837
  157DOPC   H7R18886   5.453   1.594   7.534 -0.4449 -0.4093  1.4535
  157DOPC   H7S18887   5.324   1.707   7.489  0.8270 -0.6503 -1.2910
  157DOPC   C2818888   5.296   1.498   7.427  0.9351  0.6182 -0.2604
  157DOPC   H8R18889   5.203   1.539   7.382 -0.0970  2.3982  3.1456
  157DOPC   H8S18890   5.266   1.413   7.491 -0.3841  0.4692 -1.0463
  157DOPC   C2918891   5.393   1.440   7.331 -0.1240  0.0243  0.6354
  157DOPC   H9R18892   5.437   1.345   7.367  0.5027  0.0086 -0.1412
  157DOPC  C21018893   5.417   1.496   7.214 -0.2699 -0.1804 -0.1422
  157DOPC  H10R18894   5.491   1.455   7.143  0.0248  0.9514 -0.5086
  157DOPC  C21118895   5.352   1.620   7.157  0.0753  0.2330  0.3444
  157DOPC  H11R18896   5.422   1.680   7.095  0.0767 -0.2383 -0.1161
  157DOPC  H11S18897   5.325   1.692   7.237 -2.5447 -0.3339  0.0625
  157DOPC  C21218898   5.232   1.608   7.071 -0.6591  1.2545  0.1369
  157DOPC  H12R18899   5.191   1.710   7.057  0.7920  1.8436  0.0814
  157DOPC  H12S18900   5.160   1.551   7.134 -0.1450  1.1265  0.6131
  157DOPC  C21318901   5.254   1.532   6.939  0.0706  0.3364  0.9748
  157DOPC  H13R18902   5.306   1.435   6.947 -1.3254 -0.4992  0.2782
  157DOPC  H13S18903   5.319   1.600   6.879  1.5567 -1.3184  0.6271
  157DOPC  C21418904   5.121   1.491   6.867  0.8249 -0.2963  0.1349
  157DOPC  H14R18905   5.047   1.573   6.878  0.7829 -0.4103  0.7103
  157DOPC  H14S18906   5.081   1.397   6.911 -1.7429  0.6210 -0.0846
  157DOPC  C21518907   5.141   1.490   6.714 -0.6516  0.2290  0.2001
  157DOPC  H15R18908   5.217   1.414   6.682  0.6486  0.2620  2.9406
  157DOPC  H15S18909   5.187   1.589   6.694 -0.0690 -0.4026 -1.8554
  157DOPC  C21618910   5.011   1.479   6.635  0.2637 -0.5796 -0.4092
  157DOPC  H16R18911   4.946   1.559   6.675 -0.6912 -0.7244 -1.5936
  157DOPC  H16S18912   4.977   1.376   6.660  1.3191 -0.7670  0.3289
  157DOPC  C21718913   5.025   1.493   6.485  0.6369 -0.1427 -0.2708
  157DOPC  H17R18914   5.114   1.436   6.450 -0.2964 -1.6134 -0.3593
  157DOPC  H17S18915   5.039   1.601   6.463 -1.3136 -0.3688 -3.1812
  157DOPC  C21818916   4.896   1.442   6.410  0.1753  0.4576  0.8868
  157DOPC  H18R18917   4.875   1.341   6.451  1.7367 -0.3526 -0.1782
  157DOPC  H18S18918   4.904   1.432   6.300 -0.1765 -1.3454  0.9835
  157DOPC  H18T18919   4.810   1.506   6.437  0.8240  2.5268 -1.6010
  157DOPC   C3318920   5.661   1.631   7.901  0.6013 -0.1278 -0.2004
  157DOPC   H3X18921   5.557   1.594   7.904  1.0250 -1.3640 -0.0461
  157DOPC   H3Y18922   5.725   1.543   7.926 -0.8144 -0.7160  1.5820
  157DOPC   C3418923   5.699   1.677   7.764 -0.3696 -0.2674  0.6773
  157DOPC   H4X18924   5.806   1.707   7.767 -0.9756  2.0619  2.4540
  157DOPC   H4Y18925   5.634   1.763   7.737 -1.2215 -1.1407 -0.1365
  157DOPC   C3518926   5.697   1.568   7.652 -0.4411  0.6238 -0.1660
  157DOPC   H5X18927   5.595   1.523   7.656 -0.2439  0.2263  0.4105
  157DOPC   H5Y18928   5.776   1.492   7.672 -0.1475  1.6827  3.1672
  157DOPC   C3618929   5.739   1.621   7.522 -0.1572 -0.0358 -0.1221
  157DOPC   H6X18930   5.657   1.680   7.476  0.6349  0.1847 -1.2970
  157DOPC   H6Y18931   5.823   1.693   7.523  0.9694 -1.2148 -2.0764
  157DOPC   C3718932   5.781   1.505   7.428  0.1744 -0.3462 -0.1549
  157DOPC   H7X18933   5.881   1.466   7.458 -0.9036 -1.2063  2.5904
  157DOPC   H7Y18934   5.707   1.424   7.448  0.3987 -0.5794 -0.2641
  157DOPC   C3818935   5.779   1.542   7.279 -0.4390 -0.0344 -0.4887
  157DOPC   H8X18936   5.853   1.620   7.250 -0.0896 -1.1069 -2.7377
  157DOPC   H8Y18937   5.682   1.579   7.238  0.7481  1.5433 -2.0502
  157DOPC   C3918938   5.810   1.415   7.205  0.2082 -0.2836 -0.6845
  157DOPC   H9X18939   5.808   1.325   7.269  0.2693 -0.7494 -1.3304
  157DOPC  C31018940   5.876   1.392   7.091 -0.3397 -0.2786 -0.2894
  157DOPC  H10X18941   5.909   1.290   7.067  0.1139 -0.2101  0.0354
  157DOPC  C31118942   5.926   1.508   7.004  0.1139 -0.8374  0.1074
  157DOPC  H11X18943   6.021   1.472   6.959  0.6811  0.6433  0.0480
  157DOPC  H11Y18944   5.951   1.598   7.065 -0.4306 -0.4976 -0.1538
  157DOPC  C31218945   5.830   1.536   6.883  0.4577 -1.0945  0.9707
  157DOPC  H12X18946   5.834   1.448   6.815  2.2964 -0.9253  0.8079
  157DOPC  H12Y18947   5.884   1.609   6.818 -1.0849  0.4031  1.3101
  157DOPC  C31318948   5.695   1.590   6.936  0.3778 -0.0527 -0.1474
  157DOPC  H13X18949   5.634   1.510   6.983  1.3018 -1.1593 -0.7407
  157DOPC  H13Y18950   5.717   1.675   7.003  3.3617  0.8294 -2.0203
  157DOPC  C31418951   5.614   1.641   6.813 -0.0343  0.7483  0.1383
  157DOPC  H14X18952   5.511   1.674   6.838 -2.4470 -2.8966 -3.5534
  157DOPC  H14Y18953   5.679   1.720   6.770  3.8481 -1.7936  0.8158
  157DOPC  C31518954   5.591   1.536   6.704 -0.0160  0.4104  0.0648
  157DOPC  H15X18955   5.526   1.454   6.744  0.8581 -0.6329 -0.6007
  157DOPC  H15Y18956   5.683   1.486   6.669 -0.7801 -0.8416 -0.2352
  157DOPC  C31618957   5.508   1.602   6.601 -0.3649  0.4283 -0.0060
  157DOPC  H16X18958   5.409   1.624   6.645 -0.5980 -0.3043 -0.1550
  157DOPC  H16Y18959   5.548   1.702   6.572 -1.0159  1.3028  1.9475
  157DOPC  C31718960   5.475   1.507   6.488  0.1711  0.0335 -0.5112
  157DOPC  H17X18961   5.565   1.483   6.428  2.7980 -0.9198  3.3756
  157DOPC  H17Y18962   5.449   1.407   6.530  0.5108  0.8223  1.7003
  157DOPC  C31818963   5.368   1.558   6.396 -0.6588  0.2624 -0.2873
  157DOPC  H18X18964   5.327   1.486   6.322  0.9380 -0.2688 -0.6871
  157DOPC  H18Y18965   5.281   1.607   6.445  0.1918  2.7415 -1.1141
  157DOPC  H18Z18966   5.428   1.638   6.349  1.2518  0.0793  1.6797
  158DOPC     N18967   3.514   6.812   8.991  0.0999  0.1335  0.2611
  158DOPC   C1218968   3.525   6.757   8.853 -0.1328  0.0727  0.4743
  158DOPC  H12A18969   3.435   6.700   8.835  0.1231  0.3108 -1.7821
  158DOPC  H12B18970   3.610   6.690   8.857 -0.2316 -0.0194  1.1991
  158DOPC   C1318971   3.490   6.704   9.095 -0.6427  0.6394  0.4081
  158DOPC  H13A18972   3.394   6.657   9.077 -0.0174  0.3162 -2.5720
  158DOPC  H13B18973   3.568   6.629   9.100  0.0070  1.3883  2.4167
  158DOPC  H13C18974   3.484   6.752   9.192 -0.4135 -0.6664  1.0899
  158DOPC   C1418975   3.405   6.913   8.999 -0.5150  0.4057  0.0930
  158DOPC  H14A18976   3.426   6.977   8.915  0.1846 -0.1279 -0.1533
  158DOPC  H14B18977   3.306   6.871   8.992 -1.0220  1.8525 -3.9566
  158DOPC  H14C18978   3.414   6.967   9.092 -0.4503 -0.8967  0.8826
  158DOPC   C1518979   3.642   6.880   9.031  0.0154 -0.0546  0.8028
  158DOPC  H15A18980   3.713   6.812   9.077 -1.0794 -0.6113  1.7130
  158DOPC  H15B18981   3.632   6.959   9.103 -1.1057  0.8257 -0.2903
  158DOPC  H15C18982   3.696   6.930   8.952  1.2718  0.3344  1.8556
  158DOPC   C1118983   3.541   6.860   8.739  0.3924 -0.0218 -0.0952
  158DOPC  H11A18984   3.621   6.936   8.751  1.1540 -0.9336  0.7624
  158DOPC  H11B18985   3.575   6.807   8.648 -0.7545 -1.6313  0.3734
  158DOPC     P18986   3.307   6.861   8.645  0.0127 -0.1548  0.0987
  158DOPC   O1318987   3.174   6.917   8.685 -0.2671 -0.0083 -0.0670
  158DOPC   O1418988   3.319   6.714   8.661 -0.0709  0.6319  0.0595
  158DOPC   O1218989   3.421   6.937   8.719 -0.4541 -0.2414  0.4007
  158DOPC   O1118990   3.340   6.887   8.487  0.0320  0.0250 -0.3241
  158DOPC    C118991   3.332   7.017   8.438  0.3971 -0.3252  0.2942
  158DOPC    HA18992   3.396   7.089   8.493  0.9025  1.1742 -2.0975
  158DOPC    HB18993   3.227   7.052   8.449  1.0698  2.8545 -2.1336
  158DOPC    C218994   3.370   7.028   8.286 -0.1173 -0.0765 -0.2002
  158DOPC    HS18995   3.353   7.138   8.276 -0.4428  0.0726  1.6761
  158DOPC   O2118996   3.284   6.945   8.209 -0.2115  0.1666  0.2933
  158DOPC   C2118997   3.233   7.000   8.102  0.4141  0.0095 -0.4456
  158DOPC   O2218998   3.248   7.118   8.074 -0.3386 -0.0673 -0.4261
  158DOPC   C2218999   3.167   6.894   8.015  0.3162 -0.1847  0.1590
  158DOPC   H2R19000   3.058   6.906   8.033  0.2243 -0.1051 -0.4253
  158DOPC   H2S19001   3.206   6.793   8.039 -0.4367 -0.6261 -0.4322
  158DOPC    C319002   3.515   7.000   8.257 -0.9837  0.2387  0.1079
  158DOPC    HX19003   3.531   6.892   8.275  0.5874  0.2729 -0.8866
  158DOPC    HY19004   3.576   7.059   8.329 -0.7005  0.3293 -0.2006
  158DOPC   O3119005   3.549   7.023   8.120  0.2134 -0.3044  0.6474
  158DOPC   C3119006   3.585   7.144   8.086 -0.2953 -0.1567  0.1672
  158DOPC   O3219007   3.597   7.238   8.166 -0.1449  0.2927  0.1986
  158DOPC   C3219008   3.631   7.154   7.939  0.1842 -1.0491 -0.0213
  158DOPC   H2X19009   3.639   7.265   7.929  0.3046 -0.9338  1.1983
  158DOPC   H2Y19010   3.734   7.114   7.935  0.5956  0.0373 -0.8796
  158DOPC   C2319011   3.204   6.913   7.867  0.5542 -0.3627  0.7024
  158DOPC   H3R19012   3.295   6.854   7.846  0.5301  0.0782 -0.8299
  158DOPC   H3S19013   3.222   7.021   7.845  2.0878 -0.6986  0.1499
  158DOPC   C2419014   3.080   6.881   7.772 -0.0891 -0.1757  0.1341
  158DOPC   H4R19015   2.995   6.940   7.812 -0.6117  0.1073 -1.3429
  158DOPC   H4S19016   3.068   6.771   7.778  0.6677 -0.1975  2.6896
  158DOPC   C2519017   3.102   6.923   7.635 -0.0487 -0.2020 -0.0343
  158DOPC   H5R19018   3.191   6.874   7.589 -0.7342 -2.0250  0.4919
  158DOPC   H5S19019   3.124   7.032   7.633  0.8002 -0.2082  3.4114
  158DOPC   C2619020   2.980   6.880   7.558  1.2424 -0.2099 -0.1643
  158DOPC   H6R19021   2.899   6.931   7.614  2.2308  0.8629  0.3314
  158DOPC   H6S19022   2.955   6.771   7.564  0.8998 -0.0834  1.0385
  158DOPC   C2719023   2.972   6.922   7.412 -0.1036 -0.5385 -0.5904
  158DOPC   H7R19024   3.005   7.028   7.413  1.2022 -0.9144  1.1539
  158DOPC   H7S19025   2.863   6.930   7.392 -0.1199  0.7816 -0.1182
  158DOPC   C2819026   3.041   6.829   7.317 -0.1265  0.2205  0.1787
  158DOPC   H8R19027   3.143   6.811   7.357 -0.1041  1.6022  0.8059
  158DOPC   H8S19028   3.048   6.874   7.216  0.8478  1.0688  0.5998
  158DOPC   C2919029   2.965   6.705   7.275 -0.7399  0.1873  0.3626
  158DOPC   H9R19030   2.858   6.691   7.296 -0.6766  0.3625  0.8047
  158DOPC  C21019031   3.019   6.595   7.220 -0.0750  0.1854  0.9919
  158DOPC  H10R19032   2.950   6.514   7.191 -1.9890  2.0386  0.1441
  158DOPC  C21119033   3.165   6.585   7.185 -0.4131  0.3907 -0.1423
  158DOPC  H11R19034   3.228   6.550   7.270 -1.2601  1.4307  0.9451
  158DOPC  H11S19035   3.215   6.680   7.159 -0.8079  0.0963 -2.1191
  158DOPC  C21219036   3.187   6.473   7.080 -0.1456 -0.2372  0.0758
  158DOPC  H12R19037   3.146   6.381   7.128  0.2801 -0.5777 -0.2054
  158DOPC  H12S19038   3.295   6.450   7.067 -0.3246 -1.4157  0.5608
  158DOPC  C21319039   3.134   6.488   6.936 -0.0479 -0.0126  0.4619
  158DOPC  H13R19040   3.095   6.590   6.920  0.8984  0.6749  2.1889
  158DOPC  H13S19041   3.052   6.416   6.916  1.1768 -1.2485 -0.3876
  158DOPC  C21419042   3.236   6.474   6.822  0.3090  0.3524 -0.1625
  158DOPC  H14R19043   3.283   6.373   6.822 -3.0921 -1.3830  1.1350
  158DOPC  H14S19044   3.310   6.554   6.845 -0.1897  1.2334 -1.4812
  158DOPC  C21519045   3.176   6.486   6.683 -1.1278  0.2469 -0.2249
  158DOPC  H15R19046   3.144   6.592   6.670 -0.5612  0.5549  0.7807
  158DOPC  H15S19047   3.088   6.419   6.675  0.9032 -2.5511 -0.6333
  158DOPC  C21619048   3.274   6.443   6.573  0.0829 -0.7224 -0.2715
  158DOPC  H16R19049   3.301   6.337   6.590 -1.0569 -1.1922 -1.2645
  158DOPC  H16S19050   3.368   6.502   6.574  0.7695 -1.7490  1.5393
  158DOPC  C21719051   3.208   6.458   6.436 -0.4365  0.0824  0.2681
  158DOPC  H17R19052   3.135   6.541   6.442  0.0748  0.5261  0.3820
  158DOPC  H17S19053   3.153   6.363   6.422  0.1495 -0.2543  0.1782
  158DOPC  C21819054   3.304   6.479   6.315 -0.2739  0.1058 -0.2781
  158DOPC  H18R19055   3.364   6.387   6.301 -1.6272 -0.6415 -1.4124
  158DOPC  H18S19056   3.382   6.556   6.335 -0.7314  0.8928 -1.4331
  158DOPC  H18T19057   3.255   6.517   6.223  0.0922 -0.1578 -0.5807
  158DOPC   C3319058   3.532   7.072   7.843 -0.4769 -0.3304  0.7685
  158DOPC   H3X19059   3.426   7.104   7.855  0.4266  2.8069  1.3744
  158DOPC   H3Y19060   3.539   6.963   7.867 -0.0811 -0.9534 -1.9023
  158DOPC   C3419061   3.575   7.084   7.685 -0.1313  0.6682 -0.3056
  158DOPC   H4X19062   3.675   7.040   7.665  0.3079  1.9605 -1.0753
  158DOPC   H4Y19063   3.587   7.194   7.668  0.5739  0.4915 -1.0331
  158DOPC   C3519064   3.459   7.036   7.589  0.2920  0.4630  0.0828
  158DOPC   H5X19065   3.375   7.104   7.615  0.9960  1.8965 -1.2310
  158DOPC   H5Y19066   3.433   6.931   7.615  0.3791  0.0597 -1.3648
  158DOPC   C3619067   3.500   7.038   7.440  0.7088  0.6991 -0.1340
  158DOPC   H6X19068   3.528   7.144   7.421 -0.7039  1.1945  0.3918
  158DOPC   H6Y19069   3.588   6.970   7.447  1.1310  1.3663  2.4894
  158DOPC   C3719070   3.391   7.003   7.341  0.0093 -0.0911  0.0275
  158DOPC   H7X19071   3.435   6.989   7.240  2.1622 -0.8238  1.0059
  158DOPC   H7Y19072   3.356   6.900   7.365 -2.9581  0.0852 -2.7472
  158DOPC   C3819073   3.274   7.107   7.333  0.3030 -0.0503 -0.0356
  158DOPC   H8X19074   3.231   7.139   7.430  0.9903 -0.4442  0.3979
  158DOPC   H8Y19075   3.195   7.054   7.275  0.6733  2.0764 -2.6858
  158DOPC   C3919076   3.307   7.228   7.247  0.5428  0.2492 -0.3274
  158DOPC   H9X19077   3.385   7.295   7.286  3.6132 -2.3098 -1.7151
  158DOPC  C31019078   3.273   7.252   7.123  0.3581  0.7297 -0.5552
  158DOPC  H10X19079   3.321   7.341   7.080 -0.1076  0.7464 -1.0469
  158DOPC  C31119080   3.200   7.154   7.031  0.1340 -0.6607 -0.1221
  158DOPC  H11X19081   3.110   7.204   6.989 -0.3440  0.1246  1.7036
  158DOPC  H11Y19082   3.161   7.065   7.085  2.3715 -1.0129  1.0549
  158DOPC  C31219083   3.292   7.122   6.917  0.2162 -0.0064 -0.7149
  158DOPC  H12X19084   3.377   7.053   6.938  0.7830 -0.9391 -5.1479
  158DOPC  H12Y19085   3.334   7.215   6.873 -2.8142  1.5087 -0.6304
  158DOPC  C31319086   3.223   7.054   6.798  0.1019  0.1926  0.0167
  158DOPC  H13X19087   3.220   6.944   6.813 -0.4230  0.3634  1.2003
  158DOPC  H13Y19088   3.122   7.100   6.796  0.6021  1.3236  0.0086
  158DOPC  C31419089   3.311   7.060   6.670  0.8615 -0.1559 -0.2945
  158DOPC  H14X19090   3.340   7.166   6.650  0.1051 -0.1361 -1.3516
  158DOPC  H14Y19091   3.404   7.004   6.693  0.3604 -1.5080 -1.4625
  158DOPC  C31519092   3.225   7.007   6.547 -0.3356 -0.1894 -0.4889
  158DOPC  H15X19093   3.150   7.086   6.527  0.2256  0.3883 -0.3203
  158DOPC  H15Y19094   3.164   6.914   6.556 -0.8884  0.1022 -1.1349
  158DOPC  C31619095   3.313   6.984   6.425  0.0394  0.8100  0.3532
  158DOPC  H16X19096   3.373   7.074   6.402  0.8525  0.0577 -0.6226
  158DOPC  H16Y19097   3.385   6.902   6.447 -0.4313  0.4067  0.4009
  158DOPC  C31719098   3.220   6.935   6.311  0.3202 -0.5321 -0.3300
  158DOPC  H17X19099   3.279   6.907   6.221 -2.7134  1.2115 -3.0865
  158DOPC  H17Y19100   3.168   6.843   6.345  1.2539 -1.1093 -0.4499
  158DOPC  C31819101   3.109   7.029   6.254 -0.0686 -0.1896  0.6259
  158DOPC  H18X19102   3.048   7.071   6.337  1.3426 -2.2739  2.8392
  158DOPC  H18Y19103   3.164   7.103   6.192 -1.7455  2.0400  1.6365
  158DOPC  H18Z19104   3.050   6.977   6.176 -2.1676 -0.3476  2.2309
  159DOPC     N19105   5.960   2.480   8.952 -0.7758  0.2971  0.2623
  159DOPC   C1219106   6.090   2.422   8.886  0.2547 -0.0520 -0.4597
  159DOPC  H12A19107   6.151   2.386   8.967  2.9787  0.9656 -1.9167
  159DOPC  H12B19108   6.155   2.505   8.863  0.5964  0.4446  2.0061
  159DOPC   C1319109   5.880   2.365   8.993  0.2005 -0.2049  0.1548
  159DOPC  H13A19110   5.928   2.282   9.044 -0.9175 -1.3074 -0.5091
  159DOPC  H13B19111   5.799   2.389   9.060  0.0278 -1.4701  0.4390
  159DOPC  H13C19112   5.833   2.320   8.907 -0.0266  0.4519 -0.0714
  159DOPC   C1419113   5.882   2.560   8.854 -0.1922  0.0273  0.1609
  159DOPC  H14A19114   5.845   2.505   8.769  0.3673  0.8538 -0.6416
  159DOPC  H14B19115   5.791   2.599   8.896 -1.3899  0.9418 -2.9950
  159DOPC  H14C19116   5.939   2.639   8.808  1.1187  0.0115  1.6705
  159DOPC   C1519117   5.997   2.557   9.073  0.3637 -0.2046 -0.0420
  159DOPC  H15A19118   5.908   2.585   9.127  1.0045 -0.2496  1.0798
  159DOPC  H15B19119   6.055   2.642   9.040 -1.8153  1.4694  0.2278
  159DOPC  H15C19120   6.060   2.498   9.138  0.9076 -0.3695 -0.7109
  159DOPC   C1119121   6.086   2.328   8.763  0.9560  0.0762  0.0989
  159DOPC  H11A19122   6.032   2.383   8.683 -1.8462 -1.3380  0.8923
  159DOPC  H11B19123   6.188   2.300   8.728  0.6208 -2.2394  0.7577
  159DOPC     P19124   5.966   2.112   8.694  0.4956  0.7963 -0.1574
  159DOPC   O1319125   5.829   2.068   8.731  0.7049 -0.3218 -0.4326
  159DOPC   O1419126   6.076   2.009   8.688  0.6553  0.0816 -0.7213
  159DOPC   O1219127   6.009   2.215   8.799  0.1860 -0.6486 -0.3548
  159DOPC   O1119128   5.968   2.196   8.560  0.8958 -0.0580 -0.5442
  159DOPC    C119129   5.855   2.265   8.516  0.7357 -0.1773  0.2417
  159DOPC    HA19130   5.891   2.348   8.451  0.9938 -1.2585 -1.0470
  159DOPC    HB19131   5.801   2.313   8.601  1.1301 -1.0803  1.0134
  159DOPC    C219132   5.754   2.179   8.430  0.5482  0.2919  0.3172
  159DOPC    HS19133   5.736   2.088   8.492  0.9014 -0.2467 -0.3548
  159DOPC   O2119134   5.813   2.153   8.306  0.1132  0.7069 -0.0257
  159DOPC   C2119135   5.872   2.034   8.297 -0.0359  0.0520  0.1349
  159DOPC   O2219136   5.884   1.951   8.387  0.4601  0.0518  0.6260
  159DOPC   C2219137   5.933   2.011   8.156  0.1479  0.0397  0.4699
  159DOPC   H2R19138   5.972   1.908   8.142  1.4054  0.5822 -0.2849
  159DOPC   H2S19139   6.033   2.058   8.152  1.3169 -2.3435 -0.2013
  159DOPC    C319140   5.617   2.250   8.414 -0.0685  0.1313  0.4023
  159DOPC    HX19141   5.642   2.358   8.406  0.4837  0.0758  1.2864
  159DOPC    HY19142   5.554   2.249   8.505 -2.6214 -1.4019 -1.2530
  159DOPC   O3119143   5.536   2.189   8.310 -0.3854  0.1137  0.0653
  159DOPC   C3119144   5.546   2.248   8.194 -0.5469 -0.5492 -0.0436
  159DOPC   O3219145   5.603   2.354   8.170  0.7181  0.0502 -0.1375
  159DOPC   C3219146   5.470   2.169   8.095 -0.2155 -0.4639  0.6128
  159DOPC   H2X19147   5.491   2.061   8.109 -0.3349 -0.6956 -0.8377
  159DOPC   H2Y19148   5.361   2.189   8.101 -0.4001 -0.1972 -2.2274
  159DOPC   C2319149   5.838   2.053   8.039  0.4483 -0.5693 -0.0458
  159DOPC   H3R19150   5.820   2.162   8.035 -2.8693 -1.0288 -0.1527
  159DOPC   H3S19151   5.740   2.007   8.065 -0.8326  0.9833 -1.8752
  159DOPC   C2419152   5.887   2.012   7.898  0.3781  0.8290 -0.1454
  159DOPC   H4R19153   5.805   2.024   7.825  1.1725 -0.0583 -1.2220
  159DOPC   H4S19154   5.907   1.902   7.895  0.5637  0.8518 -3.4419
  159DOPC   C2519155   6.015   2.077   7.846  0.7297 -0.3562 -0.3608
  159DOPC   H5R19156   6.107   2.038   7.894  1.2358  0.7070 -0.4429
  159DOPC   H5S19157   6.023   2.184   7.873  1.2120 -0.3747 -0.4243
  159DOPC   C2619158   6.032   2.055   7.697 -0.6183 -0.6118 -0.4011
  159DOPC   H6R19159   5.966   2.120   7.636  1.8209 -0.5385 -3.1454
  159DOPC   H6S19160   6.011   1.949   7.671  1.1574 -0.5247 -2.5114
  159DOPC   C2719161   6.177   2.085   7.648  0.0026  0.1534 -1.2939
  159DOPC   H7R19162   6.247   2.020   7.704 -0.1299  2.3106  1.6161
  159DOPC   H7S19163   6.206   2.185   7.685  0.8172 -0.4530 -0.2512
  159DOPC   C2819164   6.204   2.071   7.501  1.1790 -0.8589  0.0237
  159DOPC   H8R19165   6.308   2.093   7.467  0.2046  1.2164 -1.8798
  159DOPC   H8S19166   6.140   2.143   7.446  0.0354 -1.1363  0.9536
  159DOPC   C2919167   6.185   1.930   7.447 -0.3027 -0.4400 -1.0584
  159DOPC   H9R19168   6.261   1.862   7.488  0.8530  2.5304  2.2717
  159DOPC  C21019169   6.077   1.883   7.377  0.2413 -0.2342 -0.3759
  159DOPC  H10R19170   6.075   1.782   7.333  0.9417 -0.0117 -0.9349
  159DOPC  C21119171   5.958   1.963   7.328  0.5726 -0.5929  0.1749
  159DOPC  H11R19172   5.932   2.053   7.387 -0.4139 -1.0856  0.5103
  159DOPC  H11S19173   5.869   1.899   7.347 -0.6285  0.5886 -1.1638
  159DOPC  C21219174   5.973   1.999   7.178 -0.2563  0.4073 -0.4031
  159DOPC  H12R19175   6.070   2.047   7.156  0.0548  0.7315  1.5581
  159DOPC  H12S19176   5.892   2.072   7.160  0.6017  1.8756  1.3604
  159DOPC  C21319177   5.977   1.883   7.074 -0.0825  1.0026 -0.2845
  159DOPC  H13R19178   5.889   1.818   7.092  0.9152  0.0899  1.6817
  159DOPC  H13S19179   6.063   1.819   7.103 -0.8719 -0.2829 -0.6578
  159DOPC  C21419180   5.976   1.919   6.930  0.4249 -0.0268  0.0832
  159DOPC  H14R19181   5.983   1.839   6.853 -0.1011  1.0779 -1.1427
  159DOPC  H14S19182   6.069   1.980   6.923  0.0116  0.4006 -3.2084
  159DOPC  C21519183   5.863   2.013   6.880 -0.0890 -0.5554 -0.1033
  159DOPC  H15R19184   5.859   2.108   6.938 -2.0425 -1.2888  1.0522
  159DOPC  H15S19185   5.774   1.949   6.897  0.0007 -0.7822 -0.4840
  159DOPC  C21619186   5.874   2.054   6.729 -0.5788  0.3757 -0.1577
  159DOPC  H16R19187   5.869   1.959   6.673 -0.5060 -1.3438  2.5900
  159DOPC  H16S19188   5.972   2.092   6.692 -1.1426  1.6829 -0.3837
  159DOPC  C21719189   5.759   2.142   6.685  0.3857  0.0378 -0.3950
  159DOPC  H17R19190   5.752   2.224   6.760  0.3107  0.2563 -0.6399
  159DOPC  H17S19191   5.665   2.084   6.697  0.6913 -0.0469  1.8948
  159DOPC  C21819192   5.774   2.215   6.552 -0.1085 -0.4304  0.1562
  159DOPC  H18R19193   5.861   2.285   6.559  1.8556 -2.9083  3.8205
  159DOPC  H18S19194   5.684   2.267   6.512  2.2048  0.8450 -4.0121
  159DOPC  H18T19195   5.791   2.135   6.477  3.5516 -0.8528  1.2530
  159DOPC   C3319196   5.507   2.207   7.953 -0.6843 -0.7192  0.0494
  159DOPC   H3X19197   5.615   2.203   7.928 -1.2177 -3.9091 -2.4351
  159DOPC   H3Y19198   5.480   2.311   7.928 -0.2170 -0.9593 -1.5298
  159DOPC   C3419199   5.442   2.115   7.854  0.0778  0.1597 -0.0854
  159DOPC   H4X19200   5.332   2.120   7.867  0.0716 -1.2323  0.5298
  159DOPC   H4Y19201   5.476   2.015   7.886 -0.6661  0.5742  2.2206
  159DOPC   C3519202   5.486   2.149   7.716  0.3339 -0.2271 -0.8334
  159DOPC   H5X19203   5.593   2.180   7.717 -0.7909  4.7681  2.4107
  159DOPC   H5Y19204   5.451   2.248   7.679  4.3156  1.8527  0.4128
  159DOPC   C3619205   5.447   2.039   7.615  0.3070 -0.5465  0.4514
  159DOPC   H6X19206   5.495   1.942   7.637 -0.0631 -1.2481 -1.6035
  159DOPC   H6Y19207   5.340   2.011   7.624 -0.0489  0.2168 -1.0518
  159DOPC   C3719208   5.485   2.069   7.470 -0.8441 -0.1221  0.2280
  159DOPC   H7X19209   5.425   2.154   7.430  1.4562  0.4830 -2.1678
  159DOPC   H7Y19210   5.586   2.116   7.471 -1.0131  0.2497  0.1330
  159DOPC   C3819211   5.481   1.946   7.379  0.2850 -0.2720  0.0928
  159DOPC   H8X19212   5.375   1.915   7.363 -0.0318  0.7290  0.1618
  159DOPC   H8Y19213   5.529   1.860   7.429  0.4263 -0.0816  0.2886
  159DOPC   C3919214   5.563   1.973   7.256  0.3969  0.1442 -0.1878
  159DOPC   H9X19215   5.669   1.944   7.257  0.5832  0.7141 -1.2189
  159DOPC  C31019216   5.509   2.032   7.149 -0.0959 -0.2592 -0.1146
  159DOPC  H10X19217   5.561   2.032   7.052  0.5179 -1.3355  0.1946
  159DOPC  C31119218   5.371   2.091   7.131  0.2179 -0.7791  0.4853
  159DOPC  H11X19219   5.381   2.187   7.077 -2.3487 -0.4891  0.4073
  159DOPC  H11Y19220   5.312   2.120   7.221 -0.4914  0.8692 -0.4682
  159DOPC  C31219221   5.280   2.008   7.040 -0.5132  0.7609 -0.2278
  159DOPC  H12X19222   5.184   2.064   7.042 -0.2841  1.2274  2.7057
  159DOPC  H12Y19223   5.266   1.919   7.105 -1.0457  2.6803  2.4973
  159DOPC  C31319224   5.333   1.955   6.907 -0.8790 -0.7071  0.4518
  159DOPC  H13X19225   5.392   2.037   6.862 -2.1473 -1.0709 -2.0136
  159DOPC  H13Y19226   5.410   1.876   6.921  1.0929  0.8411 -1.0541
  159DOPC  C31419227   5.221   1.912   6.812  0.1556 -0.1067 -0.2428
  159DOPC  H14X19228   5.174   1.818   6.848 -2.1036  2.1117  3.3554
  159DOPC  H14Y19229   5.145   1.993   6.815  1.1655  1.0362 -2.6700
  159DOPC  C31519230   5.264   1.903   6.663 -0.4357  0.0334 -0.3814
  159DOPC  H15X19231   5.199   1.826   6.616 -0.6519 -0.7793  1.1566
  159DOPC  H15Y19232   5.367   1.863   6.662 -0.5436 -0.4157  1.5389
  159DOPC  C31619233   5.266   2.036   6.595  0.0305 -0.2267  0.3718
  159DOPC  H16X19234   5.167   2.085   6.600 -0.4993 -1.0536 -1.2001
  159DOPC  H16Y19235   5.340   2.103   6.644  0.3851 -0.4522  0.1499
  159DOPC  C31719236   5.303   2.023   6.448  0.1072  0.3922  0.1939
  159DOPC  H17X19237   5.252   1.933   6.409  0.0660 -0.3347  1.8342
  159DOPC  H17Y19238   5.272   2.113   6.390  2.1433  1.7090  1.0342
  159DOPC  C31819239   5.454   2.011   6.416  0.4807 -0.2191 -0.3283
  159DOPC  H18X19240   5.522   2.080   6.469  2.0593 -3.1572  1.8026
  159DOPC  H18Y19241   5.486   1.914   6.460 -1.6678  0.6415  3.6649
  159DOPC  H18Z19242   5.479   2.011   6.308 -0.3667  0.5841 -0.5389
  160DOPC     N19243   2.828   6.226   8.785  0.3726  0.3198 -0.3868
  160DOPC   C1219244   2.728   6.197   8.668 -0.1331  0.2486 -0.8650
  160DOPC  H12A19245   2.659   6.126   8.710  0.8902  0.8970  2.1824
  160DOPC  H12B19246   2.783   6.151   8.587 -0.2600 -0.1209 -0.7434
  160DOPC   C1319247   2.771   6.260   8.914  0.0855 -0.7530 -0.1309
  160DOPC  H13A19248   2.698   6.183   8.935 -0.0693 -0.7583 -0.6707
  160DOPC  H13B19249   2.844   6.278   8.991 -0.3564  1.7544 -0.1863
  160DOPC  H13C19250   2.720   6.355   8.915 -1.0519 -1.1929  3.9928
  160DOPC   C1419251   2.930   6.327   8.736  0.2041 -0.6050 -0.4290
  160DOPC  H14A19252   3.023   6.322   8.792 -0.6743  1.6580  1.4229
  160DOPC  H14B19253   2.960   6.322   8.633  0.9081  0.3605 -0.2910
  160DOPC  H14C19254   2.885   6.425   8.733 -0.7065 -1.0082 -0.2309
  160DOPC   C1519255   2.889   6.086   8.812 -0.1907 -0.0365  0.0481
  160DOPC  H15A19256   2.970   6.082   8.882 -1.4366 -2.1360  1.4534
  160DOPC  H15B19257   2.921   6.033   8.724  1.5807  0.8489  0.1149
  160DOPC  H15C19258   2.818   6.023   8.862  0.8027  0.2649  1.9363
  160DOPC   C1119259   2.643   6.320   8.616  0.0571  0.2231  0.2088
  160DOPC  H11A19260   2.699   6.415   8.625 -1.5179  1.0629  1.7002
  160DOPC  H11B19261   2.614   6.300   8.511 -0.4243  0.1905  0.3466
  160DOPC     P19262   2.411   6.234   8.682  0.5087 -0.0759  0.0679
  160DOPC   O1319263   2.282   6.284   8.748  0.0844  0.1706  0.6648
  160DOPC   O1419264   2.452   6.099   8.731 -0.1709  0.1357  0.0188
  160DOPC   O1219265   2.523   6.345   8.696  0.2001  0.7339 -0.2571
  160DOPC   O1119266   2.388   6.234   8.529 -0.1423 -0.3340 -0.3338
  160DOPC    C119267   2.344   6.349   8.461  0.3294 -0.4532 -0.5541
  160DOPC    HA19268   2.423   6.427   8.461  0.2644 -0.3755  0.2475
  160DOPC    HB19269   2.249   6.387   8.504  0.6372  0.7514 -0.9126
  160DOPC    C219270   2.304   6.314   8.320  0.0989 -0.5077  0.2233
  160DOPC    HS19271   2.215   6.248   8.331 -0.2345 -0.1375 -0.2112
  160DOPC   O2119272   2.401   6.230   8.252  0.0399 -0.0804 -0.2119
  160DOPC   C2119273   2.361   6.140   8.165  0.1990 -0.1037  0.1601
  160DOPC   O2219274   2.248   6.100   8.143 -0.0263  0.1318  0.3449
  160DOPC   C2219275   2.485   6.085   8.084 -0.4138 -0.1721 -0.1696
  160DOPC   H2R19276   2.504   6.000   8.152  0.9509 -0.4023 -0.8005
  160DOPC   H2S19277   2.572   6.155   8.087 -0.0977 -0.5736  2.7344
  160DOPC    C319278   2.273   6.439   8.228  0.3114 -0.1014  0.8445
  160DOPC    HX19279   2.369   6.494   8.219 -0.0631  0.3952 -0.4519
  160DOPC    HY19280   2.198   6.495   8.287 -0.3582  0.0913 -0.1577
  160DOPC   O3119281   2.226   6.406   8.100  0.1253  0.3909  0.0026
  160DOPC   C3119282   2.170   6.511   8.032 -0.3676  0.1505 -0.1327
  160DOPC   O3219283   2.158   6.621   8.079 -0.1697 -0.3507  0.1535
  160DOPC   C3219284   2.119   6.471   7.896  0.2367  0.3638 -1.0114
  160DOPC   H2X19285   2.201   6.410   7.853 -1.4295 -0.1296 -3.7688
  160DOPC   H2Y19286   2.027   6.409   7.901  0.3132  0.2001 -1.5804
  160DOPC   C2319287   2.466   6.035   7.940 -0.0217 -0.4959 -0.1570
  160DOPC   H3R19288   2.358   6.015   7.926  0.0971  0.0927 -2.3380
  160DOPC   H3S19289   2.512   5.936   7.918 -1.6398 -1.3141 -0.0093
  160DOPC   C2419290   2.513   6.133   7.835  0.1446 -0.0110 -0.4591
  160DOPC   H4R19291   2.623   6.146   7.829 -0.1280  1.9870 -3.5814
  160DOPC   H4S19292   2.464   6.229   7.863 -0.8750 -0.6439 -0.0278
  160DOPC   C2519293   2.451   6.102   7.696 -0.2032 -0.1038 -0.2696
  160DOPC   H5R19294   2.340   6.102   7.692 -0.2190 -0.5249  0.1344
  160DOPC   H5S19295   2.467   6.001   7.654 -1.4254 -0.3885 -0.0891
  160DOPC   C2619296   2.489   6.214   7.590 -0.6962 -0.4883 -0.1384
  160DOPC   H6R19297   2.600   6.214   7.589 -0.6843  0.6413 -1.8333
  160DOPC   H6S19298   2.443   6.311   7.617 -0.0900 -0.3717  0.5014
  160DOPC   C2719299   2.447   6.174   7.448 -0.5719 -0.4112  0.2488
  160DOPC   H7R19300   2.337   6.162   7.449 -0.4576 -1.5796  0.7750
  160DOPC   H7S19301   2.504   6.080   7.430 -1.7070 -1.0185 -0.2736
  160DOPC   C2819302   2.485   6.286   7.351 -0.8172  0.2491 -0.1284
  160DOPC   H8R19303   2.595   6.293   7.339 -1.0352  1.8263 -1.5146
  160DOPC   H8S19304   2.446   6.383   7.390 -0.3863  0.9497 -1.4011
  160DOPC   C2919305   2.425   6.268   7.212 -0.1654  0.8939 -0.3884
  160DOPC   H9R19306   2.318   6.287   7.199 -0.1847  0.2692 -1.1851
  160DOPC  C21019307   2.487   6.237   7.100  0.2179  0.2303 -0.5423
  160DOPC  H10R19308   2.430   6.245   7.007  0.9723  0.9731 -0.9532
  160DOPC  C21119309   2.635   6.226   7.078  1.0716 -0.3437 -0.3171
  160DOPC  H11R19310   2.648   6.146   7.003 -2.0760 -0.2466 -1.0826
  160DOPC  H11S19311   2.693   6.185   7.163 -0.2105 -3.2613 -0.7355
  160DOPC  C21219312   2.699   6.363   7.031 -0.7796  0.9010 -0.1132
  160DOPC  H12R19313   2.808   6.346   7.023 -0.6036  0.3362  2.5641
  160DOPC  H12S19314   2.680   6.441   7.108 -0.6676  0.9713 -0.1568
  160DOPC  C21319315   2.641   6.409   6.890 -0.4133 -0.1295  0.3448
  160DOPC  H13R19316   2.532   6.432   6.879 -0.2280  0.1132 -1.2676
  160DOPC  H13S19317   2.649   6.333   6.810  1.4216 -0.2197  0.5825
  160DOPC  C21419318   2.715   6.530   6.853 -0.7403  0.1112 -0.0854
  160DOPC  H14R19319   2.821   6.498   6.846 -0.6239  0.0484  1.6400
  160DOPC  H14S19320   2.708   6.604   6.935 -1.0152  0.9622 -0.8537
  160DOPC  C21519321   2.673   6.595   6.718  0.7085  0.1118 -0.4327
  160DOPC  H15R19322   2.571   6.639   6.727  0.9316  0.6415 -0.4684
  160DOPC  H15S19323   2.665   6.513   6.644 -0.4216  0.8456 -1.1658
  160DOPC  C21619324   2.772   6.703   6.672  0.0687  0.1588 -0.5985
  160DOPC  H16R19325   2.754   6.735   6.567  1.3468  1.6462 -0.4048
  160DOPC  H16S19326   2.870   6.653   6.655 -0.6872 -1.0251 -1.6935
  160DOPC  C21719327   2.782   6.829   6.760  0.2307  0.4610  0.3537
  160DOPC  H17R19328   2.796   6.798   6.866 -1.0332  1.0839  0.7232
  160DOPC  H17S19329   2.690   6.892   6.761 -0.4319 -0.4390  2.4175
  160DOPC  C21819330   2.902   6.914   6.717 -0.2493 -0.0337 -0.0409
  160DOPC  H18R19331   2.998   6.859   6.729  0.9750  1.6021 -1.7628
  160DOPC  H18S19332   2.914   7.002   6.783  0.0134 -0.3582  0.3517
  160DOPC  H18T19333   2.883   6.957   6.617 -0.2895  1.8052  0.7146
  160DOPC   C3319334   2.093   6.581   7.794  0.6240 -0.5469 -0.2615
  160DOPC   H3X19335   2.177   6.651   7.815  1.7605 -2.3415  1.5106
  160DOPC   H3Y19336   1.994   6.630   7.811  1.4588  1.7051 -1.4533
  160DOPC   C3419337   2.096   6.524   7.645  0.6083  0.3357 -0.0116
  160DOPC   H4X19338   2.055   6.421   7.637 -1.0627  0.9123  0.6088
  160DOPC   H4Y19339   2.204   6.504   7.629  0.1526 -0.9078 -1.8054
  160DOPC   C3519340   2.054   6.621   7.532 -0.4344  0.0501  0.6575
  160DOPC   H5X19341   2.096   6.720   7.560 -1.8074  0.8274  0.0563
  160DOPC   H5Y19342   1.943   6.625   7.523 -0.2666 -0.0356 -2.6606
  160DOPC   C3619343   2.100   6.559   7.397 -0.2600  0.5395  0.1134
  160DOPC   H6X19344   2.211   6.554   7.407 -0.4813 -1.4982  2.5936
  160DOPC   H6Y19345   2.063   6.455   7.389 -0.8787  0.6314  1.5133
  160DOPC   C3719346   2.060   6.632   7.271  0.9341 -0.1314  0.3462
  160DOPC   H7X19347   1.950   6.641   7.280  0.8440 -0.1305 -0.6575
  160DOPC   H7Y19348   2.099   6.736   7.267 -0.2074  0.3506  1.2746
  160DOPC   C3819349   2.093   6.559   7.144 -0.9061 -0.4472  0.6790
  160DOPC   H8X19350   2.020   6.585   7.064 -0.6375  0.9988  0.8718
  160DOPC   H8Y19351   2.080   6.448   7.145 -3.4161 -0.2980 -1.7991
  160DOPC   C3919352   2.242   6.570   7.095  0.2906 -0.5912 -0.8595
  160DOPC   H9X19353   2.311   6.587   7.179 -0.2958  2.9892 -0.9118
  160DOPC  C31019354   2.295   6.581   6.974  0.7597 -1.1079  0.2643
  160DOPC  H10X19355   2.405   6.586   6.971  0.8512 -2.4146  0.8922
  160DOPC  C31119356   2.216   6.567   6.848 -0.6114 -0.4637 -0.3198
  160DOPC  H11X19357   2.211   6.669   6.804 -0.7451 -0.2880  0.0962
  160DOPC  H11Y19358   2.111   6.538   6.869 -1.2566  1.5456 -0.5186
  160DOPC  C31219359   2.267   6.463   6.750 -0.1901  0.2752 -0.3215
  160DOPC  H12X19360   2.261   6.368   6.807  2.1710  0.7474  0.8351
  160DOPC  H12Y19361   2.375   6.462   6.724 -0.8160 -0.3189 -3.1986
  160DOPC  C31319362   2.193   6.446   6.617  0.0376  0.1186 -0.4960
  160DOPC  H13X19363   2.087   6.448   6.650  0.7580  2.1333  2.0979
  160DOPC  H13Y19364   2.220   6.537   6.560  1.3313 -0.0374 -0.1529
  160DOPC  C31419365   2.235   6.316   6.545  0.2000 -0.2997  0.4449
  160DOPC  H14X19366   2.345   6.324   6.533 -0.1116 -0.3044 -3.8056
  160DOPC  H14Y19367   2.214   6.230   6.612  1.6162 -1.1437 -0.1476
  160DOPC  C31519368   2.179   6.305   6.405  0.8661  0.1763 -0.7361
  160DOPC  H15X19369   2.219   6.386   6.341 -2.0578 -0.2297 -3.2851
  160DOPC  H15Y19370   2.071   6.323   6.420  0.7631 -1.3161  0.7053
  160DOPC  C31619371   2.209   6.163   6.346 -0.2453 -0.6001  0.2855
  160DOPC  H16X19372   2.318   6.144   6.349 -0.6230 -3.0848  0.6088
  160DOPC  H16Y19373   2.164   6.097   6.423  1.2597  0.6925  2.3799
  160DOPC  C31719374   2.148   6.147   6.203  0.0948  0.0068 -0.4079
  160DOPC  H17X19375   2.167   6.045   6.163  0.6813  0.3527 -1.0335
  160DOPC  H17Y19376   2.040   6.173   6.208 -0.1777 -1.2216  0.8283
  160DOPC  C31819377   2.233   6.237   6.111 -0.6844  0.0263 -0.0879
  160DOPC  H18X19378   2.212   6.342   6.140  2.0030  0.6683 -0.2274
  160DOPC  H18Y19379   2.338   6.203   6.129  0.0550  1.3724 -1.6097
  160DOPC  H18Z19380   2.207   6.214   6.006 -0.7915 -1.6918  0.2758
  161DOPC     N19381   2.982   1.344   8.773 -0.5014  0.1931  0.4580
  161DOPC   C1219382   2.933   1.197   8.766 -0.3342  1.0549  0.8575
  161DOPC  H12A19383   2.826   1.196   8.756 -0.2125  0.9459 -0.7004
  161DOPC  H12B19384   2.946   1.146   8.860 -1.8379 -4.3675 -1.4579
  161DOPC   C1319385   2.900   1.430   8.867 -0.0368  0.5232  0.2082
  161DOPC  H13A19386   2.809   1.464   8.818 -0.9611 -0.0910  1.4355
  161DOPC  H13B19387   2.861   1.363   8.942  0.4199 -2.6988 -2.2553
  161DOPC  H13C19388   2.955   1.511   8.912 -0.0811  0.3863  0.5130
  161DOPC   C1419389   3.007   1.401   8.636  0.4668  0.4300  0.0591
  161DOPC  H14A19390   3.063   1.492   8.642  1.2596 -0.1089  1.1822
  161DOPC  H14B19391   3.069   1.340   8.573  0.1347  0.1105  0.0318
  161DOPC  H14C19392   2.912   1.405   8.585  0.3926 -1.3052 -0.0262
  161DOPC   C1519393   3.108   1.328   8.837 -0.1786  0.3305  0.5082
  161DOPC  H15A19394   3.162   1.255   8.779 -1.3776 -0.3193  0.1908
  161DOPC  H15B19395   3.115   1.285   8.936 -0.4407  0.9830  0.8125
  161DOPC  H15C19396   3.158   1.423   8.850 -1.2233  0.7857  1.3489
  161DOPC   C1119397   2.988   1.107   8.651  0.7725  0.5759  0.3596
  161DOPC  H11A19398   2.940   1.007   8.647  0.1270  0.9269 -1.1157
  161DOPC  H11B19399   2.959   1.160   8.558 -0.5416  0.0496  0.4551
  161DOPC     P19400   3.212   1.088   8.517 -0.2400 -0.3547 -0.0274
  161DOPC   O1319401   3.317   0.986   8.521 -0.5151 -0.6100 -0.2064
  161DOPC   O1419402   3.258   1.229   8.498 -0.1580 -0.5817  0.1936
  161DOPC   O1219403   3.133   1.091   8.659 -0.2674 -0.1258 -0.4367
  161DOPC   O1119404   3.097   1.046   8.418  0.2351  0.0980 -0.6703
  161DOPC    C119405   3.071   0.910   8.390  0.1266 -0.4034  0.1276
  161DOPC    HA19406   2.964   0.893   8.367  0.1924 -0.4375 -0.1550
  161DOPC    HB19407   3.097   0.843   8.475  0.2774  0.1842  0.5571
  161DOPC    C219408   3.150   0.854   8.271  0.0976 -0.7021  0.3894
  161DOPC    HS19409   3.256   0.841   8.302 -0.0858 -0.9219  0.9452
  161DOPC   O2119410   3.138   0.946   8.164  0.1841  0.0536  0.5477
  161DOPC   C2119411   3.253   0.994   8.117 -0.0808 -0.0932 -0.1044
  161DOPC   O2219412   3.363   0.974   8.163 -0.3142 -0.3065  0.1438
  161DOPC   C2219413   3.214   1.094   8.005  0.1386  0.0219 -0.3480
  161DOPC   H2R19414   3.300   1.165   8.007  0.5756 -0.4965  1.7520
  161DOPC   H2S19415   3.120   1.140   8.042  1.6942  2.9754  0.2053
  161DOPC    C319416   3.093   0.724   8.227 -0.2732 -0.0662 -0.3452
  161DOPC    HX19417   2.989   0.753   8.198 -0.6046  1.5026  2.1691
  161DOPC    HY19418   3.067   0.651   8.307  2.6854 -0.9023 -0.0335
  161DOPC   O3119419   3.158   0.663   8.112 -0.7992  0.0761 -0.5006
  161DOPC   C3119420   3.283   0.623   8.146  0.1969  0.6499  0.5972
  161DOPC   O3219421   3.325   0.605   8.257 -0.1765 -0.4179  0.2969
  161DOPC   C3219422   3.353   0.598   8.013 -0.5918  0.2307  0.2804
  161DOPC   H2X19423   3.381   0.490   8.018  1.9130  0.8594  1.7796
  161DOPC   H2Y19424   3.274   0.601   7.935 -0.6380 -1.0654  0.2467
  161DOPC   C2319425   3.180   1.015   7.871  0.0439 -0.2300  0.0825
  161DOPC   H3R19426   3.074   0.981   7.872 -0.4764  1.3165  0.8435
  161DOPC   H3S19427   3.244   0.925   7.859  0.9955  0.0112  2.6854
  161DOPC   C2419428   3.190   1.109   7.752 -0.5159  0.5173  0.1983
  161DOPC   H4R19429   3.295   1.143   7.739 -0.6123  0.8174  0.1962
  161DOPC   H4S19430   3.129   1.201   7.765 -1.1206 -0.0394  1.5175
  161DOPC   C2519431   3.134   1.029   7.631  0.0650 -0.0064  0.2157
  161DOPC   H5R19432   3.029   1.010   7.662 -0.6086 -1.0690 -2.4015
  161DOPC   H5S19433   3.184   0.932   7.608  1.3535  1.3642 -3.5869
  161DOPC   C2619434   3.154   1.111   7.499  0.1114 -0.3265  0.0924
  161DOPC   H6R19435   3.259   1.139   7.477 -0.3530  2.2710  0.8185
  161DOPC   H6S19436   3.101   1.206   7.524  0.3530 -0.8232  2.7975
  161DOPC   C2719437   3.079   1.042   7.382  0.3576  0.1090  0.5982
  161DOPC   H7R19438   2.975   1.012   7.407  0.3355 -0.4304 -0.0836
  161DOPC   H7S19439   3.122   0.942   7.361  0.0196 -0.0185  0.4938
  161DOPC   C2819440   3.072   1.122   7.244  0.1808 -0.1199 -0.6373
  161DOPC   H8R19441   3.049   1.230   7.255 -1.0185 -0.4837  0.7992
  161DOPC   H8S19442   2.990   1.078   7.183 -0.2666  1.8297 -1.5273
  161DOPC   C2919443   3.205   1.110   7.167  0.0155 -0.5767  0.6388
  161DOPC   H9R19444   3.290   1.172   7.200 -0.5410  0.9063 -0.6014
  161DOPC  C21019445   3.222   1.026   7.061 -0.4356 -0.3229 -0.2979
  161DOPC  H10R19446   3.320   1.029   7.011 -0.6372  0.8209 -0.6584
  161DOPC  C21119447   3.120   0.917   7.010  0.1544  0.0055 -0.1997
  161DOPC  H11R19448   3.058   0.878   7.094  0.6477  0.2154  0.2721
  161DOPC  H11S19449   3.166   0.827   6.965 -0.1338 -0.1409 -0.2015
  161DOPC  C21219450   3.028   0.992   6.915 -0.1175 -0.2916  0.2932
  161DOPC  H12R19451   3.086   1.006   6.821  0.6784  1.0080  0.9619
  161DOPC  H12S19452   3.006   1.095   6.949 -0.1174  0.2776 -1.3148
  161DOPC  C21319453   2.896   0.922   6.880  0.3499 -0.2679  0.0836
  161DOPC  H13R19454   2.851   0.908   6.980  1.1399  0.7909  0.6101
  161DOPC  H13S19455   2.913   0.819   6.841 -0.1354 -0.6894  0.9596
  161DOPC  C21419456   2.816   0.994   6.781  0.0112  0.3555 -0.7991
  161DOPC  H14R19457   2.812   1.102   6.807 -1.7959 -0.1612  1.3928
  161DOPC  H14S19458   2.713   0.952   6.775  0.5559 -0.8034 -2.6414
  161DOPC  C21519459   2.867   0.989   6.630 -0.1761  0.3559  0.4764
  161DOPC  H15R19460   2.843   0.891   6.583  0.4190  0.6111 -0.3838
  161DOPC  H15S19461   2.975   1.003   6.607  0.8378 -2.6623  2.6521
  161DOPC  C21619462   2.786   1.095   6.549 -0.0629 -0.2362 -0.2442
  161DOPC  H16R19463   2.688   1.119   6.595  0.9547  0.1337  1.8331
  161DOPC  H16S19464   2.770   1.048   6.450  1.3711 -1.8620  0.2402
  161DOPC  C21719465   2.862   1.231   6.524  0.1347 -0.1417  0.1630
  161DOPC  H17R19466   2.811   1.281   6.439  1.9836 -1.6592 -1.9721
  161DOPC  H17S19467   2.962   1.193   6.493  0.0181 -0.3561  0.0559
  161DOPC  C21819468   2.879   1.333   6.634 -0.0801  0.3125  0.4869
  161DOPC  H18R19469   2.926   1.287   6.723 -0.5254 -3.7421 -1.1748
  161DOPC  H18S19470   2.783   1.381   6.663  1.6480  4.5405 -0.0641
  161DOPC  H18T19471   2.942   1.417   6.598 -0.2488 -0.3272 -1.3721
  161DOPC   C3319472   3.474   0.693   7.992  0.2718 -0.1218  0.2205
  161DOPC   H3X19473   3.552   0.679   8.071 -0.1033 -2.1568  0.3003
  161DOPC   H3Y19474   3.445   0.799   8.005  0.2036  0.0488 -1.2463
  161DOPC   C3419475   3.532   0.694   7.846  0.2895 -0.7731  0.6137
  161DOPC   H4X19476   3.588   0.598   7.837  0.0249 -0.9576  0.8886
  161DOPC   H4Y19477   3.606   0.776   7.836  0.0058  0.0377  3.9876
  161DOPC   C3519478   3.429   0.715   7.733 -0.2793 -0.3641  0.7962
  161DOPC   H5X19479   3.358   0.798   7.755  0.1352  0.1851  0.0586
  161DOPC   H5Y19480   3.367   0.623   7.728 -0.2720 -0.3370  0.1427
  161DOPC   C3619481   3.488   0.727   7.592  0.0828  0.2510 -0.8815
  161DOPC   H6X19482   3.546   0.821   7.577  1.0076  0.5344  3.1431
  161DOPC   H6Y19483   3.561   0.646   7.573  0.0549 -0.1837  0.7167
  161DOPC   C3719484   3.386   0.718   7.483  0.1545 -0.2731  0.1860
  161DOPC   H7X19485   3.316   0.632   7.492 -0.0201  0.0176  1.9264
  161DOPC   H7Y19486   3.330   0.809   7.514  0.7227 -0.4605  1.8142
  161DOPC   C3819487   3.439   0.754   7.336  0.7638  0.0189 -0.1441
  161DOPC   H8X19488   3.482   0.856   7.328  2.0046 -0.3852  1.0790
  161DOPC   H8Y19489   3.349   0.770   7.273  0.8879  1.0280 -0.0804
  161DOPC   C3919490   3.537   0.662   7.280 -0.4724 -0.3122  0.7737
  161DOPC   H9X19491   3.558   0.577   7.347  0.5928 -0.2552  0.5406
  161DOPC  C31019492   3.587   0.664   7.154 -0.2308 -0.3868 -0.5829
  161DOPC  H10X19493   3.667   0.597   7.120 -0.9870 -0.8714 -1.4479
  161DOPC  C31119494   3.542   0.751   7.039 -0.1284 -0.1119 -0.0497
  161DOPC  H11X19495   3.623   0.824   7.016  1.0893 -0.7473  1.9667
  161DOPC  H11Y19496   3.454   0.809   7.073  0.9215  0.7418  1.3116
  161DOPC  C31219497   3.494   0.684   6.908 -0.1262 -0.4407  0.5191
  161DOPC  H12X19498   3.411   0.613   6.932  0.3831 -1.4319 -0.5298
  161DOPC  H12Y19499   3.582   0.628   6.870  0.2454 -2.0262  3.4632
  161DOPC  C31319500   3.454   0.784   6.790  0.4196  0.0821 -0.3881
  161DOPC  H13X19501   3.379   0.849   6.840 -0.0157 -0.1881 -0.6818
  161DOPC  H13Y19502   3.539   0.850   6.763  0.3926 -0.2173 -1.2289
  161DOPC  C31419503   3.384   0.732   6.662  0.4269  0.1639 -0.3585
  161DOPC  H14X19504   3.399   0.802   6.577 -0.2122  0.8617  0.0863
  161DOPC  H14Y19505   3.438   0.641   6.630 -2.0711 -0.5447 -3.0438
  161DOPC  C31519506   3.234   0.705   6.680  0.7898 -0.1588  0.0419
  161DOPC  H15X19507   3.182   0.802   6.662 -0.0245 -0.4170  0.9350
  161DOPC  H15Y19508   3.221   0.674   6.786  0.8281  1.6105  0.5956
  161DOPC  C31619509   3.173   0.600   6.578 -0.0146 -0.1994  0.4175
  161DOPC  H16X19510   3.216   0.621   6.478  0.0814  2.0678  0.8794
  161DOPC  H16Y19511   3.201   0.497   6.610 -1.4247 -0.8536 -0.3496
  161DOPC  C31719512   3.023   0.602   6.553  0.4890 -0.8458  0.2340
  161DOPC  H17X19513   2.972   0.589   6.650  2.4126 -0.7596  1.2985
  161DOPC  H17Y19514   2.984   0.700   6.516  1.2664 -0.8812 -0.7431
  161DOPC  C31819515   2.969   0.504   6.457  0.5337 -0.1783  1.0258
  161DOPC  H18X19516   3.025   0.410   6.478  0.0087 -0.8729 -0.5749
  161DOPC  H18Y19517   2.862   0.479   6.473  0.4452  0.1915  1.0197
  161DOPC  H18Z19518   2.988   0.529   6.351  0.1594 -2.6429  0.3120
  162DOPC     N19519   1.408   5.001   8.880 -0.1301  0.4150  0.4226
  162DOPC   C1219520   1.556   5.055   8.912  0.1607  0.3697 -0.2304
  162DOPC  H12A19521   1.624   4.985   8.864  0.6121 -0.0978  1.0619
  162DOPC  H12B19522   1.571   5.048   9.018 -1.5521  0.7303  0.0537
  162DOPC   C1319523   1.398   4.868   8.942  0.1623 -0.0035  0.0848
  162DOPC  H13A19524   1.303   4.824   8.913 -0.4297  1.3068 -0.0469
  162DOPC  H13B19525   1.481   4.811   8.904  0.3858  0.5520 -0.2877
  162DOPC  H13C19526   1.398   4.867   9.050 -0.7031  1.2778  0.1227
  162DOPC   C1419527   1.403   4.991   8.730 -0.3118  0.5119  0.8828
  162DOPC  H14A19528   1.480   4.925   8.694 -1.4089 -0.4763  0.3029
  162DOPC  H14B19529   1.314   4.952   8.683  0.7147  0.5813 -1.2427
  162DOPC  H14C19530   1.423   5.089   8.688 -1.6071  1.8649  3.1842
  162DOPC   C1519531   1.302   5.086   8.938 -0.5264 -0.9946  0.4887
  162DOPC  H15A19532   1.325   5.106   9.041 -1.7632 -1.9004  0.9610
  162DOPC  H15B19533   1.198   5.062   8.919 -1.0240  0.3191  1.4374
  162DOPC  H15C19534   1.318   5.182   8.892  0.0145 -0.9844  0.6907
  162DOPC   C1119535   1.599   5.204   8.877  0.2598 -0.5989 -0.1733
  162DOPC  H11A19536   1.517   5.266   8.921 -1.6681 -2.3726 -1.1011
  162DOPC  H11B19537   1.685   5.232   8.941  0.7824 -0.3954 -0.9512
  162DOPC     P19538   1.726   5.183   8.658 -0.2658  0.0688 -0.0450
  162DOPC   O1319539   1.731   5.034   8.658  0.0248 -0.3750  0.0796
  162DOPC   O1419540   1.856   5.236   8.703  0.3388  0.0643  0.0152
  162DOPC   O1219541   1.603   5.235   8.745 -0.1342 -0.2348 -0.5103
  162DOPC   O1119542   1.704   5.230   8.509  0.9845  0.2649 -0.4857
  162DOPC    C119543   1.725   5.354   8.451 -0.5252 -0.5415  0.2631
  162DOPC    HA19544   1.790   5.352   8.360  2.6429  1.6240  2.2570
  162DOPC    HB19545   1.788   5.415   8.518 -0.3696  0.9221 -1.1453
  162DOPC    C219546   1.596   5.432   8.410  0.3869  0.9917 -0.4867
  162DOPC    HS19547   1.536   5.447   8.502  1.4989  0.9514  0.2694
  162DOPC   O2119548   1.511   5.347   8.328 -0.1883  0.3555 -0.2236
  162DOPC   C2119549   1.384   5.368   8.309  0.4657  0.6683 -0.1338
  162DOPC   O2219550   1.311   5.446   8.369 -0.2337  0.4558  0.0095
  162DOPC   C2219551   1.336   5.266   8.200 -0.0333 -0.1649 -0.0456
  162DOPC   H2R19552   1.226   5.253   8.198 -0.2421  1.1414  1.3320
  162DOPC   H2S19553   1.382   5.167   8.221 -0.6426 -0.9243 -2.0463
  162DOPC    C319554   1.638   5.557   8.332  0.1297 -0.5121 -0.6851
  162DOPC    HX19555   1.718   5.609   8.389  0.5045 -1.6543 -0.1368
  162DOPC    HY19556   1.545   5.618   8.325  0.5997  0.1031 -1.7923
  162DOPC   O3119557   1.699   5.524   8.205  0.3597  0.1599 -0.7025
  162DOPC   C3119558   1.744   5.630   8.135 -0.0641  0.2959 -0.6815
  162DOPC   O3219559   1.720   5.749   8.160 -0.3728  1.3043  0.0285
  162DOPC   C3219560   1.823   5.574   8.013 -0.3175  0.1570  0.6750
  162DOPC   H2X19561   1.929   5.598   8.034 -0.3803  0.7430  0.3333
  162DOPC   H2Y19562   1.801   5.465   8.002 -2.1726  0.5477  0.2169
  162DOPC   C2319563   1.386   5.304   8.058 -0.2000 -0.3679  0.0369
  162DOPC   H3R19564   1.352   5.231   7.982 -0.4310  2.4283 -2.7691
  162DOPC   H3S19565   1.496   5.294   8.066 -0.2054  0.5304  1.6467
  162DOPC   C2419566   1.343   5.453   8.027  0.2906  0.5283  0.5895
  162DOPC   H4R19567   1.377   5.530   8.099 -2.7792 -0.3199  3.1681
  162DOPC   H4S19568   1.233   5.449   8.041  0.1020  0.6524 -0.7176
  162DOPC   C2519569   1.370   5.490   7.882  0.1721 -0.1232  0.3508
  162DOPC   H5R19570   1.480   5.488   7.871  0.2802  3.1273  0.0002
  162DOPC   H5S19571   1.327   5.592   7.872  0.7741  0.3546  2.1789
  162DOPC   C2619572   1.315   5.391   7.776  0.1794  0.2276 -0.4215
  162DOPC   H6R19573   1.206   5.395   7.795  0.3385 -0.4984  0.8281
  162DOPC   H6S19574   1.355   5.288   7.785  0.3553  0.3210 -0.1134
  162DOPC   C2719575   1.340   5.447   7.635 -0.1604  0.4630 -0.0642
  162DOPC   H7R19576   1.338   5.558   7.643 -0.4407  0.6112 -1.7426
  162DOPC   H7S19577   1.265   5.412   7.561 -0.3025 -1.1153  0.8072
  162DOPC   C2819578   1.477   5.419   7.572  0.6129  0.2877  0.7201
  162DOPC   H8R19579   1.483   5.308   7.565 -1.2346  0.0178  2.4288
  162DOPC   H8S19580   1.555   5.454   7.644  0.8287 -0.9484  1.1170
  162DOPC   C2919581   1.485   5.489   7.441 -0.3056 -0.5664  0.2971
  162DOPC   H9R19582   1.522   5.592   7.454  1.8661 -1.3475  0.7039
  162DOPC  C21019583   1.462   5.435   7.314 -0.4080  0.8462 -0.4392
  162DOPC  H10R19584   1.460   5.500   7.226 -1.1900  0.8323 -0.4387
  162DOPC  C21119585   1.413   5.293   7.288 -0.3236  0.0933  0.1346
  162DOPC  H11R19586   1.422   5.226   7.376  1.3471 -2.6077 -1.9127
  162DOPC  H11S19587   1.477   5.246   7.210 -0.9575 -1.6097  0.5963
  162DOPC  C21219588   1.265   5.293   7.256 -0.8621 -0.0747 -0.1747
  162DOPC  H12R19589   1.210   5.325   7.346  0.2082  1.6556 -0.0783
  162DOPC  H12S19590   1.244   5.186   7.234 -2.4102 -0.0597  1.0994
  162DOPC  C21319591   1.224   5.387   7.138  0.2176  0.2072 -0.5348
  162DOPC  H13R19592   1.230   5.492   7.172  0.3707 -0.0628  0.3070
  162DOPC  H13S19593   1.116   5.367   7.120  0.2488  1.3794 -2.2194
  162DOPC  C21419594   1.301   5.360   7.009 -0.0407  0.3188  0.0627
  162DOPC  H14R19595   1.387   5.430   7.009 -0.9809  1.5556 -1.4500
  162DOPC  H14S19596   1.223   5.385   6.933 -0.9505 -2.2864  0.0206
  162DOPC  C21519597   1.341   5.224   6.960 -0.2951  0.6837  0.2721
  162DOPC  H15R19598   1.250   5.163   6.942  0.4545 -0.0534 -1.3008
  162DOPC  H15S19599   1.399   5.169   7.037 -1.1380 -1.5626 -0.6318
  162DOPC  C21619600   1.421   5.238   6.833 -0.3190 -0.0743  0.1065
  162DOPC  H16R19601   1.509   5.305   6.843 -0.2318 -0.4790  2.6266
  162DOPC  H16S19602   1.358   5.279   6.751 -1.2357 -1.5445  0.0384
  162DOPC  C21719603   1.487   5.106   6.788 -0.5786  0.5214 -0.4426
  162DOPC  H17R19604   1.405   5.042   6.748  0.2585 -1.0616  0.2737
  162DOPC  H17S19605   1.542   5.051   6.868  1.5326  2.1129 -0.6992
  162DOPC  C21819606   1.576   5.118   6.663 -0.1985  0.0715 -0.0548
  162DOPC  H18R19607   1.672   5.165   6.690 -0.8738  0.4560  1.8200
  162DOPC  H18S19608   1.521   5.167   6.580 -0.3548 -1.1504 -0.7023
  162DOPC  H18T19609   1.614   5.023   6.619 -0.4012  0.2824 -0.6904
  162DOPC   C3319610   1.771   5.635   7.882 -0.1026  0.1870  0.3772
  162DOPC   H3X19611   1.766   5.745   7.890 -0.7723  0.2141 -0.3713
  162DOPC   H3Y19612   1.667   5.598   7.867 -1.5613  3.4064  1.6785
  162DOPC   C3419613   1.864   5.602   7.767 -0.3155  0.4845  0.3506
  162DOPC   H4X19614   1.880   5.493   7.754 -1.3064  0.3629  0.0648
  162DOPC   H4Y19615   1.962   5.649   7.788 -1.1773  2.1217  0.8452
  162DOPC   C3519616   1.809   5.655   7.626  0.0445  0.7223 -0.1490
  162DOPC   H5X19617   1.835   5.763   7.625 -0.6455  0.9041 -1.7536
  162DOPC   H5Y19618   1.700   5.636   7.626  0.3743 -1.4609 -1.2945
  162DOPC   C3619619   1.883   5.589   7.505  0.1378  0.1051  0.1232
  162DOPC   H6X19620   1.992   5.592   7.521  0.2247 -1.5946 -0.0059
  162DOPC   H6Y19621   1.853   5.483   7.516 -2.0800  0.8682  2.3764
  162DOPC   C3719622   1.842   5.646   7.368 -0.3759 -0.8156  0.2242
  162DOPC   H7X19623   1.731   5.639   7.364 -0.3478 -0.6856 -1.0367
  162DOPC   H7Y19624   1.877   5.751   7.364  2.1328 -1.6202 -0.9910
  162DOPC   C3819625   1.903   5.560   7.251  0.0157  0.2809 -0.1005
  162DOPC   H8X19626   1.880   5.455   7.279 -0.7446  0.6452  0.7082
  162DOPC   H8Y19627   2.014   5.570   7.263 -0.1258 -0.1366  2.0166
  162DOPC   C3919628   1.856   5.597   7.119  0.9613 -0.1482 -0.2424
  162DOPC   H9X19629   1.756   5.563   7.087  0.0885  1.5574  0.5298
  162DOPC  C31019630   1.914   5.679   7.032 -0.0300 -0.7955  0.1661
  162DOPC  H10X19631   1.863   5.705   6.939  0.6220 -2.9502 -0.8490
  162DOPC  C31119632   2.061   5.728   7.050 -0.1392 -0.0223  0.3503
  162DOPC  H11X19633   2.124   5.659   7.111 -0.0950 -0.6148 -0.3483
  162DOPC  H11Y19634   2.061   5.819   7.113  0.7656 -1.8520  3.2290
  162DOPC  C31219635   2.114   5.734   6.910 -0.0338  0.2087 -0.1477
  162DOPC  H12X19636   2.216   5.779   6.915 -0.0134  0.0640  2.7086
  162DOPC  H12Y19637   2.063   5.807   6.844 -0.1512 -0.0335 -0.3245
  162DOPC  C31319638   2.125   5.599   6.846 -0.0890 -0.7411  0.3058
  162DOPC  H13X19639   2.202   5.550   6.910  0.0451 -0.2230  0.5512
  162DOPC  H13Y19640   2.027   5.547   6.844 -0.6345  0.2887 -0.7113
  162DOPC  C31419641   2.202   5.601   6.716  0.2107  0.1717 -0.3177
  162DOPC  H14X19642   2.121   5.635   6.648 -2.1507 -1.5419  1.4587
  162DOPC  H14Y19643   2.280   5.680   6.715 -0.2476  0.6679  1.0752
  162DOPC  C31519644   2.268   5.468   6.681 -0.7425 -0.1419  0.4743
  162DOPC  H15X19645   2.196   5.399   6.631  0.7333  0.5628 -2.9209
  162DOPC  H15Y19646   2.295   5.409   6.771 -1.2717 -1.7358 -0.3658
  162DOPC  C31619647   2.400   5.501   6.605  0.0981 -0.3577 -0.2447
  162DOPC  H16X19648   2.379   5.577   6.526  0.2833  0.4459  0.4651
  162DOPC  H16Y19649   2.461   5.548   6.685  0.2793  1.3391 -1.3325
  162DOPC  C31719650   2.472   5.382   6.547  0.3799  0.1254  0.1435
  162DOPC  H17X19651   2.486   5.304   6.625 -3.1480 -0.1139  0.7121
  162DOPC  H17Y19652   2.402   5.339   6.472  1.3305 -0.8357 -0.2133
  162DOPC  C31819653   2.589   5.424   6.468 -0.5647  0.1940  0.6979
  162DOPC  H18X19654   2.671   5.458   6.535  0.0869 -0.3865  0.2015
  162DOPC  H18Y19655   2.641   5.343   6.413 -3.3241  0.5396 -2.7891
  162DOPC  H18Z19656   2.562   5.501   6.392  1.8046  2.2302  1.7566
  163DOPC     N19657   6.572   3.268   8.521 -0.4789  0.7552 -0.2076
  163DOPC   C1219658   6.466   3.268   8.630 -0.4273  0.0415  0.2969
  163DOPC  H12A19659   6.393   3.344   8.605 -0.3045 -0.0578 -0.3761
  163DOPC  H12B19660   6.502   3.312   8.722  0.0145  3.3952 -1.3024
  163DOPC   C1319661   6.683   3.186   8.576 -0.4251  0.4531 -0.3052
  163DOPC  H13A19662   6.757   3.173   8.499  0.4688  1.6175  0.3149
  163DOPC  H13B19663   6.728   3.248   8.653  1.2825  0.9211 -1.6130
  163DOPC  H13C19664   6.639   3.092   8.604 -0.7419  0.9869  1.1026
  163DOPC   C1419665   6.630   3.407   8.496 -0.0952 -0.0855  0.3323
  163DOPC  H14A19666   6.689   3.447   8.577 -3.2043  0.5915  2.4212
  163DOPC  H14B19667   6.693   3.409   8.408  1.2324  0.5948  1.2537
  163DOPC  H14C19668   6.552   3.477   8.472  0.8017  1.0813  0.6958
  163DOPC   C1519669   6.529   3.205   8.394 -0.2528 -0.3279 -0.0792
  163DOPC  H15A19670   6.613   3.192   8.327 -0.3674  0.2579 -0.3445
  163DOPC  H15B19671   6.456   3.271   8.349  0.2545  0.2248 -0.1095
  163DOPC  H15C19672   6.480   3.111   8.415  1.3588 -1.3801 -0.7664
  163DOPC   C1119673   6.400   3.128   8.651  0.5008 -0.0346 -0.4745
  163DOPC  H11A19674   6.486   3.060   8.672  0.0758 -0.5577 -0.3879
  163DOPC  H11B19675   6.341   3.133   8.744  2.1876 -1.5891  0.7564
  163DOPC     P19676   6.167   3.117   8.549  0.1605 -0.1099  0.0791
  163DOPC   O1319677   6.140   3.262   8.532 -0.1835  0.0061 -0.4454
  163DOPC   O1419678   6.118   3.049   8.667  0.4131  0.1235 -0.3026
  163DOPC   O1219679   6.321   3.089   8.537 -0.1739 -0.8022 -0.0325
  163DOPC   O1119680   6.107   3.053   8.419 -0.3232 -0.6064 -0.3326
  163DOPC    C119681   6.130   2.922   8.374 -0.2086 -0.5245  0.5357
  163DOPC    HA19682   6.040   2.891   8.317  0.3972  2.0507 -2.0797
  163DOPC    HB19683   6.157   2.855   8.458  1.8072 -1.6516 -0.9234
  163DOPC    C219684   6.251   2.917   8.278  0.4483  0.4147  0.4800
  163DOPC    HS19685   6.333   2.982   8.318 -0.8302  2.8472 -0.6201
  163DOPC   O2119686   6.211   2.964   8.155 -0.0564  0.3531 -0.0398
  163DOPC   C2119687   6.311   3.005   8.075  0.1253 -0.3864 -0.3683
  163DOPC   O2219688   6.428   3.024   8.112  0.3109 -0.2568 -0.0776
  163DOPC   C2219689   6.251   3.039   7.935  0.4628 -0.5694 -0.0215
  163DOPC   H2R19690   6.290   3.137   7.902 -1.4139 -0.5183 -2.3403
  163DOPC   H2S19691   6.140   3.043   7.940  0.4937  0.2520  0.1327
  163DOPC    C319692   6.297   2.768   8.262 -0.0259  0.9129 -0.4957
  163DOPC    HX19693   6.206   2.713   8.228  0.0000 -0.6011  1.6521
  163DOPC    HY19694   6.323   2.732   8.364 -0.1780  3.4996  0.5217
  163DOPC   O3119695   6.400   2.743   8.162  0.3183  0.4514 -0.1176
  163DOPC   C3119696   6.520   2.756   8.214  0.2548  0.2945  0.4974
  163DOPC   O3219697   6.540   2.797   8.329 -0.0459  0.0850 -0.0198
  163DOPC   C3219698   6.632   2.738   8.108 -0.4012 -0.5434  0.2328
  163DOPC   H2X19699   6.709   2.812   8.140 -2.4142  1.6900  0.1791
  163DOPC   H2Y19700   6.664   2.631   8.111  0.1506 -0.4372 -1.2013
  163DOPC   C2319701   6.299   2.925   7.842 -0.0138  0.1396  0.3506
  163DOPC   H3R19702   6.266   2.824   7.876  0.9998  0.1661  1.4815
  163DOPC   H3S19703   6.409   2.924   7.824  0.1212 -0.7432  1.1480
  163DOPC   C2419704   6.247   2.960   7.705  0.1171 -0.5160  0.3060
  163DOPC   H4R19705   6.248   3.069   7.682  0.9504 -0.6600 -0.4094
  163DOPC   H4S19706   6.145   2.917   7.712  0.2622 -0.8716  0.2352
  163DOPC   C2519707   6.312   2.874   7.599 -0.0149  0.8418 -0.6240
  163DOPC   H5R19708   6.291   2.766   7.616 -0.0954  0.6511 -1.8138
  163DOPC   H5S19709   6.423   2.881   7.592  0.0684 -0.4602 -0.9714
  163DOPC   C2619710   6.266   2.911   7.463 -0.3565 -0.4227 -0.2373
  163DOPC   H6R19711   6.299   3.013   7.435  0.6878 -0.9961 -1.1624
  163DOPC   H6S19712   6.155   2.919   7.469 -0.4072 -0.4026 -1.0592
  163DOPC   C2719713   6.312   2.807   7.360 -0.2558  0.2388 -0.9364
  163DOPC   H7R19714   6.294   2.701   7.390 -0.5246 -0.2329 -2.6651
  163DOPC   H7S19715   6.423   2.811   7.357 -0.2201 -0.6955 -1.3114
  163DOPC   C2819716   6.249   2.817   7.222 -0.2205 -0.2698  0.0172
  163DOPC   H8R19717   6.142   2.833   7.247 -0.4490 -2.3067  0.4636
  163DOPC   H8S19718   6.251   2.718   7.174 -3.6158 -0.8679  0.8129
  163DOPC   C2919719   6.300   2.924   7.126  0.3681  0.0808 -0.6407
  163DOPC   H9R19720   6.248   3.021   7.126 -3.9891 -1.9726 -2.7977
  163DOPC  C21019721   6.393   2.901   7.028  0.3287 -0.7218 -0.3369
  163DOPC  H10R19722   6.438   2.989   6.982 -2.6479  1.6800  0.9643
  163DOPC  C21119723   6.457   2.768   7.004 -0.0815 -0.4008 -0.3897
  163DOPC  H11R19724   6.460   2.720   7.104 -0.9002  1.3446  0.4984
  163DOPC  H11S19725   6.561   2.788   6.968  0.4957 -0.8611  0.9437
  163DOPC  C21219726   6.383   2.677   6.908  0.2901 -0.4698 -0.0510
  163DOPC  H12R19727   6.279   2.659   6.944  0.4786  1.8337  1.8938
  163DOPC  H12S19728   6.436   2.580   6.922  2.2988  0.4033 -1.2614
  163DOPC  C21319729   6.396   2.722   6.757  0.2018  0.6089 -0.8426
  163DOPC  H13R19730   6.379   2.629   6.697  2.1007  0.2494 -0.8773
  163DOPC  H13S19731   6.499   2.762   6.745  0.0543  0.5522 -2.6571
  163DOPC  C21419732   6.302   2.839   6.732 -0.3505 -0.0164 -0.2170
  163DOPC  H14R19733   6.350   2.932   6.769  0.4393  0.1914 -1.6846
  163DOPC  H14S19734   6.205   2.824   6.783  0.5401 -1.0758  1.2661
  163DOPC  C21519735   6.275   2.851   6.580  0.0176 -0.9516 -0.4498
  163DOPC  H15R19736   6.217   2.761   6.550 -1.4477 -0.5756  1.0942
  163DOPC  H15S19737   6.367   2.849   6.519 -0.5357  0.6619 -1.4001
  163DOPC  C21619738   6.203   2.978   6.550 -0.3441 -0.3553 -0.7472
  163DOPC  H16R19739   6.262   3.060   6.598  0.3100 -1.3266  0.1506
  163DOPC  H16S19740   6.099   2.972   6.587 -1.1101 -1.2563 -2.8828
  163DOPC  C21719741   6.201   3.012   6.400 -0.0664 -0.2105  0.1161
  163DOPC  H17R19742   6.164   2.919   6.352  0.0946 -0.6754  0.8712
  163DOPC  H17S19743   6.305   3.034   6.369  0.1035 -0.6329  0.3811
  163DOPC  C21819744   6.114   3.141   6.362 -0.6841 -0.7337  0.4164
  163DOPC  H18R19745   6.101   3.146   6.252 -2.3273 -0.8164  0.5774
  163DOPC  H18S19746   6.163   3.234   6.397 -2.1913  0.0561  0.5209
  163DOPC  H18T19747   6.014   3.137   6.411 -0.6134  1.0465  0.7729
  163DOPC   C3319748   6.590   2.782   7.962 -0.1851 -0.3555 -0.0878
  163DOPC   H3X19749   6.593   2.893   7.956 -2.3318 -0.1836  1.1201
  163DOPC   H3Y19750   6.493   2.736   7.935  0.2150 -1.3227  0.0935
  163DOPC   C3419751   6.692   2.735   7.855  0.6437  0.6683  0.4074
  163DOPC   H4X19752   6.714   2.629   7.877  0.7516  0.8922  1.4348
  163DOPC   H4Y19753   6.780   2.800   7.872  0.3417  2.3495 -3.4047
  163DOPC   C3519754   6.657   2.759   7.711 -0.3442  0.0817  0.2306
  163DOPC   H5X19755   6.628   2.864   7.690 -1.0186 -0.2285 -0.4416
  163DOPC   H5Y19756   6.572   2.693   7.683 -1.5402  0.9295  1.7466
  163DOPC   C3619757   6.780   2.730   7.620  0.3115  0.1451  0.3110
  163DOPC   H6X19758   6.860   2.806   7.632 -0.1827  0.9868 -1.4396
  163DOPC   H6Y19759   6.829   2.632   7.641  0.1010  0.4265  2.2286
  163DOPC   C3719760   6.740   2.742   7.475  0.7211 -0.0138 -0.6000
  163DOPC   H7X19761   6.640   2.696   7.458  0.9431 -0.4524 -0.7445
  163DOPC   H7Y19762   6.723   2.847   7.444 -1.4386 -0.7504 -2.2451
  163DOPC   C3819763   6.837   2.678   7.369  0.1720 -0.6970  0.3948
  163DOPC   H8X19764   6.942   2.710   7.385 -0.3133  1.5507 -0.5495
  163DOPC   H8Y19765   6.809   2.724   7.272 -0.0249  1.9830  1.6312
  163DOPC   C3919766   6.829   2.527   7.370  0.1726  0.0519  0.3521
  163DOPC   H9X19767   6.832   2.473   7.466  1.5733  1.8918  1.4198
  163DOPC  C31019768   6.825   2.450   7.263  0.4734  0.0263  0.1051
  163DOPC  H10X19769   6.829   2.341   7.276 -0.9135 -0.0418  0.0623
  163DOPC  C31119770   6.804   2.484   7.120  0.1725 -0.3434  0.4575
  163DOPC  H11X19771   6.869   2.569   7.091 -0.1689 -0.4150 -0.5301
  163DOPC  H11Y19772   6.699   2.518   7.110  0.3587 -0.2883 -1.5442
  163DOPC  C31219773   6.803   2.376   7.008 -0.0475  0.6615  0.1266
  163DOPC  H12X19774   6.765   2.278   7.045 -0.2656  1.8455  3.3807
  163DOPC  H12Y19775   6.907   2.361   6.972 -0.5317  3.7016 -2.9651
  163DOPC  C31319776   6.718   2.420   6.879 -0.1273 -0.1452  0.3877
  163DOPC  H13X19777   6.610   2.401   6.892 -0.4129  0.9120 -0.2781
  163DOPC  H13Y19778   6.726   2.529   6.858 -1.4424  0.1073  1.1045
  163DOPC  C31419779   6.751   2.341   6.752  0.5019 -0.3011 -0.5805
  163DOPC  H14X19780   6.861   2.330   6.748  0.6045 -0.1758  0.9837
  163DOPC  H14Y19781   6.713   2.238   6.763  1.9319 -0.7523  0.3358
  163DOPC  C31519782   6.690   2.409   6.633  0.1779 -0.2813  0.5454
  163DOPC  H15X19783   6.716   2.516   6.616  0.6854 -0.5524 -0.4672
  163DOPC  H15Y19784   6.579   2.405   6.640  0.1369 -2.9103 -0.4695
  163DOPC  C31619785   6.722   2.349   6.489  0.8758  0.3565 -0.8075
  163DOPC  H16X19786   6.706   2.239   6.495  0.8320  0.4123  2.7375
  163DOPC  H16Y19787   6.644   2.374   6.414 -0.2396 -0.6821 -0.0537
  163DOPC  C31719788   6.858   2.378   6.432  0.0148  0.8406  0.0190
  163DOPC  H17X19789   6.868   2.487   6.414  0.7870  0.6629 -0.6735
  163DOPC  H17Y19790   6.934   2.342   6.505  0.0936 -1.4189 -1.1212
  163DOPC  C31819791   6.892   2.310   6.296  0.9322 -0.6322  0.3098
  163DOPC  H18X19792   6.910   2.202   6.314 -2.8780 -1.0488  2.7884
  163DOPC  H18Y19793   6.802   2.314   6.231 -1.1269  0.8906  3.0206
  163DOPC  H18Z19794   6.982   2.352   6.247  0.4849  0.6241  0.5230
  164DOPC     N19795   1.483   0.379   9.162 -0.3691  0.3049 -0.1605
  164DOPC   C1219796   1.516   0.283   9.051 -0.7804  1.1065  0.1228
  164DOPC  H12A19797   1.584   0.210   9.093 -1.3085  0.4946 -0.0575
  164DOPC  H12B19798   1.561   0.331   8.966  3.0396 -1.3804  0.4798
  164DOPC   C1319799   1.443   0.312   9.288 -0.2356 -0.1529 -0.1795
  164DOPC  H13A19800   1.512   0.235   9.321 -0.2719  0.0027  0.2719
  164DOPC  H13B19801   1.441   0.382   9.370  0.4861  0.4930 -0.7018
  164DOPC  H13C19802   1.342   0.272   9.284 -0.9445  1.6711 -1.8548
  164DOPC   C1419803   1.376   0.483   9.139  0.2998  0.0442 -0.3312
  164DOPC  H14A19804   1.372   0.569   9.205 -3.2242 -0.0639 -0.2098
  164DOPC  H14B19805   1.376   0.533   9.043  0.2024  0.0947 -0.3063
  164DOPC  H14C19806   1.279   0.437   9.155  0.1815 -0.3213 -1.9477
  164DOPC   C1519807   1.606   0.463   9.205  0.4727  0.0472 -0.5008
  164DOPC  H15A19808   1.654   0.517   9.124  1.0813  0.3283  0.0410
  164DOPC  H15B19809   1.682   0.400   9.249  0.4957 -0.0776 -0.7187
  164DOPC  H15C19810   1.563   0.527   9.280 -0.2366 -2.0005  0.9227
  164DOPC   C1119811   1.405   0.191   8.995 -0.2207 -0.3270 -0.0178
  164DOPC  H11A19812   1.357   0.125   9.071 -1.9458 -1.5998 -2.0978
  164DOPC  H11B19813   1.331   0.260   8.949  1.7799  1.2681 -0.9787
  164DOPC     P19814   1.370  -0.001   8.823 -0.7750 -0.3896  0.1763
  164DOPC   O1319815   1.363  -0.121   8.909 -0.0294 -0.0181 -0.0465
  164DOPC   O1419816   1.424  -0.011   8.685 -0.1800  0.4628  0.4629
  164DOPC   O1219817   1.460   0.111   8.893 -0.2743 -0.9283 -0.2041
  164DOPC   O1119818   1.232   0.067   8.804  0.3216 -0.0830 -0.3459
  164DOPC    C119819   1.143   0.027   8.699 -0.3344 -0.4550  0.0193
  164DOPC    HA19820   1.038   0.029   8.734 -0.3649  0.9353 -0.0997
  164DOPC    HB19821   1.162  -0.077   8.663 -0.7759  0.4352 -3.0451
  164DOPC    C219822   1.150   0.116   8.571  0.0227  0.4032 -0.0499
  164DOPC    HS19823   1.253   0.103   8.529 -1.1114 -2.0652 -2.3981
  164DOPC   O2119824   1.119   0.256   8.595 -0.6853  0.0877  0.2348
  164DOPC   C2119825   1.227   0.328   8.628  0.2134  0.0476  0.5250
  164DOPC   O2219826   1.344   0.293   8.641 -0.3498  0.5836  0.1628
  164DOPC   C2219827   1.175   0.474   8.631 -0.0109  0.8550  0.5984
  164DOPC   H2R19828   1.204   0.513   8.731  2.9381 -0.8012  0.4807
  164DOPC   H2S19829   1.065   0.468   8.616  0.2273 -0.6350 -0.8568
  164DOPC    C319830   1.058   0.067   8.453  0.6619 -0.2672 -0.1385
  164DOPC    HX19831   0.957   0.090   8.494  0.6133 -1.2641  0.3169
  164DOPC    HY19832   1.061  -0.042   8.432  0.6281 -0.2846 -0.0549
  164DOPC   O3119833   1.064   0.148   8.334 -0.2919 -0.0702 -0.2876
  164DOPC   C3119834   1.160   0.097   8.255  0.0633 -0.8539  0.2656
  164DOPC   O3219835   1.232   0.003   8.280 -0.0109  0.2134  0.0230
  164DOPC   C3219836   1.158   0.171   8.123 -1.0449  0.0974  0.2191
  164DOPC   H2X19837   1.051   0.175   8.096 -1.0911 -1.5797  0.0463
  164DOPC   H2Y19838   1.190   0.273   8.154  2.4308  0.1368 -2.8160
  164DOPC   C2319839   1.225   0.559   8.513  0.3957  0.0164 -0.4449
  164DOPC   H3R19840   1.335   0.555   8.505  0.6121  0.4156  1.7628
  164DOPC   H3S19841   1.208   0.665   8.542 -1.2644  0.0053 -1.2087
  164DOPC   C2419842   1.158   0.527   8.374 -0.4330 -0.7408 -0.5173
  164DOPC   H4R19843   1.047   0.518   8.374 -0.3802 -1.8043 -2.2564
  164DOPC   H4S19844   1.197   0.434   8.328  1.9345 -0.6333  1.0894
  164DOPC   C2519845   1.175   0.646   8.269  0.4749  0.2329 -0.1214
  164DOPC   H5R19846   1.284   0.671   8.272  0.3487  1.4298 -3.0324
  164DOPC   H5S19847   1.116   0.730   8.311 -0.6431 -0.5988  0.0280
  164DOPC   C2619848   1.155   0.607   8.123 -0.9342 -0.3286 -0.0752
  164DOPC   H6R19849   1.225   0.527   8.091 -0.3889 -0.4160  1.2487
  164DOPC   H6S19850   1.171   0.691   8.053 -1.8321 -1.0125 -1.1451
  164DOPC   C2719851   1.021   0.549   8.088 -0.1277  0.4112  0.3359
  164DOPC   H7R19852   0.944   0.603   8.146  1.2041  1.5879  1.0617
  164DOPC   H7S19853   1.022   0.447   8.133 -1.7108  0.6584  1.0075
  164DOPC   C2819854   1.003   0.543   7.935 -0.6722  0.3374 -0.2463
  164DOPC   H8R19855   0.922   0.469   7.920  0.7574 -0.7980 -3.3090
  164DOPC   H8S19856   1.091   0.489   7.893 -0.9444  0.5440 -1.1113
  164DOPC   C2919857   0.979   0.674   7.864  0.4137  0.8082  0.3548
  164DOPC   H9R19858   0.901   0.736   7.912  0.5189  0.6868  0.6840
  164DOPC  C21019859   1.049   0.715   7.762  0.6370  0.5984  0.4985
  164DOPC  H10R19860   1.031   0.821   7.741  1.7144  1.2834  2.6959
  164DOPC  C21119861   1.149   0.636   7.687 -0.1396 -0.1943 -0.1914
  164DOPC  H11R19862   1.130   0.527   7.688 -0.2413 -0.1748  0.0440
  164DOPC  H11S19863   1.249   0.661   7.729 -0.2287 -1.3638  0.7503
  164DOPC  C21219864   1.155   0.685   7.543 -0.3605 -0.0805  0.2365
  164DOPC  H12R19865   1.229   0.624   7.487 -0.0950  0.4931 -0.0478
  164DOPC  H12S19866   1.203   0.785   7.539 -0.1411 -0.2240 -1.3645
  164DOPC  C21319867   1.021   0.686   7.468  0.1741  0.0414  0.3006
  164DOPC  H13R19868   0.963   0.769   7.513 -0.3998 -0.4048  0.4042
  164DOPC  H13S19869   0.963   0.592   7.482  2.1704 -1.0813  1.4302
  164DOPC  C21419870   1.051   0.714   7.320  0.4779 -0.3169  0.4825
  164DOPC  H14R19871   1.129   0.793   7.325  2.6907 -2.4490  2.3286
  164DOPC  H14S19872   0.961   0.757   7.271 -0.4435 -1.9627  0.6738
  164DOPC  C21519873   1.106   0.588   7.246 -0.2415  0.1428 -0.0610
  164DOPC  H15R19874   1.021   0.519   7.225  0.6243 -0.2259 -2.6616
  164DOPC  H15S19875   1.186   0.546   7.311 -1.3549 -0.9402  0.6418
  164DOPC  C21619876   1.156   0.609   7.106  0.0812  0.3306  0.2969
  164DOPC  H16R19877   1.207   0.520   7.061  1.9830  0.3974  2.1492
  164DOPC  H16S19878   1.236   0.686   7.103 -1.7306  2.3990  2.0789
  164DOPC  C21719879   1.048   0.658   7.009  0.2389  0.4472 -0.5256
  164DOPC  H17R19880   1.000   0.746   7.057 -0.6818  0.3663 -1.2473
  164DOPC  H17S19881   0.973   0.578   6.989 -0.1624  1.1247 -1.8772
  164DOPC  C21819882   1.100   0.697   6.870  0.2476 -0.3216  0.1387
  164DOPC  H18R19883   1.147   0.614   6.813  0.9855 -0.2381  0.6036
  164DOPC  H18S19884   1.178   0.775   6.886 -0.7760  0.3165  2.4830
  164DOPC  H18T19885   1.023   0.749   6.810  0.4520 -0.8213 -0.5674
  164DOPC   C3319886   1.244   0.116   8.006  0.0492  0.2922 -0.0333
  164DOPC   H3X19887   1.198   0.024   7.967  2.4860 -1.3377  0.6866
  164DOPC   H3Y19888   1.340   0.097   8.059 -0.6418 -0.8060  0.8571
  164DOPC   C3419889   1.259   0.226   7.903  0.8345  0.0799 -0.4064
  164DOPC   H4X19890   1.308   0.316   7.946  0.2520  1.0361 -1.6773
  164DOPC   H4Y19891   1.158   0.259   7.870  0.4500  0.4143  1.0388
  164DOPC   C3519892   1.344   0.175   7.778  0.2632 -0.3708 -0.3213
  164DOPC   H5X19893   1.421   0.100   7.806 -1.6892 -1.9563  1.0378
  164DOPC   H5Y19894   1.393   0.272   7.751 -1.5276  0.3120 -1.2530
  164DOPC   C3619895   1.258   0.120   7.664 -0.3601  0.9001  0.0541
  164DOPC   H6X19896   1.323   0.047   7.611 -1.3528  1.5224 -2.1569
  164DOPC   H6Y19897   1.179   0.056   7.708  1.8149 -0.7840  1.7777
  164DOPC   C3719898   1.202   0.225   7.578 -0.2732 -0.6457 -0.2984
  164DOPC   H7X19899   1.145   0.297   7.641 -0.8615 -1.1156 -0.2771
  164DOPC   H7Y19900   1.281   0.290   7.535  0.7355 -0.8763  1.1449
  164DOPC   C3819901   1.111   0.166   7.470  0.8214 -0.3409 -0.0819
  164DOPC   H8X19902   1.080   0.254   7.411  0.9518 -0.4264 -0.2781
  164DOPC   H8Y19903   1.019   0.137   7.526  0.0535  0.7415 -0.7444
  164DOPC   C3919904   1.169   0.049   7.388  0.4310  0.2623  0.1593
  164DOPC   H9X19905   1.169  -0.047   7.442 -2.2371 -1.4405 -2.6005
  164DOPC  C31019906   1.212   0.045   7.260 -0.3038 -0.2849  0.0784
  164DOPC  H10X19907   1.262  -0.047   7.226  1.1034 -0.2465  1.9252
  164DOPC  C31119908   1.222   0.165   7.165  0.3016 -0.0754  0.5274
  164DOPC  H11X19909   1.307   0.233   7.187 -0.1194  0.0999  1.6554
  164DOPC  H11Y19910   1.136   0.233   7.176 -0.2469 -0.0874 -2.6817
  164DOPC  C31219911   1.227   0.115   7.017  0.4484  0.5972  0.1850
  164DOPC  H12X19912   1.152   0.035   6.995  0.3119  0.5904  0.6623
  164DOPC  H12Y19913   1.330   0.079   6.999  0.4107  1.4132 -1.9765
  164DOPC  C31319914   1.197   0.219   6.910  0.2275 -0.0402  0.6714
  164DOPC  H13X19915   1.091   0.252   6.912 -0.1852 -1.3108  0.9922
  164DOPC  H13Y19916   1.262   0.309   6.904 -1.1343  0.9001 -1.1051
  164DOPC  C31419917   1.208   0.165   6.765  0.3058  0.0892 -0.1922
  164DOPC  H14X19918   1.187   0.253   6.702 -1.9235  1.9359  2.8711
  164DOPC  H14Y19919   1.139   0.079   6.752 -0.8768  0.3104  3.4198
  164DOPC  C31519920   1.343   0.109   6.725 -0.0288 -0.3224 -0.1574
  164DOPC  H15X19921   1.356   0.006   6.764  1.0705 -0.5552 -1.0889
  164DOPC  H15Y19922   1.416   0.177   6.773 -0.6244 -0.8105  1.4851
  164DOPC  C31619923   1.355   0.098   6.572  0.2863  0.0324  0.9036
  164DOPC  H16X19924   1.276   0.027   6.544 -0.6445  1.1953  0.5010
  164DOPC  H16Y19925   1.338   0.192   6.516  2.8284 -1.1001 -2.0576
  164DOPC  C31719926   1.485   0.046   6.515 -0.0277 -0.2097  0.6701
  164DOPC  H17X19927   1.551   0.110   6.578 -1.7715  1.9667  0.3983
  164DOPC  H17Y19928   1.516  -0.055   6.551  0.8633 -0.1940 -0.0146
  164DOPC  C31819929   1.527   0.057   6.362  0.8216  0.5001 -0.1015
  164DOPC  H18X19930   1.628   0.012   6.357 -0.1534 -2.2150  1.9445
  164DOPC  H18Y19931   1.459  -0.010   6.305 -1.5721  1.2362  1.7122
  164DOPC  H18Z19932   1.517   0.159   6.319  0.6191  1.2700  1.6474
  165DOPC     N19933   5.332   0.325   8.613 -0.5523 -0.0161  0.4341
  165DOPC   C1219934   5.254   0.453   8.586 -0.0182  0.8906  0.2025
  165DOPC  H12A19935   5.200   0.478   8.676 -0.0570 -0.0772  0.4641
  165DOPC  H12B19936   5.176   0.422   8.517  0.8822 -0.1117 -0.3949
  165DOPC   C1319937   5.409   0.283   8.497 -0.1015  0.0031 -0.5995
  165DOPC  H13A19938   5.474   0.201   8.524  0.4841 -0.3169 -2.7303
  165DOPC  H13B19939   5.345   0.262   8.412 -2.1965  0.1046  0.8625
  165DOPC  H13C19940   5.475   0.366   8.479 -2.1122  1.7153 -0.4293
  165DOPC   C1419941   5.238   0.215   8.642  1.1435 -0.2140 -0.4996
  165DOPC  H14A19942   5.273   0.115   8.662  0.9728 -0.7834 -2.8009
  165DOPC  H14B19943   5.193   0.245   8.736 -0.3915 -0.7105 -1.0494
  165DOPC  H14C19944   5.163   0.217   8.565  0.3737  0.4321  0.2450
  165DOPC   C1519945   5.434   0.352   8.719  0.0874 -0.0611  0.7224
  165DOPC  H15A19946   5.484   0.445   8.695 -0.9490  0.1153 -0.9049
  165DOPC  H15B19947   5.511   0.276   8.720  0.8022  0.6472  0.4718
  165DOPC  H15C19948   5.386   0.356   8.816 -1.9886 -0.2275 -0.2586
  165DOPC   C1119949   5.322   0.576   8.530 -0.8388 -0.6537 -0.1971
  165DOPC  H11A19950   5.331   0.563   8.420 -0.4808 -0.9385 -0.1350
  165DOPC  H11B19951   5.252   0.661   8.544  0.6181  0.3184  1.6162
  165DOPC     P19952   5.470   0.761   8.642 -0.4104  0.2955  0.5654
  165DOPC   O1319953   5.606   0.781   8.690  0.1871 -0.1563  0.0737
  165DOPC   O1419954   5.364   0.796   8.735  0.0276 -0.1242 -0.7123
  165DOPC   O1219955   5.455   0.609   8.589  0.0286  0.3737  0.0054
  165DOPC   O1119956   5.445   0.838   8.504  0.0595 -1.2349 -0.8538
  165DOPC    C119957   5.504   0.806   8.382 -0.0510 -0.2826  0.1179
  165DOPC    HA19958   5.443   0.742   8.316  1.9676 -0.4523 -1.7039
  165DOPC    HB19959   5.606   0.762   8.385  0.6224  0.8891 -2.7628
  165DOPC    C219960   5.541   0.930   8.297 -0.5129 -0.4342 -0.3838
  165DOPC    HS19961   5.586   1.000   8.371  0.3188 -1.3007 -0.0485
  165DOPC   O2119962   5.419   0.968   8.231 -0.2783 -0.3191 -0.3178
  165DOPC   C2119963   5.401   1.105   8.219  0.9354  0.7363 -0.1793
  165DOPC   O2219964   5.475   1.186   8.273  0.4034  0.3279 -0.2454
  165DOPC   C2219965   5.275   1.147   8.139 -0.2779  0.2321  0.6713
  165DOPC   H2R19966   5.206   1.213   8.196 -3.0859 -1.0281 -1.0569
  165DOPC   H2S19967   5.219   1.054   8.114  0.2931  0.0076  0.1964
  165DOPC    C319968   5.646   0.891   8.189  1.1902 -0.8148 -0.3296
  165DOPC    HX19969   5.599   0.800   8.147  1.0410 -0.4819 -0.9066
  165DOPC    HY19970   5.742   0.857   8.233  0.2534 -1.9493  0.9234
  165DOPC   O3119971   5.658   0.991   8.090 -0.5773  0.6797 -0.0339
  165DOPC   C3119972   5.754   1.084   8.098 -0.0815 -0.6900  0.3923
  165DOPC   O3219973   5.842   1.085   8.183 -0.7443  0.6967  0.1911
  165DOPC   C3219974   5.725   1.188   7.983  0.1710 -0.2536 -1.2789
  165DOPC   H2X19975   5.667   1.131   7.907 -0.7602 -2.9292  1.2384
  165DOPC   H2Y19976   5.675   1.272   8.037  1.0708 -0.1712 -0.5542
  165DOPC   C2319977   5.327   1.215   8.007 -0.4204 -0.3344 -0.2176
  165DOPC   H3R19978   5.405   1.291   8.030  1.1786 -1.2462 -2.3579
  165DOPC   H3S19979   5.246   1.283   7.973 -0.9527  0.8408  2.9981
  165DOPC   C2419980   5.364   1.122   7.897  0.4507  0.8093 -0.1092
  165DOPC   H4R19981   5.272   1.063   7.878 -0.5201  1.6387  1.8236
  165DOPC   H4S19982   5.439   1.053   7.942 -0.5186 -1.5406 -1.8283
  165DOPC   C2519983   5.416   1.181   7.767  0.4155 -0.1301 -0.5225
  165DOPC   H5R19984   5.503   1.249   7.779 -0.4740  0.8463  0.6619
  165DOPC   H5S19985   5.339   1.243   7.717  0.0535 -1.2658 -1.4275
  165DOPC   C2619986   5.450   1.071   7.664 -0.4530 -0.8372 -0.1428
  165DOPC   H6R19987   5.360   1.007   7.649  0.4571 -2.3772  0.6401
  165DOPC   H6S19988   5.527   1.001   7.703  0.3931 -0.7929 -1.6505
  165DOPC   C2719989   5.483   1.124   7.526  0.9222  0.3334  0.2157
  165DOPC   H7R19990   5.551   1.212   7.521 -1.4293  2.2239 -0.6076
  165DOPC   H7S19991   5.383   1.162   7.495 -1.0604 -0.3118  5.0009
  165DOPC   C2819992   5.542   1.025   7.428 -0.2720  0.7026 -0.4183
  165DOPC   H8R19993   5.476   0.936   7.436 -1.0830  1.2172 -1.1713
  165DOPC   H8S19994   5.647   1.005   7.456 -0.1785  2.9072  1.0634
  165DOPC   C2919995   5.529   1.076   7.288 -0.6315 -0.1458 -0.0152
  165DOPC   H9R19996   5.546   1.185   7.287  1.5621 -0.4455 -1.0475
  165DOPC  C21019997   5.547   1.006   7.172  0.3915  0.2245  0.1457
  165DOPC  H10R19998   5.545   1.057   7.075 -2.5729 -1.0157 -0.5629
  165DOPC  C21119999   5.578   0.862   7.167 -0.4016  0.7288 -0.0739
  165DOPC  H11R20000   5.548   0.815   7.072 -0.7377 -0.4483  0.5889
  165DOPC  H11S20001   5.527   0.813   7.253  1.2081 -0.2953  0.3375
  165DOPC  C21220002   5.729   0.861   7.177 -0.2670  0.3530 -0.0528
  165DOPC  H12R20003   5.769   0.934   7.250  0.3976 -0.1960  0.1509
  165DOPC  H12S20004   5.776   0.878   7.078 -0.8296  0.0963 -0.3689
  165DOPC  C21320005   5.777   0.727   7.237  0.8449 -0.1720  0.2601
  165DOPC  H13R20006   5.887   0.714   7.221  1.0193 -0.7448  1.7611
  165DOPC  H13S20007   5.731   0.636   7.193 -1.4034  1.7889 -1.7259
  165DOPC  C21420008   5.748   0.723   7.387 -0.2622  0.5464  0.0028
  165DOPC  H14R20009   5.647   0.691   7.419 -0.2162 -1.3608 -1.5983
  165DOPC  H14S20010   5.781   0.814   7.442  0.2235 -0.2727  1.1088
  165DOPC  C21520011   5.843   0.623   7.458  0.0714 -0.0619  0.4308
  165DOPC  H15R20012   5.945   0.666   7.468  0.3557 -0.3938 -0.9307
  165DOPC  H15S20013   5.838   0.523   7.412  0.1094  0.4020 -0.6025
  165DOPC  C21620014   5.809   0.606   7.608  0.0844 -0.0498  0.6428
  165DOPC  H16R20015   5.873   0.529   7.656  0.2319 -0.6270 -0.4547
  165DOPC  H16S20016   5.705   0.569   7.616 -0.2751  0.3099 -1.7201
  165DOPC  C21720017   5.812   0.733   7.696 -0.2140  0.6183  0.4413
  165DOPC  H17R20018   5.719   0.791   7.676 -1.0183 -0.0053  2.2037
  165DOPC  H17S20019   5.899   0.801   7.682 -1.4441  2.4942  1.4463
  165DOPC  C21820020   5.807   0.707   7.847 -0.4522 -0.5409 -0.6135
  165DOPC  H18R20021   5.885   0.633   7.872  1.1005  1.6594  1.5267
  165DOPC  H18S20022   5.713   0.669   7.893  0.1465  2.5892  3.8543
  165DOPC  H18T20023   5.824   0.808   7.889  2.0595 -1.0231 -0.3592
  165DOPC   C3320024   5.853   1.258   7.931  0.3450  0.7068 -0.2519
  165DOPC   H3X20025   5.918   1.280   8.019 -1.9076  1.8988  1.2132
  165DOPC   H3Y20026   5.830   1.346   7.869  0.6880  1.9801  1.3635
  165DOPC   C3420027   5.917   1.155   7.838 -0.2722  0.0230 -0.2574
  165DOPC   H4X20028   5.908   1.052   7.880 -1.4509  0.1069 -0.2780
  165DOPC   H4Y20029   6.025   1.181   7.838  0.2665 -1.9687 -1.0117
  165DOPC   C3520030   5.881   1.154   7.686 -0.1053  0.6139 -0.3439
  165DOPC   H5X20031   5.865   1.257   7.649 -2.5035  0.3143 -0.2903
  165DOPC   H5Y20032   5.781   1.112   7.665 -0.3149  1.0778 -0.2879
  165DOPC   C3620033   5.986   1.084   7.595  0.0297 -0.3259 -0.2914
  165DOPC   H6X20034   6.077   1.129   7.638  0.8103 -1.2743 -0.9027
  165DOPC   H6Y20035   5.994   0.974   7.607  2.4840 -0.3497 -1.5997
  165DOPC   C3720036   5.954   1.121   7.449 -0.5388 -0.1629 -0.4151
  165DOPC   H7X20037   5.947   1.230   7.427 -0.9208 -0.3354 -1.1577
  165DOPC   H7Y20038   5.851   1.085   7.429 -1.3305  2.3112 -1.1337
  165DOPC   C3820039   6.044   1.050   7.349 -0.6776  0.0091  0.5665
  165DOPC   H8X20040   6.004   1.088   7.252  1.0269 -2.2654 -1.1370
  165DOPC   H8Y20041   6.027   0.941   7.356  0.6461 -0.2083  0.6131
  165DOPC   C3920042   6.188   1.079   7.364  0.6561 -0.5003  0.6609
  165DOPC   H9X20043   6.239   1.069   7.461  2.2661  3.9539  0.4911
  165DOPC  C31020044   6.266   1.113   7.252 -0.2247  0.2254  0.3240
  165DOPC  H10X20045   6.376   1.114   7.263 -0.3266  0.2907  1.4218
  165DOPC  C31120046   6.211   1.140   7.109 -0.3147  0.2315 -0.0021
  165DOPC  H11X20047   6.278   1.212   7.058 -0.9736 -0.7706 -2.4045
  165DOPC  H11Y20048   6.113   1.192   7.110 -2.1982 -3.0388 -0.6142
  165DOPC  C31220049   6.176   1.015   7.027 -0.6078  0.1148  0.2989
  165DOPC  H12X20050   6.100   0.949   7.073 -1.0309 -2.1995 -3.3524
  165DOPC  H12Y20051   6.265   0.948   7.029 -0.7753 -0.1686 -1.0805
  165DOPC  C31320052   6.154   1.036   6.876 -0.1027 -0.4532  0.3357
  165DOPC  H13X20053   6.247   1.053   6.819  0.4802 -0.2243  1.3294
  165DOPC  H13Y20054   6.101   0.944   6.844 -2.1609  0.2360  1.5115
  165DOPC  C31420055   6.063   1.147   6.823 -0.7172  0.2230 -0.1789
  165DOPC  H14X20056   6.090   1.238   6.881 -1.7966  1.0094 -0.8765
  165DOPC  H14Y20057   6.087   1.168   6.717  0.3750  0.2503  0.0611
  165DOPC  C31520058   5.914   1.124   6.816  0.4581 -0.0830  0.7778
  165DOPC  H15X20059   5.858   1.220   6.808  1.5743  0.4513 -2.6659
  165DOPC  H15Y20060   5.873   1.067   6.901  4.4896 -3.1170  0.9689
  165DOPC  C31620061   5.866   1.042   6.691 -0.0472 -0.4237  0.4286
  165DOPC  H16X20062   5.843   1.101   6.599  3.1712  1.0488  0.4220
  165DOPC  H16Y20063   5.940   0.969   6.652  1.1675  0.6463  0.6244
  165DOPC  C31720064   5.737   0.960   6.716  0.3994  0.0906  0.5229
  165DOPC  H17X20065   5.711   0.916   6.618 -0.2577  3.5425 -1.0233
  165DOPC  H17Y20066   5.763   0.881   6.789 -0.6504  1.3687  2.3528
  165DOPC  C31820067   5.616   1.029   6.772 -0.4894 -0.0241  0.0158
  165DOPC  H18X20068   5.533   0.960   6.800  0.6931 -2.1564 -1.4125
  165DOPC  H18Y20069   5.637   1.081   6.867 -0.4178  0.4342 -0.2505
  165DOPC  H18Z20070   5.580   1.103   6.697  0.3577 -1.7973 -2.2808
  166DOPC     N20071   6.480   1.154   8.812 -0.5356 -0.5856  0.1940
  166DOPC   C1220072   6.409   1.263   8.736  0.1100  1.0380 -0.4945
  166DOPC  H12A20073   6.457   1.358   8.745  1.3617  0.2066  3.4287
  166DOPC  H12B20074   6.315   1.290   8.783  0.0081  1.7672 -1.1032
  166DOPC   C1320075   6.616   1.126   8.754  0.7041  0.2038  0.6924
  166DOPC  H13A20076   6.663   1.052   8.817  0.6831 -0.3759  0.0438
  166DOPC  H13B20077   6.617   1.068   8.663 -1.4955 -0.6253  1.1543
  166DOPC  H13C20078   6.674   1.215   8.733  0.1512  0.2190 -0.9200
  166DOPC   C1420079   6.407   1.024   8.811  0.9686 -0.5698  0.2983
  166DOPC  H14A20080   6.391   0.985   8.711  0.4220  0.6369 -0.0986
  166DOPC  H14B20081   6.466   0.953   8.867 -0.5560 -1.6918  0.5452
  166DOPC  H14C20082   6.314   1.032   8.865  1.6039 -2.0292  1.6854
  166DOPC   C1520083   6.483   1.198   8.959 -0.6653  0.5603  0.4990
  166DOPC  H15A20084   6.555   1.276   8.980  1.2386 -1.3756  1.5502
  166DOPC  H15B20085   6.508   1.115   9.023  1.4832  0.3538 -0.5325
  166DOPC  H15C20086   6.385   1.234   8.988 -0.7851  1.2678 -0.7083
  166DOPC   C1120087   6.384   1.233   8.590 -0.2702 -0.4429 -0.3521
  166DOPC  H11A20088   6.476   1.202   8.537  1.3632  2.1407  0.7866
  166DOPC  H11B20089   6.308   1.153   8.573  0.2519 -0.7621 -1.2177
  166DOPC     P20090   6.198   1.398   8.520  0.0985  0.5811  0.3296
  166DOPC   O1320091   6.186   1.543   8.501 -0.7254 -0.7158  0.3148
  166DOPC   O1420092   6.111   1.345   8.625 -0.3743 -0.3464 -0.0129
  166DOPC   O1220093   6.353   1.363   8.535 -0.4689 -0.3800 -0.0264
  166DOPC   O1120094   6.157   1.326   8.378 -0.1897  0.0576 -0.6287
  166DOPC    C120095   6.256   1.295   8.278 -0.6324 -0.0240  0.0566
  166DOPC    HA20096   6.207   1.226   8.207  3.6227 -1.8186 -1.4899
  166DOPC    HB20097   6.344   1.233   8.308  0.2068  0.5845 -1.0758
  166DOPC    C220098   6.304   1.414   8.198 -0.3050 -1.2753  0.4477
  166DOPC    HS20099   6.316   1.501   8.266  0.9740 -0.8770 -0.2548
  166DOPC   O2120100   6.209   1.445   8.096  0.5022  0.3459 -0.4627
  166DOPC   C2120101   6.216   1.572   8.044  0.3217  0.5754  0.4177
  166DOPC   O2220102   6.297   1.654   8.073  0.2713 -0.3438  0.1752
  166DOPC   C2220103   6.128   1.585   7.923  0.7098 -0.7315 -0.3123
  166DOPC   H2R20104   6.055   1.664   7.950  1.1404 -0.4385  0.0282
  166DOPC   H2S20105   6.068   1.493   7.907 -0.3937 -0.4039  1.6083
  166DOPC    C320106   6.444   1.387   8.139 -0.0754  0.4602  0.5771
  166DOPC    HX20107   6.521   1.373   8.217 -0.0649  0.6202  0.5958
  166DOPC    HY20108   6.475   1.475   8.080  0.0839 -0.1541 -0.2740
  166DOPC   O3120109   6.440   1.260   8.062  0.3036 -0.2142  0.3517
  166DOPC   C3120110   6.436   1.272   7.929  0.7870  1.0634 -0.3184
  166DOPC   O3220111   6.453   1.371   7.865 -0.0289 -0.5014  0.6212
  166DOPC   C3220112   6.395   1.139   7.866 -0.3850  0.7482 -0.5621
  166DOPC   H2X20113   6.426   1.051   7.927 -3.1020 -0.2018 -0.4303
  166DOPC   H2Y20114   6.284   1.132   7.864 -0.4908  2.0909 -0.3611
  166DOPC   C2320115   6.209   1.619   7.789  0.6652  0.5685 -0.5123
  166DOPC   H3R20116   6.305   1.562   7.787 -1.0516 -2.5482 -0.5006
  166DOPC   H3S20117   6.218   1.729   7.803 -2.7699  1.2757 -2.7065
  166DOPC   C2420118   6.124   1.593   7.661  0.2622 -0.2979 -0.1027
  166DOPC   H4R20119   6.145   1.678   7.592 -0.2010 -0.4329 -0.4158
  166DOPC   H4S20120   6.015   1.598   7.683  0.2821  0.7403 -0.1698
  166DOPC   C2520121   6.163   1.455   7.599  0.2363  0.1494  0.3723
  166DOPC   H5R20122   6.090   1.379   7.636 -2.1504  1.2078 -1.8771
  166DOPC   H5S20123   6.266   1.424   7.627  1.2989  2.0499 -1.2179
  166DOPC   C2620124   6.172   1.463   7.441 -0.1709  0.1059  0.0634
  166DOPC   H6R20125   6.075   1.504   7.405 -0.6424  0.0433  1.2380
  166DOPC   H6S20126   6.169   1.358   7.406  0.6191 -0.1230  0.6593
  166DOPC   C2720127   6.297   1.535   7.391 -0.3865 -0.0191  0.4323
  166DOPC   H7R20128   6.388   1.519   7.453  1.0261  1.3375 -1.1929
  166DOPC   H7S20129   6.268   1.642   7.402 -1.0098  0.3149 -3.2191
  166DOPC   C2820130   6.335   1.485   7.256 -0.6111  0.7925  0.2479
  166DOPC   H8R20131   6.247   1.490   7.189 -0.8536  1.8556  0.6295
  166DOPC   H8S20132   6.365   1.378   7.270 -0.2132  0.8322 -0.2903
  166DOPC   C2920133   6.452   1.563   7.204  0.3844  0.4152 -0.1153
  166DOPC   H9R20134   6.520   1.593   7.285  2.1413 -1.2352 -0.8961
  166DOPC  C21020135   6.474   1.593   7.074 -0.1901 -0.2352  0.2386
  166DOPC  H10R20136   6.559   1.656   7.044  1.4247 -2.3558  0.1061
  166DOPC  C21120137   6.400   1.541   6.949  0.1399 -0.4179 -0.9087
  166DOPC  H11R20138   6.325   1.465   6.979  0.6232  0.0047  1.6399
  166DOPC  H11S20139   6.464   1.483   6.878  0.7390  1.0691 -1.6276
  166DOPC  C21220140   6.324   1.649   6.872  0.5857  0.0286  0.2902
  166DOPC  H12R20141   6.380   1.728   6.817 -0.1854  1.0285  0.9050
  166DOPC  H12S20142   6.250   1.700   6.937 -0.9409 -2.3344  0.5257
  166DOPC  C21320143   6.229   1.583   6.774  0.0321  0.3173 -0.2350
  166DOPC  H13R20144   6.165   1.667   6.738 -2.4558 -0.9495  1.0236
  166DOPC  H13S20145   6.153   1.517   6.820 -1.3275  2.2082  0.3816
  166DOPC  C21420146   6.300   1.515   6.655 -0.0364 -0.6804 -0.7304
  166DOPC  H14R20147   6.368   1.431   6.682 -1.4448 -1.6878 -0.2173
  166DOPC  H14S20148   6.360   1.592   6.602 -0.6382  1.1197  1.1098
  166DOPC  C21520149   6.196   1.453   6.561  0.6243  0.0605  0.0717
  166DOPC  H15R20150   6.092   1.476   6.591  1.1086  1.1243  1.0399
  166DOPC  H15S20151   6.206   1.343   6.561 -0.1711 -0.0184  0.0156
  166DOPC  C21620152   6.220   1.500   6.413 -0.6375 -0.0936 -0.0796
  166DOPC  H16R20153   6.328   1.488   6.393 -0.9331 -1.5661 -0.9628
  166DOPC  H16S20154   6.195   1.608   6.408 -0.3563 -0.0860 -2.8931
  166DOPC  C21720155   6.154   1.403   6.307  0.3513 -0.5405  0.1369
  166DOPC  H17R20156   6.165   1.446   6.205  0.2411  1.0713  0.7746
  166DOPC  H17S20157   6.043   1.409   6.304  0.3796  0.6182  0.9208
  166DOPC  C21820158   6.197   1.257   6.290  0.0578 -0.6211 -0.2669
  166DOPC  H18R20159   6.205   1.230   6.183  1.2860 -0.4948 -0.2211
  166DOPC  H18S20160   6.139   1.180   6.345  1.6217 -1.1471  0.7277
  166DOPC  H18T20161   6.300   1.242   6.330 -0.3239 -2.2641  0.1960
  166DOPC   C3320162   6.436   1.124   7.722  0.0132  0.1578 -0.4554
  166DOPC   H3X20163   6.450   1.219   7.666  3.5311  0.9781  1.5193
  166DOPC   H3Y20164   6.367   1.057   7.667 -1.0667  0.8506  0.0131
  166DOPC   C3420165   6.573   1.046   7.725  0.1188 -0.1243  0.1848
  166DOPC   H4X20166   6.556   0.947   7.773 -0.4718  0.4126  1.1101
  166DOPC   H4Y20167   6.650   1.096   7.788  1.2766 -3.3127  1.4918
  166DOPC   C3520168   6.637   1.021   7.589  0.3888  0.3201  0.3050
  166DOPC   H5X20169   6.559   1.017   7.510  3.3677 -1.0868 -2.8372
  166DOPC   H5Y20170   6.674   0.916   7.592 -0.2904 -0.0047 -1.5458
  166DOPC   C3620171   6.738   1.125   7.545 -0.1301 -0.0510 -0.0106
  166DOPC   H6X20172   6.688   1.223   7.531 -0.5816 -0.0731  1.3544
  166DOPC   H6Y20173   6.809   1.140   7.629 -2.1003  0.6327  1.6191
  166DOPC   C3720174   6.814   1.088   7.417 -0.7475  0.0821 -0.8261
  166DOPC   H7X20175   6.894   1.164   7.403  0.9039 -1.2465  0.8158
  166DOPC   H7Y20176   6.875   0.998   7.439  1.3001  1.3008 -1.2206
  166DOPC   C3820177   6.720   1.074   7.299 -0.2904 -0.4672  0.4520
  166DOPC   H8X20178   6.645   0.994   7.313 -1.6467  0.8179  0.8245
  166DOPC   H8Y20179   6.777   1.032   7.214  0.1698 -1.1951  1.1039
  166DOPC   C3920180   6.657   1.208   7.256  0.0756 -0.8914 -0.1688
  166DOPC   H9X20181   6.626   1.276   7.337  0.9208  0.8562 -1.2662
  166DOPC  C31020182   6.643   1.253   7.132 -0.0573 -0.1625 -0.1269
  166DOPC  H10X20183   6.595   1.351   7.117 -0.2462 -0.2736 -0.2443
  166DOPC  C31120184   6.678   1.196   6.996  0.8325 -0.6064  0.3157
  166DOPC  H11X20185   6.774   1.141   7.005  0.8997 -0.2964  1.7630
  166DOPC  H11Y20186   6.698   1.282   6.928  0.7734  0.7849  1.9941
  166DOPC  C31220187   6.562   1.124   6.931  0.5346 -0.1069 -0.1135
  166DOPC  H12X20188   6.472   1.189   6.925  0.2129 -0.2683  2.1524
  166DOPC  H12Y20189   6.540   1.031   6.987  0.7736 -0.8956 -1.3019
  166DOPC  C31320190   6.607   1.069   6.789  0.2733 -0.0146 -0.1598
  166DOPC  H13X20191   6.651   1.153   6.733 -0.4666  2.5260  2.7926
  166DOPC  H13Y20192   6.681   0.986   6.790  1.5111  1.0203 -2.0334
  166DOPC  C31420193   6.484   1.020   6.715 -0.5825  0.4492  0.8354
  166DOPC  H14X20194   6.438   0.938   6.775 -2.0081  1.5012  1.2150
  166DOPC  H14Y20195   6.410   1.102   6.706  0.6129  1.3860 -1.0041
  166DOPC  C31520196   6.516   0.981   6.567 -0.8498  0.1698 -0.1299
  166DOPC  H15X20197   6.433   0.925   6.519 -1.6169  1.0135  0.1829
  166DOPC  H15Y20198   6.595   0.905   6.585 -2.7574 -1.8970 -0.0898
  166DOPC  C31620199   6.575   1.087   6.471  0.1591  0.5517 -0.3333
  166DOPC  H16X20200   6.529   1.184   6.499  0.2692  0.3530  0.5657
  166DOPC  H16Y20201   6.683   1.092   6.497 -0.4638  2.2260  2.3330
  166DOPC  C31720202   6.560   1.044   6.331  0.8804  0.2070  0.1003
  166DOPC  H17X20203   6.450   1.033   6.319  0.7692  1.0454  0.3098
  166DOPC  H17Y20204   6.593   1.129   6.268 -1.5420  0.8460 -0.4008
  166DOPC  C31820205   6.626   0.911   6.300 -1.0163 -0.1620  0.3006
  166DOPC  H18X20206   6.584   0.825   6.356  1.9505  0.0301  3.1468
  166DOPC  H18Y20207   6.609   0.900   6.191 -2.3357  1.6902  0.2666
  166DOPC  H18Z20208   6.736   0.916   6.316 -1.2971  1.2592  2.1069
  167DOPC     N20209   6.038   6.644   8.923  0.2714 -0.0555  0.6193
  167DOPC   C1220210   5.955   6.749   8.857 -0.1708  0.3926 -0.6366
  167DOPC  H12A20211   5.961   6.844   8.909  2.4061 -0.2350  0.3954
  167DOPC  H12B20212   5.849   6.727   8.862 -0.7170  2.9085  0.8476
  167DOPC   C1320213   6.001   6.615   9.064  0.2903  0.5305 -0.3579
  167DOPC  H13A20214   5.900   6.578   9.068  0.3769  0.2947 -0.3326
  167DOPC  H13B20215   6.073   6.556   9.119  1.4524  0.4039 -1.9362
  167DOPC  H13C20216   5.992   6.713   9.108 -1.7769  1.2911 -2.3072
  167DOPC   C1420217   6.187   6.689   8.923  0.2091 -0.3753  0.2873
  167DOPC  H14A20218   6.200   6.774   8.989 -1.1609  1.0479 -1.1838
  167DOPC  H14B20219   6.251   6.608   8.954  2.4084  1.7200  1.6236
  167DOPC  H14C20220   6.217   6.710   8.822  0.2549 -0.0398  0.3674
  167DOPC   C1520221   6.029   6.521   8.842 -0.7286 -0.6057  0.2299
  167DOPC  H15A20222   6.059   6.545   8.741  0.0486 -1.1656  0.3255
  167DOPC  H15B20223   5.926   6.489   8.844 -1.6831  2.0337 -1.3422
  167DOPC  H15C20224   6.078   6.431   8.875 -0.8519 -0.7293  0.0758
  167DOPC   C1120225   5.992   6.786   8.714 -0.5691 -0.4756 -0.7845
  167DOPC  H11A20226   6.015   6.693   8.657  0.2123 -1.2234  0.6885
  167DOPC  H11B20227   5.903   6.840   8.675 -1.3597  0.3638  1.9273
  167DOPC     P20228   6.100   7.026   8.747 -0.0978  0.2848 -0.2545
  167DOPC   O1320229   6.236   7.078   8.731  0.0831 -0.3665 -0.5776
  167DOPC   O1420230   6.048   7.029   8.887 -0.4212  0.2488  0.1633
  167DOPC   O1220231   6.099   6.876   8.701 -0.1587 -0.8101 -0.1647
  167DOPC   O1120232   6.001   7.095   8.642 -0.4235 -0.0846 -0.2902
  167DOPC    C120233   6.018   7.230   8.590  0.0999 -0.1395 -0.4811
  167DOPC    HA20234   6.089   7.298   8.643 -0.8206  0.8727 -0.5161
  167DOPC    HB20235   5.919   7.280   8.592  0.0861 -0.1514 -0.7701
  167DOPC    C220236   6.053   7.227   8.443 -0.3430 -0.1486 -0.1282
  167DOPC    HS20237   6.164   7.222   8.442 -0.2126  1.7588 -0.2006
  167DOPC   O2120238   6.009   7.339   8.367 -0.5092 -0.0156 -0.4891
  167DOPC   C2120239   6.095   7.444   8.377  0.0604 -0.3964  0.0869
  167DOPC   O2220240   6.195   7.447   8.445  0.2956  0.5998  0.5853
  167DOPC   C2220241   6.077   7.539   8.252  0.2204  0.7267 -0.5004
  167DOPC   H2R20242   5.990   7.605   8.271  0.4542  0.2424  2.9513
  167DOPC   H2S20243   6.042   7.469   8.174  0.9310  0.2470 -0.4042
  167DOPC    C320244   6.013   7.093   8.376 -0.0427 -0.0174  0.2828
  167DOPC    HX20245   5.903   7.078   8.378 -0.1636  0.8590  0.4579
  167DOPC    HY20246   6.059   7.008   8.430  0.0843 -0.7336 -0.9179
  167DOPC   O3120247   6.073   7.096   8.243  0.1029  0.1885  0.0386
  167DOPC   C3120248   5.988   7.127   8.147  0.2613 -0.3960 -0.0345
  167DOPC   O3220249   5.870   7.153   8.159  0.1363  0.8338  0.3202
  167DOPC   C3220250   6.062   7.134   8.019  0.6360  0.1712  0.7422
  167DOPC   H2X20251   6.104   7.237   8.012 -1.1718  0.8015 -2.9135
  167DOPC   H2Y20252   6.138   7.053   8.026  0.6338  0.2109  1.2349
  167DOPC   C2320253   6.212   7.609   8.222  0.6981  0.2664  0.6266
  167DOPC   H3R20254   6.291   7.544   8.178  1.0597  0.1317  1.4475
  167DOPC   H3S20255   6.251   7.655   8.316  1.4968 -0.8779  0.8783
  167DOPC   C2420256   6.190   7.730   8.125  0.1412  0.1431 -0.2976
  167DOPC   H4R20257   6.288   7.782   8.126  0.0040  0.4364 -1.1838
  167DOPC   H4S20258   6.114   7.791   8.180  0.6374 -0.3408  0.9616
  167DOPC   C2520259   6.143   7.710   7.984  0.1933  0.1408  0.3054
  167DOPC   H5R20260   6.133   7.807   7.930  0.4082 -1.0174 -1.9316
  167DOPC   H5S20261   6.044   7.661   7.990 -0.3133  1.3044  3.4063
  167DOPC   C2620262   6.239   7.621   7.906  0.0208 -0.0461  0.1751
  167DOPC   H6R20263   6.237   7.517   7.944 -0.0900 -0.8383 -1.8417
  167DOPC   H6S20264   6.343   7.662   7.906  0.7133 -1.7485  0.0235
  167DOPC   C2720265   6.190   7.626   7.759 -0.0797 -0.4443  0.2683
  167DOPC   H7R20266   6.181   7.733   7.731  0.0462 -0.5042  0.0007
  167DOPC   H7S20267   6.089   7.580   7.758 -0.6998  0.6538 -3.5194
  167DOPC   C2820268   6.272   7.534   7.658  0.3093  0.5610 -0.1970
  167DOPC   H8R20269   6.244   7.426   7.661  1.3105  0.2699 -0.8788
  167DOPC   H8S20270   6.380   7.539   7.681  0.1333 -0.7254  1.0634
  167DOPC   C2920271   6.236   7.584   7.523 -0.6012  0.0949 -0.6169
  167DOPC   H9R20272   6.128   7.579   7.507 -0.4180  0.1693 -2.0103
  167DOPC  C21020273   6.319   7.612   7.420  0.2101 -0.3026  0.4582
  167DOPC  H10R20274   6.283   7.669   7.333 -2.2530 -0.0099  1.5803
  167DOPC  C21120275   6.472   7.594   7.395 -0.1092  0.5169  0.4794
  167DOPC  H11R20276   6.518   7.541   7.481 -0.6373  0.5160  0.7622
  167DOPC  H11S20277   6.526   7.690   7.382 -0.1739  0.4324 -0.4377
  167DOPC  C21220278   6.509   7.510   7.273  0.1246 -0.4747  0.5085
  167DOPC  H12R20279   6.618   7.491   7.267  0.3771  1.1502 -0.7653
  167DOPC  H12S20280   6.454   7.413   7.272 -0.3855 -0.1944 -0.6779
  167DOPC  C21320281   6.484   7.573   7.141 -0.0441  0.1365  0.3548
  167DOPC  H13R20282   6.541   7.666   7.121 -1.5271  1.2985  1.2976
  167DOPC  H13S20283   6.376   7.594   7.126  0.2375  1.6463  0.3062
  167DOPC  C21420284   6.512   7.474   7.024 -0.1078  0.1197 -0.4290
  167DOPC  H14R20285   6.440   7.393   7.047 -0.1022  0.0632 -0.6061
  167DOPC  H14S20286   6.616   7.437   7.033 -0.2667 -0.1639  0.2855
  167DOPC  C21520287   6.473   7.522   6.886  0.8622  0.3697 -0.1571
  167DOPC  H15R20288   6.549   7.598   6.857  1.9671  0.1328  1.9322
  167DOPC  H15S20289   6.376   7.577   6.885  0.8435  0.3654  0.7804
  167DOPC  C21620290   6.466   7.408   6.784 -0.4777  0.3533 -0.4440
  167DOPC  H16R20291   6.374   7.348   6.799 -0.4243  0.4798  0.4790
  167DOPC  H16S20292   6.548   7.337   6.810 -1.0912 -0.5014 -0.8140
  167DOPC  C21720293   6.483   7.465   6.641 -0.2836 -0.2931 -0.0562
  167DOPC  H17R20294   6.588   7.497   6.622 -0.0303 -0.4836  0.9455
  167DOPC  H17S20295   6.427   7.561   6.645  2.7137  1.6297 -0.3779
  167DOPC  C21820296   6.451   7.376   6.524 -0.2884 -0.7733 -0.2456
  167DOPC  H18R20297   6.351   7.332   6.547 -1.3575  1.6740  0.1189
  167DOPC  H18S20298   6.525   7.294   6.514 -0.2009 -0.7712  0.3090
  167DOPC  H18T20299   6.449   7.438   6.432  1.2442 -0.4526 -0.0780
  167DOPC   C3320300   5.986   7.104   7.888 -0.4429  0.0659  0.1601
  167DOPC   H3X20301   5.892   7.163   7.893  0.0339  0.9262 -0.7580
  167DOPC   H3Y20302   5.953   6.998   7.890  1.0977 -0.4335  0.7042
  167DOPC   C3420303   6.060   7.126   7.756 -0.1082 -0.0628  0.1693
  167DOPC   H4X20304   6.157   7.073   7.756  1.1452  2.0935 -0.6988
  167DOPC   H4Y20305   6.083   7.234   7.743 -1.4637 -0.0458 -3.2805
  167DOPC   C3520306   5.982   7.082   7.630  0.1698 -0.1016 -0.3002
  167DOPC   H5X20307   5.879   7.122   7.635  0.2385 -0.0389  1.2274
  167DOPC   H5Y20308   5.984   6.971   7.629  1.6905 -0.1054  0.3221
  167DOPC   C3620309   6.042   7.122   7.497  0.1451 -0.6644  0.0154
  167DOPC   H6X20310   6.056   7.232   7.509 -0.7702 -0.7625  2.3508
  167DOPC   H6Y20311   6.144   7.080   7.481  1.4752  2.6811 -1.2869
  167DOPC   C3720312   5.972   7.084   7.365 -0.4669 -0.5682  0.2554
  167DOPC   H7X20313   5.966   6.973   7.359  0.5289 -0.7088  1.3086
  167DOPC   H7Y20314   5.871   7.129   7.358  0.1124  0.9112  0.9171
  167DOPC   C3820315   6.070   7.115   7.241  0.0526  0.0763 -0.5342
  167DOPC   H8X20316   6.018   7.094   7.145  0.9796 -0.3685 -0.9437
  167DOPC   H8Y20317   6.155   7.044   7.249  0.7830  1.0678  1.5082
  167DOPC   C3920318   6.115   7.262   7.240  0.2680  0.7858  0.4103
  167DOPC   H9X20319   6.172   7.301   7.327  0.5193  1.3194  0.0110
  167DOPC  C31020320   6.095   7.360   7.150  0.0842 -0.0471  0.1566
  167DOPC  H10X20321   6.111   7.463   7.185  0.9142 -0.2413  0.3625
  167DOPC  C31120322   6.031   7.338   7.017 -0.5413  0.3728 -0.3135
  167DOPC  H11X20323   5.921   7.352   7.021 -0.6121  0.9632 -2.7726
  167DOPC  H11Y20324   6.042   7.233   6.982  0.5094 -0.6098  2.6392
  167DOPC  C31220325   6.081   7.437   6.907 -0.8001  0.0739 -0.3119
  167DOPC  H12X20326   6.181   7.400   6.876 -0.9817 -2.4882  1.8281
  167DOPC  H12Y20327   6.068   7.541   6.945 -0.4473 -0.2227  0.6454
  167DOPC  C31320328   6.006   7.436   6.774  0.4122  0.0842 -0.2739
  167DOPC  H13X20329   6.022   7.337   6.727 -1.3289 -1.5327  2.2616
  167DOPC  H13Y20330   5.899   7.452   6.801  1.4576  4.2676  2.3168
  167DOPC  C31420331   6.049   7.542   6.676 -0.3579  0.1131  0.5189
  167DOPC  H14X20332   6.026   7.645   6.710  0.3712  0.3826  0.2341
  167DOPC  H14Y20333   6.160   7.541   6.663 -0.4006  0.5035  0.1044
  167DOPC  C31520334   5.991   7.516   6.535  0.1062 -0.5318  0.2745
  167DOPC  H15X20335   5.881   7.510   6.547 -0.1602  0.6116 -1.2194
  167DOPC  H15Y20336   6.036   7.418   6.506  2.3276  1.0570 -2.1357
  167DOPC  C31620337   6.038   7.627   6.437  0.1964 -0.3101 -0.0241
  167DOPC  H16X20338   6.040   7.726   6.485 -3.9650 -0.5247  0.9922
  167DOPC  H16Y20339   6.145   7.603   6.417  0.8752  1.9041  0.6817
  167DOPC  C31720340   5.973   7.630   6.289 -0.2670  0.2548 -0.3029
  167DOPC  H17X20341   6.022   7.543   6.240 -1.8829 -0.9341  0.1216
  167DOPC  H17Y20342   5.870   7.592   6.300 -1.1241  2.8253  1.2449
  167DOPC  C31820343   5.975   7.762   6.218  0.2424  0.1294  0.2885
  167DOPC  H18X20344   5.956   7.760   6.109 -1.4211  0.6382  0.5412
  167DOPC  H18Y20345   5.896   7.826   6.261  0.7024  1.5379 -0.8655
  167DOPC  H18Z20346   6.074   7.810   6.235 -0.3746  1.1810  1.0324
  168DOPC     N20347   1.587   6.399   8.694 -0.5503 -0.1600  0.0907
  168DOPC   C1220348   1.593   6.550   8.691  0.3647  0.0115 -0.9175
  168DOPC  H12A20349   1.628   6.585   8.787 -0.6124  0.7559 -0.8056
  168DOPC  H12B20350   1.497   6.595   8.666  0.2397  0.4385  0.2659
  168DOPC   C1320351   1.719   6.340   8.745 -0.1927 -0.3242 -0.1862
  168DOPC  H13A20352   1.705   6.233   8.737  0.4895 -0.2995 -2.3845
  168DOPC  H13B20353   1.794   6.366   8.672 -0.1360 -0.2842 -0.1137
  168DOPC  H13C20354   1.744   6.375   8.844 -0.1214 -0.7113 -0.0636
  168DOPC   C1420355   1.564   6.350   8.555  0.5130 -0.4239  0.1546
  168DOPC  H14A20356   1.485   6.406   8.507  1.0597  2.4655  2.3171
  168DOPC  H14B20357   1.656   6.356   8.499  1.0308  0.3024  1.0567
  168DOPC  H14C20358   1.535   6.246   8.560 -1.8749  0.2238  1.4905
  168DOPC   C1520359   1.473   6.359   8.774  0.1595 -0.0983 -0.0219
  168DOPC  H15A20360   1.479   6.409   8.869 -2.5180  2.1279 -0.9089
  168DOPC  H15B20361   1.460   6.251   8.781 -1.1330  0.0866  0.9172
  168DOPC  H15C20362   1.383   6.384   8.721  0.9308 -0.2393 -1.4358
  168DOPC   C1120363   1.682   6.611   8.579 -0.4445  0.0312  0.6313
  168DOPC  H11A20364   1.639   6.593   8.478 -1.6261  1.2773  0.8736
  168DOPC  H11B20365   1.675   6.721   8.594  4.3067  0.5011  0.6831
  168DOPC     P20366   1.928   6.654   8.648  0.1610 -0.4557 -0.1859
  168DOPC   O1320367   2.050   6.575   8.650  0.4297  0.0040 -0.3655
  168DOPC   O1420368   1.880   6.700   8.781 -0.2490  0.2623 -0.5207
  168DOPC   O1220369   1.820   6.564   8.580  0.7363 -0.1485 -0.3691
  168DOPC   O1120370   1.941   6.781   8.550  1.3448 -0.1518 -0.1233
  168DOPC    C120371   1.957   6.760   8.406  0.3827  0.3122  0.1414
  168DOPC    HA20372   1.945   6.657   8.366 -0.3813  0.5569 -0.2628
  168DOPC    HB20373   2.056   6.800   8.374  0.0555 -0.7373 -2.4106
  168DOPC    C220374   1.856   6.839   8.329  0.2390 -0.1238  0.7587
  168DOPC    HS20375   1.752   6.828   8.367 -0.6398  1.3284 -1.0588
  168DOPC   O2120376   1.877   6.806   8.191 -0.8457  0.7488  0.0273
  168DOPC   C2120377   1.758   6.798   8.125  0.0442  0.6682 -0.5911
  168DOPC   O2220378   1.651   6.826   8.167  0.3798  0.8243  0.6926
  168DOPC   C2220379   1.782   6.767   7.982 -0.8907  0.1382  0.1802
  168DOPC   H2R20380   1.737   6.668   7.959 -1.1041  0.2364  0.1720
  168DOPC   H2S20381   1.892   6.756   7.969 -1.1405 -1.3198 -0.8841
  168DOPC    C320382   1.879   6.990   8.350 -0.5707 -0.6407  0.3871
  168DOPC    HX20383   1.962   7.029   8.287 -0.0994 -1.2094  0.6496
  168DOPC    HY20384   1.904   6.997   8.458  1.4764  0.7223 -0.1238
  168DOPC   O3120385   1.760   7.070   8.322 -0.4035  0.5030  0.3892
  168DOPC   C3120386   1.667   7.070   8.410 -0.0654 -0.3586 -0.7176
  168DOPC   O3220387   1.664   7.005   8.516  0.6947 -0.2280  0.2429
  168DOPC   C3220388   1.546   7.145   8.361  0.9517  0.8945 -0.4461
  168DOPC   H2X20389   1.473   7.080   8.308  0.3710 -0.1031  1.5031
  168DOPC   H2Y20390   1.512   7.179   8.461  2.2397 -0.6427  0.5517
  168DOPC   C2320391   1.736   6.878   7.891 -0.2567  0.3991  0.6097
  168DOPC   H3R20392   1.773   6.982   7.900 -1.8314  0.8188  3.5282
  168DOPC   H3S20393   1.625   6.882   7.894 -0.2364  0.5898  1.5537
  168DOPC   C2420394   1.781   6.827   7.751  0.2212 -0.0520  0.1403
  168DOPC   H4R20395   1.754   6.723   7.726  1.1395 -0.7601  1.9580
  168DOPC   H4S20396   1.892   6.821   7.752  0.2069 -0.2848  0.1821
  168DOPC   C2520397   1.737   6.920   7.636  0.0130 -0.2658 -0.3265
  168DOPC   H5R20398   1.764   7.020   7.677 -2.9571 -0.0577  1.4628
  168DOPC   H5S20399   1.626   6.921   7.623 -0.0657 -0.2294  0.3022
  168DOPC   C2620400   1.802   6.883   7.504  0.3158  0.8210  0.3471
  168DOPC   H6R20401   1.805   6.772   7.504  0.6447  0.8274 -0.0225
  168DOPC   H6S20402   1.909   6.913   7.497  0.6622 -0.4296  0.1121
  168DOPC   C2720403   1.725   6.938   7.388  0.8653  0.4840  0.9196
  168DOPC   H7R20404   1.769   7.034   7.356  0.5070  0.0379 -1.0366
  168DOPC   H7S20405   1.622   6.960   7.423 -0.1330 -0.2054 -1.3562
  168DOPC   C2820406   1.715   6.855   7.263  0.8163  0.9102 -0.4778
  168DOPC   H8R20407   1.666   6.759   7.290  0.3720  0.7525 -1.7931
  168DOPC   H8S20408   1.820   6.831   7.234  1.3213  0.0982  1.7877
  168DOPC   C2920409   1.636   6.911   7.143 -0.0725  0.6055  0.3895
  168DOPC   H9R20410   1.528   6.889   7.139  0.0891 -0.0926 -0.3729
  168DOPC  C21020411   1.680   6.987   7.039 -0.9658  0.0759  0.0183
  168DOPC  H10R20412   1.610   7.015   6.959 -0.8214  2.6798  0.7149
  168DOPC  C21120413   1.826   7.033   7.007  0.0266  0.3614 -0.5141
  168DOPC  H11R20414   1.903   7.004   7.081 -0.3268  1.5841  0.3668
  168DOPC  H11S20415   1.832   7.143   7.020 -1.0079  0.3047  0.6043
  168DOPC  C21220416   1.875   6.975   6.869 -0.7777 -0.1608  0.8811
  168DOPC  H12R20417   1.978   7.016   6.872 -1.6189  2.7310 -2.5137
  168DOPC  H12S20418   1.821   7.018   6.782  2.6298  1.5784 -0.5605
  168DOPC  C21320419   1.882   6.822   6.858  0.0167 -0.7252  0.2177
  168DOPC  H13R20420   1.784   6.774   6.879 -0.1133 -0.7969 -0.5385
  168DOPC  H13S20421   1.946   6.781   6.940  0.3141 -1.1667 -0.2342
  168DOPC  C21420422   1.947   6.784   6.729  0.2328  0.0132 -0.0948
  168DOPC  H14R20423   1.994   6.683   6.732  1.0897  0.4189  0.6847
  168DOPC  H14S20424   2.031   6.855   6.716 -0.2216  0.5001 -0.4471
  168DOPC  C21520425   1.853   6.795   6.608  0.0138  0.3012  0.3339
  168DOPC  H15R20426   1.823   6.901   6.593 -2.9014 -0.6147 -1.1236
  168DOPC  H15S20427   1.755   6.748   6.632 -1.0513  2.2301 -0.0436
  168DOPC  C21620428   1.912   6.732   6.485  0.8522  0.4029  0.2562
  168DOPC  H16R20429   1.832   6.742   6.408 -1.2761  0.6819  2.4035
  168DOPC  H16S20430   1.931   6.623   6.490 -0.3140  0.2137  0.8185
  168DOPC  C21720431   2.022   6.817   6.428 -0.2006 -0.2815  0.7774
  168DOPC  H17R20432   2.110   6.804   6.494  1.8641 -2.2172 -2.1143
  168DOPC  H17S20433   1.974   6.917   6.422 -0.2670 -0.2555  1.6379
  168DOPC  C21820434   2.067   6.773   6.286 -0.1169 -0.2814 -0.0214
  168DOPC  H18R20435   2.143   6.842   6.242 -1.4011  0.4813 -1.0931
  168DOPC  H18S20436   1.986   6.780   6.211  0.1648 -3.6217 -0.8025
  168DOPC  H18T20437   2.096   6.666   6.285  1.1120  0.0324  0.0141
  168DOPC   C3320438   1.575   7.265   8.274  0.5057 -0.1302 -0.4124
  168DOPC   H3X20439   1.660   7.322   8.316  0.2915 -0.2341  0.1759
  168DOPC   H3Y20440   1.482   7.326   8.281 -0.9101 -2.3398  2.4286
  168DOPC   C3420441   1.588   7.227   8.131 -0.2775 -0.1018 -0.1748
  168DOPC   H4X20442   1.527   7.139   8.104  0.4487 -0.3668 -0.9949
  168DOPC   H4Y20443   1.688   7.186   8.103 -0.9401 -1.7312 -0.2175
  168DOPC   C3520444   1.573   7.340   8.032  0.2444  0.5324  0.1122
  168DOPC   H5X20445   1.620   7.437   8.059  0.2832  0.7020 -0.5298
  168DOPC   H5Y20446   1.464   7.364   8.031  0.1222  0.1109  1.5429
  168DOPC   C3620447   1.621   7.311   7.887 -0.0260  0.0575 -0.3004
  168DOPC   H6X20448   1.728   7.339   7.881  0.5330 -1.2479  2.2378
  168DOPC   H6Y20449   1.616   7.203   7.863  0.0287 -0.1962  0.7950
  168DOPC   C3720450   1.550   7.404   7.790  0.1367  0.3462 -0.2804
  168DOPC   H7X20451   1.448   7.364   7.775  0.0424  0.5436 -0.1696
  168DOPC   H7Y20452   1.542   7.504   7.838 -1.5216  1.1384 -2.0857
  168DOPC   C3820453   1.611   7.423   7.648  0.2555  0.1634 -0.2563
  168DOPC   H8X20454   1.713   7.461   7.673 -0.6649  2.2094  0.6684
  168DOPC   H8Y20455   1.564   7.511   7.599 -0.3596 -0.3291 -0.5565
  168DOPC   C3920456   1.602   7.296   7.567  0.1101  0.3252  0.0776
  168DOPC   H9X20457   1.620   7.200   7.617 -1.1883 -0.5088 -0.9712
  168DOPC  C31020458   1.550   7.283   7.443 -0.2194 -0.0926  0.1026
  168DOPC  H10X20459   1.553   7.186   7.391 -1.7908  0.4239 -1.0518
  168DOPC  C31120460   1.479   7.388   7.356 -0.2553 -0.1858 -0.8421
  168DOPC  H11X20461   1.427   7.467   7.414 -0.2506  0.5145 -1.7655
  168DOPC  H11Y20462   1.405   7.342   7.287  0.0627 -2.5797  0.2986
  168DOPC  C31220463   1.584   7.460   7.267  0.4187 -0.5889  0.2202
  168DOPC  H12X20464   1.661   7.510   7.329 -1.0464  0.6510  1.1171
  168DOPC  H12Y20465   1.533   7.549   7.225  2.5085  1.2499  1.3672
  168DOPC  C31320466   1.636   7.378   7.149 -0.0320  0.1440  0.2128
  168DOPC  H13X20467   1.736   7.420   7.125 -0.8103  1.9915  0.0722
  168DOPC  H13Y20468   1.653   7.271   7.174 -0.6200 -0.1289 -0.5300
  168DOPC  C31420469   1.547   7.381   7.022 -0.6268 -0.8447 -0.4345
  168DOPC  H14X20470   1.458   7.320   7.046 -0.4190 -0.2771  2.1185
  168DOPC  H14Y20471   1.521   7.485   6.993  0.2132 -0.9913 -1.8086
  168DOPC  C31520472   1.628   7.320   6.902 -0.6576  0.4112 -0.9354
  168DOPC  H15X20473   1.647   7.212   6.918 -3.1966 -0.3164 -2.2753
  168DOPC  H15Y20474   1.720   7.380   6.885  0.5797 -1.6986 -2.1175
  168DOPC  C31620475   1.540   7.329   6.782 -0.1419  0.4065 -0.0008
  168DOPC  H16X20476   1.450   7.269   6.808 -0.4819  1.6393  1.8951
  168DOPC  H16Y20477   1.513   7.436   6.772  2.2831  1.0230 -0.4914
  168DOPC  C31720478   1.608   7.277   6.655  0.0098 -0.1531  0.2236
  168DOPC  H17X20479   1.677   7.358   6.623 -0.7703  0.0555 -0.9421
  168DOPC  H17Y20480   1.660   7.181   6.678  3.3235  0.7138 -2.7697
  168DOPC  C31820481   1.497   7.265   6.549 -0.4196  0.0783  0.1289
  168DOPC  H18X20482   1.413   7.208   6.593 -1.4747  1.5150  0.0295
  168DOPC  H18Y20483   1.446   7.358   6.518 -0.4675 -0.2411 -0.8076
  168DOPC  H18Z20484   1.546   7.203   6.470 -0.7046 -1.2650  0.9700
  169DOPC     N20485   0.837   0.521   9.243  0.5664 -0.0906 -0.0337
  169DOPC   C1220486   0.739   0.601   9.163 -0.2427  0.2542 -0.1471
  169DOPC  H12A20487   0.764   0.706   9.174  1.4480  0.3119 -3.1966
  169DOPC  H12B20488   0.644   0.596   9.212 -0.0584 -2.3221  0.0739
  169DOPC   C1320489   0.799   0.378   9.219  0.5989 -0.2647 -0.0826
  169DOPC  H13A20490   0.707   0.343   9.264 -0.0245  0.3250 -0.8700
  169DOPC  H13B20491   0.797   0.360   9.113  0.5958  2.5362 -0.6290
  169DOPC  H13C20492   0.883   0.318   9.252  1.6239  1.3963  0.4667
  169DOPC   C1420493   0.822   0.565   9.390  0.9102  0.4009  0.0335
  169DOPC  H14A20494   0.847   0.669   9.401  0.1114  0.7010 -0.8925
  169DOPC  H14B20495   0.720   0.550   9.422  1.4919  0.5650  2.1190
  169DOPC  H14C20496   0.874   0.506   9.464  0.1341  3.3081  3.1100
  169DOPC   C1520497   0.971   0.549   9.202  0.2151 -0.0527  0.0121
  169DOPC  H15A20498   0.979   0.535   9.095  0.8508 -0.8475  0.1566
  169DOPC  H15B20499   1.043   0.490   9.256  0.4127  2.2346  2.4762
  169DOPC  H15C20500   0.990   0.654   9.221  0.5194  0.0841 -0.9827
  169DOPC   C1120501   0.734   0.573   9.011  0.1487  0.0539 -0.0541
  169DOPC  H11A20502   0.669   0.647   8.959 -0.7245 -0.0399  0.8497
  169DOPC  H11B20503   0.834   0.602   8.973 -0.4717  0.4502 -1.4263
  169DOPC     P20504   0.523   0.431   8.977  0.2757 -0.3468 -0.0346
  169DOPC   O1320505   0.473   0.509   9.094 -0.8255 -0.3556  0.2598
  169DOPC   O1420506   0.484   0.287   8.966 -0.3240  0.1467  0.1829
  169DOPC   O1220507   0.685   0.436   8.982 -0.4632  0.2349  0.7798
  169DOPC   O1120508   0.479   0.502   8.842 -0.0681 -1.1810  0.0463
  169DOPC    C120509   0.566   0.532   8.735  1.2090  0.2630  0.4701
  169DOPC    HA20510   0.674   0.526   8.761  2.2833  2.9341 -2.6422
  169DOPC    HB20511   0.557   0.640   8.709 -0.5140 -0.0208 -0.2085
  169DOPC    C220512   0.548   0.453   8.599  0.1115 -0.2655  0.0592
  169DOPC    HS20513   0.650   0.421   8.569  0.1500 -1.6417  1.4676
  169DOPC   O2120514   0.467   0.531   8.510  0.2684  0.6343 -0.3703
  169DOPC   C2120515   0.510   0.533   8.383 -0.4705  1.0581  0.3555
  169DOPC   O2220516   0.622   0.510   8.338 -0.3768 -0.4339  0.1979
  169DOPC   C2220517   0.388   0.581   8.303  0.3071  0.8997 -0.5134
  169DOPC   H2R20518   0.309   0.613   8.374 -1.4432  0.0479 -1.9975
  169DOPC   H2S20519   0.361   0.490   8.246 -2.0285  1.9664 -1.2418
  169DOPC    C320520   0.488   0.311   8.625  0.0007  1.4854  0.3269
  169DOPC    HX20521   0.391   0.334   8.676 -1.1852  1.3225 -1.7511
  169DOPC    HY20522   0.563   0.267   8.694 -1.4590  2.4411  2.6499
  169DOPC   O3120523   0.467   0.236   8.498 -0.1296  0.3503  0.4721
  169DOPC   C3120524   0.562   0.146   8.474 -0.1414 -0.0221  0.5852
  169DOPC   O3220525   0.671   0.149   8.523  0.1278  0.1970  0.4053
  169DOPC   C3220526   0.525   0.043   8.364  0.1741  0.0838 -0.4176
  169DOPC   H2X20527   0.513  -0.053   8.419  1.0568 -0.0069 -0.3683
  169DOPC   H2Y20528   0.426   0.070   8.321  1.3139  1.8898 -2.0323
  169DOPC   C2320529   0.423   0.695   8.201 -0.3551 -0.6309  0.6521
  169DOPC   H3R20530   0.492   0.774   8.238  2.7573 -0.9774 -3.6281
  169DOPC   H3S20531   0.330   0.736   8.156  0.6619 -0.7901 -1.7162
  169DOPC   C2420532   0.503   0.628   8.087 -0.0514  0.0848  0.1045
  169DOPC   H4R20533   0.454   0.535   8.051  0.2251 -0.5874  1.4079
  169DOPC   H4S20534   0.609   0.610   8.112  0.2294  1.1104 -0.2776
  169DOPC   C2520535   0.511   0.731   7.965 -0.1063 -0.4287 -0.3515
  169DOPC   H5R20536   0.573   0.819   7.990 -1.2950  0.8718 -1.7867
  169DOPC   H5S20537   0.406   0.757   7.938 -0.1352  0.8235  0.8547
  169DOPC   C2620538   0.583   0.666   7.845 -0.2486  0.6847 -1.2997
  169DOPC   H6R20539   0.521   0.579   7.816  0.6897 -0.5928  0.3387
  169DOPC   H6S20540   0.689   0.645   7.872 -0.1902  0.2594 -1.8623
  169DOPC   C2720541   0.591   0.763   7.725 -0.4940  0.4178  0.5189
  169DOPC   H7R20542   0.685   0.819   7.744 -1.4105  1.6829  1.5781
  169DOPC   H7S20543   0.505   0.834   7.724 -0.3857  0.5614  0.8585
  169DOPC   C2820544   0.613   0.679   7.594 -0.1751 -0.0601 -0.0135
  169DOPC   H8R20545   0.524   0.612   7.589  1.0412 -1.6789 -1.1314
  169DOPC   H8S20546   0.696   0.607   7.613  0.3259  0.9065  1.7251
  169DOPC   C2920547   0.630   0.776   7.484 -0.0269  0.2596  0.0381
  169DOPC   H9R20548   0.653   0.877   7.522 -0.9627  0.6976 -0.5369
  169DOPC  C21020549   0.624   0.750   7.355 -0.3068  0.5555  0.3324
  169DOPC  H10R20550   0.632   0.830   7.280  1.5158 -0.1294 -0.2398
  169DOPC  C21120551   0.583   0.612   7.302 -0.7138  0.4580  0.3214
  169DOPC  H11R20552   0.522   0.559   7.378 -1.0407  3.2069  2.1292
  169DOPC  H11S20553   0.677   0.553   7.295 -0.9227  0.0954  0.5250
  169DOPC  C21220554   0.509   0.598   7.169  0.2631 -0.0466  0.1136
  169DOPC  H12R20555   0.416   0.659   7.173  1.0898  1.2625 -0.0592
  169DOPC  H12S20556   0.481   0.491   7.157  0.5583 -0.3236  1.7055
  169DOPC  C21320557   0.592   0.630   7.046  0.1007 -0.8487  0.1478
  169DOPC  H13R20558   0.692   0.582   7.053  0.3506 -1.5712 -4.9875
  169DOPC  H13S20559   0.605   0.737   7.023  1.6424 -0.9267  0.5624
  169DOPC  C21420560   0.542   0.563   6.908 -0.5187 -0.1468 -0.3189
  169DOPC  H14R20561   0.487   0.472   6.940  0.2977 -0.6201 -0.2422
  169DOPC  H14S20562   0.625   0.514   6.853 -1.9063 -3.0769 -0.0241
  169DOPC  C21520563   0.449   0.651   6.820  0.5680 -0.1166 -0.4154
  169DOPC  H15R20564   0.514   0.722   6.764  0.5996 -1.2856 -1.9481
  169DOPC  H15S20565   0.387   0.713   6.889  1.5794  1.7082 -1.0670
  169DOPC  C21620566   0.352   0.566   6.732 -0.5925 -0.0840  0.8700
  169DOPC  H16R20567   0.263   0.542   6.794 -0.7412  0.6384  0.9437
  169DOPC  H16S20568   0.409   0.473   6.713  3.3957  1.9081  2.0455
  169DOPC  C21720569   0.305   0.636   6.603  0.9042  0.3961  0.3613
  169DOPC  H17R20570   0.264   0.735   6.635  3.7304  1.4877  0.9327
  169DOPC  H17S20571   0.229   0.572   6.554  0.6412  0.8584  0.1496
  169DOPC  C21820572   0.424   0.658   6.510  0.3106 -0.1862  0.5185
  169DOPC  H18R20573   0.498   0.725   6.560  1.0705 -1.5453  1.2674
  169DOPC  H18S20574   0.399   0.725   6.425  0.8607 -1.1747 -0.4468
  169DOPC  H18T20575   0.473   0.566   6.472 -1.6382 -1.0744  0.0600
  169DOPC   C3320576   0.626   0.020   8.251  0.3490  0.2319 -0.0481
  169DOPC   H3X20577   0.576  -0.058   8.190  1.6223 -1.5706  1.0827
  169DOPC   H3Y20578   0.722  -0.014   8.295  0.3924 -0.4138 -0.6111
  169DOPC   C3420579   0.645   0.145   8.162 -0.1505 -0.1850 -0.0634
  169DOPC   H4X20580   0.683   0.223   8.232 -2.9281 -1.9918  3.8979
  169DOPC   H4Y20581   0.549   0.187   8.123 -0.8071 -0.3304  1.3182
  169DOPC   C3520582   0.726   0.120   8.040 -0.2390  0.4279 -0.2237
  169DOPC   H5X20583   0.697   0.020   8.003  1.2960  0.1994 -0.8494
  169DOPC   H5Y20584   0.833   0.117   8.068 -0.4659 -1.1232  0.5721
  169DOPC   C3620585   0.700   0.225   7.929  0.1520  0.8242  0.0568
  169DOPC   H6X20586   0.597   0.231   7.890 -0.0552  0.5426  0.5519
  169DOPC   H6Y20587   0.730   0.320   7.979  0.9857  0.6146 -0.0199
  169DOPC   C3720588   0.795   0.197   7.812  0.7991 -0.0040 -0.2071
  169DOPC   H7X20589   0.897   0.211   7.855 -0.3804 -0.0915  2.9430
  169DOPC   H7Y20590   0.779   0.092   7.780 -2.5499 -0.4959  2.4404
  169DOPC   C3820591   0.787   0.290   7.692 -0.6244 -0.4819 -0.1413
  169DOPC   H8X20592   0.868   0.263   7.621 -0.7509  0.7220 -0.7720
  169DOPC   H8Y20593   0.826   0.389   7.725 -0.1061 -0.4554 -0.8164
  169DOPC   C3920594   0.650   0.303   7.628 -0.2865  0.0544  0.1388
  169DOPC   H9X20595   0.595   0.395   7.656  1.0414  0.0022  3.3993
  169DOPC  C31020596   0.597   0.226   7.528 -0.4574 -0.5331  0.5122
  169DOPC  H10X20597   0.504   0.267   7.486 -0.5138 -0.4843  0.6806
  169DOPC  C31120598   0.653   0.105   7.454  0.1961  0.5303 -0.1133
  169DOPC  H11X20599   0.595   0.014   7.480 -0.1686  0.1656 -2.0235
  169DOPC  H11Y20600   0.759   0.080   7.476 -0.3895 -1.6417  0.4302
  169DOPC  C31220601   0.640   0.113   7.304 -0.4274  0.3908  0.1892
  169DOPC  H12X20602   0.539   0.158   7.292  0.1136  1.2668 -1.5126
  169DOPC  H12Y20603   0.640   0.013   7.256  0.8821  0.4657 -0.0145
  169DOPC  C31320604   0.739   0.215   7.247 -0.4166  0.0448  0.0527
  169DOPC  H13X20605   0.755   0.298   7.319  1.5852 -1.4814  1.4712
  169DOPC  H13Y20606   0.838   0.166   7.231 -0.5369 -0.0469 -0.4233
  169DOPC  C31420607   0.687   0.260   7.114 -0.3044  0.1421 -0.3188
  169DOPC  H14X20608   0.599   0.327   7.123 -1.6007 -1.5771  0.5808
  169DOPC  H14Y20609   0.770   0.319   7.070  1.3659  1.7484  4.3487
  169DOPC  C31520610   0.663   0.143   7.019  0.3844 -0.0202 -1.0688
  169DOPC  H15X20611   0.569   0.094   7.052 -0.6406  1.4281 -1.7202
  169DOPC  H15Y20612   0.746   0.071   7.035  0.6911  0.4706 -0.3970
  169DOPC  C31620613   0.656   0.187   6.876 -0.9747  0.1441 -0.1851
  169DOPC  H16X20614   0.567   0.254   6.874 -0.5189  0.7513 -0.6444
  169DOPC  H16Y20615   0.752   0.237   6.849  0.8542 -2.2369  1.4904
  169DOPC  C31720616   0.619   0.077   6.771  0.0431  0.0477  0.0572
  169DOPC  H17X20617   0.707   0.018   6.739 -0.6037 -0.0925 -1.5806
  169DOPC  H17Y20618   0.547   0.012   6.826 -1.0025 -0.8588 -2.2491
  169DOPC  C31820619   0.545   0.129   6.643 -0.7288 -0.3201  0.1711
  169DOPC  H18X20620   0.509   0.048   6.577  0.7630 -0.6147 -0.3123
  169DOPC  H18Y20621   0.455   0.176   6.688 -0.2205  0.6661  0.1893
  169DOPC  H18Z20622   0.620   0.190   6.588 -2.2231  0.1877 -1.3631
  170DOPC     N20623   5.406   6.266   8.683  0.0041  0.4539  0.4291
  170DOPC   C1220624   5.439   6.275   8.533 -0.1602  1.0229  0.1558
  170DOPC  H12A20625   5.355   6.326   8.489 -0.5624 -0.9092 -1.5111
  170DOPC  H12B20626   5.432   6.179   8.484 -1.2102  0.4993  1.2769
  170DOPC   C1320627   5.360   6.395   8.744 -0.0856 -0.4184 -0.1691
  170DOPC  H13A20628   5.440   6.466   8.727  1.0218 -1.3349  0.9912
  170DOPC  H13B20629   5.265   6.429   8.707 -0.2356  0.4336  0.9435
  170DOPC  H13C20630   5.347   6.379   8.850 -0.1832 -0.6958 -0.2237
  170DOPC   C1420631   5.533   6.227   8.749  0.1289 -0.2111 -0.1725
  170DOPC  H14A20632   5.579   6.145   8.695  2.9632  3.3671 -3.8917
  170DOPC  H14B20633   5.608   6.300   8.723 -0.2819  1.1077  2.1699
  170DOPC  H14C20634   5.518   6.211   8.854  0.3878 -2.4348 -0.4030
  170DOPC   C1520635   5.299   6.168   8.712 -0.9988  0.4433 -0.1359
  170DOPC  H15A20636   5.299   6.131   8.814 -0.5847  0.2889 -0.1910
  170DOPC  H15B20637   5.296   6.090   8.638  1.9780 -1.7975  1.8768
  170DOPC  H15C20638   5.200   6.209   8.696 -0.7363  1.2334  0.2017
  170DOPC   C1120639   5.566   6.346   8.494 -0.5466  0.2137  0.3958
  170DOPC  H11A20640   5.652   6.277   8.506 -1.2055 -0.5766  0.5852
  170DOPC  H11B20641   5.576   6.363   8.384  3.2737 -0.5606  0.4736
  170DOPC     P20642   5.715   6.522   8.606  0.5242 -0.1345  0.1833
  170DOPC   O1320643   5.748   6.431   8.720  0.1808  0.0695 -0.2049
  170DOPC   O1420644   5.707   6.662   8.643 -0.2376 -0.1041  0.6310
  170DOPC   O1220645   5.574   6.473   8.553  0.9126 -0.0939 -0.6111
  170DOPC   O1120646   5.818   6.517   8.482  0.0068  0.3430 -0.0974
  170DOPC    C120647   5.853   6.629   8.405  0.3814 -0.2363  0.1961
  170DOPC    HA20648   5.944   6.597   8.350  1.6374 -3.1233  3.5923
  170DOPC    HB20649   5.885   6.713   8.470  1.5913 -0.4457 -0.1089
  170DOPC    C220650   5.745   6.691   8.320  0.4357  0.6175 -0.1125
  170DOPC    HS20651   5.651   6.704   8.378  0.5403  2.3690 -0.2764
  170DOPC   O2120652   5.723   6.589   8.219 -0.2333  0.0309  0.3818
  170DOPC   C2120653   5.602   6.590   8.176 -0.2416 -0.1937  0.7377
  170DOPC   O2220654   5.512   6.673   8.202  0.8672  0.0623 -0.2949
  170DOPC   C2220655   5.582   6.468   8.078  0.0840 -0.1168 -0.1548
  170DOPC   H2R20656   5.510   6.404   8.133 -0.7034  2.6601  2.3836
  170DOPC   H2S20657   5.680   6.416   8.082  0.3260  0.2578 -1.0053
  170DOPC    C320658   5.785   6.834   8.262 -0.0559  1.0194  0.3688
  170DOPC    HX20659   5.890   6.823   8.226 -0.7857 -1.0968 -1.3146
  170DOPC    HY20660   5.784   6.919   8.333  1.0167  1.3403  0.0247
  170DOPC   O3120661   5.707   6.861   8.146  0.1399  0.3694 -0.7656
  170DOPC   C3120662   5.601   6.939   8.168 -0.2191 -0.2428  0.1180
  170DOPC   O3220663   5.565   6.990   8.272  0.1045 -0.3032  0.8929
  170DOPC   C3220664   5.527   6.941   8.036 -0.5089 -0.0623  0.3125
  170DOPC   H2X20665   5.534   6.840   7.989  2.2979  0.3537 -0.3357
  170DOPC   H2Y20666   5.423   6.977   8.047 -0.2117  1.0948 -0.4812
  170DOPC   C2320667   5.544   6.508   7.935  0.2512 -0.2278 -0.2606
  170DOPC   H3R20668   5.466   6.587   7.925 -1.1014 -1.4423  0.2691
  170DOPC   H3S20669   5.501   6.417   7.888 -1.4871 -0.4881  1.6873
  170DOPC   C2420670   5.661   6.539   7.850  0.0486  0.2788 -0.5308
  170DOPC   H4R20671   5.709   6.445   7.816 -0.3599  0.0485 -0.4729
  170DOPC   H4S20672   5.733   6.584   7.922 -1.6765  2.3264  0.0228
  170DOPC   C2520673   5.637   6.634   7.733 -0.3832 -0.5329 -0.5620
  170DOPC   H5R20674   5.630   6.740   7.766  0.9943  0.4169 -3.1003
  170DOPC   H5S20675   5.549   6.607   7.672  0.1504 -0.7880 -1.2397
  170DOPC   C2620676   5.765   6.631   7.642  0.1978  0.1685  0.0502
  170DOPC   H6R20677   5.796   6.526   7.623 -0.8291 -0.2537  0.6069
  170DOPC   H6S20678   5.847   6.685   7.694 -0.5629 -1.1625  2.8048
  170DOPC   C2720679   5.731   6.690   7.506  0.3009  0.2034  0.4395
  170DOPC   H7R20680   5.726   6.800   7.524 -1.8517  0.0597  0.9620
  170DOPC   H7S20681   5.633   6.660   7.464  0.5085 -0.0977  0.1670
  170DOPC   C2820682   5.841   6.669   7.399 -0.4385  0.3781 -0.1029
  170DOPC   H8R20683   5.941   6.712   7.419  0.0415  0.0513 -1.6535
  170DOPC   H8S20684   5.807   6.719   7.305  0.1729 -1.3386 -1.2875
  170DOPC   C2920685   5.858   6.527   7.352  0.3725 -0.2605 -0.3431
  170DOPC   H9R20686   5.797   6.456   7.410  1.3772 -0.9326 -0.0616
  170DOPC  C21020687   5.917   6.495   7.231  0.2558  0.7617  0.0176
  170DOPC  H10R20688   5.912   6.389   7.203 -3.5567  1.2716 -1.8893
  170DOPC  C21120689   5.976   6.591   7.133 -0.4093  0.2183  0.2525
  170DOPC  H11R20690   6.073   6.543   7.112  0.2636  0.4569  2.5237
  170DOPC  H11S20691   6.001   6.683   7.190 -2.3600  0.3197  1.0292
  170DOPC  C21220692   5.888   6.637   7.014  0.2347  0.1458  0.4131
  170DOPC  H12R20693   5.793   6.681   7.050 -0.3804 -1.6745  1.1155
  170DOPC  H12S20694   5.880   6.547   6.950 -0.5048  1.1234 -0.9315
  170DOPC  C21320695   5.970   6.732   6.920  0.3263  0.8169  0.0095
  170DOPC  H13R20696   6.065   6.685   6.887  0.1912  0.5981 -0.0671
  170DOPC  H13S20697   6.004   6.823   6.973  1.2048  0.7854 -0.4873
  170DOPC  C21420698   5.893   6.777   6.795  0.1519 -0.3713 -0.4523
  170DOPC  H14R20699   5.841   6.684   6.763  1.1121 -1.8422  2.0215
  170DOPC  H14S20700   5.967   6.811   6.720  0.2746 -0.0737 -0.1988
  170DOPC  C21520701   5.801   6.889   6.817  0.0791  0.2355 -0.0444
  170DOPC  H15R20702   5.861   6.973   6.859  1.3007  0.3527 -1.8817
  170DOPC  H15S20703   5.718   6.867   6.888 -2.2749 -0.0378 -2.7070
  170DOPC  C21620704   5.729   6.926   6.681 -0.6165 -0.1359  0.4488
  170DOPC  H16R20705   5.644   6.995   6.701 -0.1332  0.6262 -0.0865
  170DOPC  H16S20706   5.691   6.829   6.643 -0.6754  1.0382 -2.7582
  170DOPC  C21720707   5.819   6.985   6.577  0.0400  0.2635  0.0716
  170DOPC  H17R20708   5.759   7.004   6.486 -1.0515 -0.5520  0.5851
  170DOPC  H17S20709   5.895   6.916   6.536 -1.3556 -0.2826 -1.7078
  170DOPC  C21820710   5.891   7.109   6.623  0.2181 -0.7855 -0.0736
  170DOPC  H18R20711   5.950   7.165   6.547 -0.9784  1.2953  0.4560
  170DOPC  H18S20712   5.961   7.086   6.706 -1.3362  0.2030  1.5814
  170DOPC  H18T20713   5.816   7.176   6.669  0.5860 -0.9539  0.8070
  170DOPC   C3320714   5.598   7.037   7.935 -0.4804  0.1500 -0.5528
  170DOPC   H3X20715   5.702   6.999   7.923 -0.0548  1.1773 -0.1970
  170DOPC   H3Y20716   5.600   7.137   7.984  0.3210  0.0054 -0.2661
  170DOPC   C3420717   5.530   7.034   7.796 -0.4206  0.1400 -0.2376
  170DOPC   H4X20718   5.445   7.105   7.793 -0.1964  0.3910 -1.1007
  170DOPC   H4Y20719   5.476   6.940   7.774  0.3652 -0.2110 -0.6919
  170DOPC   C3520720   5.626   7.075   7.689  0.1158 -0.2992  0.2432
  170DOPC   H5X20721   5.706   6.998   7.681  0.6658  0.3418 -0.5421
  170DOPC   H5Y20722   5.674   7.171   7.718 -2.1749  1.1906 -0.6491
  170DOPC   C3620723   5.579   7.102   7.547  0.6473  0.6987 -0.7670
  170DOPC   H6X20724   5.521   7.196   7.554  0.4175  0.4749  0.6075
  170DOPC   H6Y20725   5.664   7.105   7.476  0.0854 -1.7943 -1.6298
  170DOPC   C3720726   5.484   6.995   7.488 -0.1279  0.1728  0.6165
  170DOPC   H7X20727   5.502   6.890   7.517 -1.6500 -0.9386 -2.0454
  170DOPC   H7Y20728   5.382   7.018   7.527  0.0753 -1.2421  2.0594
  170DOPC   C3820729   5.473   7.001   7.329  0.0878 -0.7445  0.7312
  170DOPC   H8X20730   5.451   7.106   7.301 -0.9404 -0.8959  0.9553
  170DOPC   H8Y20731   5.376   6.952   7.306 -1.5426  2.8976 -0.9237
  170DOPC   C3920732   5.598   6.955   7.255  0.1211  0.5564 -1.2773
  170DOPC   H9X20733   5.631   6.852   7.276 -3.0017 -0.2006  0.6615
  170DOPC  C31020734   5.678   7.018   7.167  0.2873 -0.1367  0.0910
  170DOPC  H10X20735   5.767   6.975   7.120 -0.4544 -0.4983 -1.0435
  170DOPC  C31120736   5.661   7.160   7.123  0.8712 -0.8212  0.5983
  170DOPC  H11X20737   5.760   7.209   7.108 -0.0301  1.2114  0.9368
  170DOPC  H11Y20738   5.607   7.221   7.199  1.4754 -0.0345  0.4232
  170DOPC  C31220739   5.587   7.170   6.992  0.3427 -0.1113  0.0122
  170DOPC  H12X20740   5.482   7.157   7.026  0.6385  1.4210  1.6109
  170DOPC  H12Y20741   5.611   7.093   6.915  0.5828 -0.1301  0.1079
  170DOPC  C31320742   5.607   7.308   6.932  0.4773  0.1764 -0.4439
  170DOPC  H13X20743   5.583   7.389   7.004  0.3641  0.6750 -1.0295
  170DOPC  H13Y20744   5.714   7.319   6.906 -0.1559  4.1487 -2.2257
  170DOPC  C31420745   5.539   7.337   6.795 -0.0478 -0.0635 -0.3290
  170DOPC  H14X20746   5.584   7.263   6.725  2.5297 -1.2954  2.4105
  170DOPC  H14Y20747   5.429   7.327   6.805 -0.3543  0.8564 -2.2849
  170DOPC  C31520748   5.582   7.463   6.732 -0.1290 -0.5059  0.0763
  170DOPC  H15X20749   5.680   7.450   6.683 -0.5165 -1.0360 -0.5840
  170DOPC  H15Y20750   5.591   7.544   6.807  2.6162 -0.2605 -0.4254
  170DOPC  C31620751   5.486   7.526   6.625 -0.6843  0.2724  0.1281
  170DOPC  H16X20752   5.385   7.543   6.667 -0.0797 -0.0086  1.7356
  170DOPC  H16Y20753   5.519   7.628   6.594 -0.3120 -0.2163 -1.1680
  170DOPC  C31720754   5.470   7.445   6.494  0.1859  0.5161 -0.3553
  170DOPC  H17X20755   5.451   7.338   6.517  0.7069  0.4627 -0.1589
  170DOPC  H17Y20756   5.387   7.488   6.434 -0.5176 -0.1275  0.1377
  170DOPC  C31820757   5.598   7.461   6.409  0.5610 -0.2479 -0.2381
  170DOPC  H18X20758   5.689   7.419   6.458 -1.3568 -3.2039  1.0592
  170DOPC  H18Y20759   5.583   7.423   6.306 -2.8175  0.9172 -0.2954
  170DOPC  H18Z20760   5.626   7.568   6.398 -1.7302  0.5631  1.2156
  171DOPC     N20761   2.779   2.826   3.806 -0.3182 -0.1527  0.1120
  171DOPC   C1220762   2.812   2.673   3.796  0.1465 -0.3393  0.0568
  171DOPC  H12A20763   2.759   2.635   3.710 -0.5365 -0.0449  0.3353
  171DOPC  H12B20764   2.766   2.614   3.874  0.2819  0.3267  0.6463
  171DOPC   C1320765   2.805   2.884   3.669  0.4849 -0.3622  0.6922
  171DOPC  H13A20766   2.740   2.839   3.597 -0.3515  2.1551 -0.2464
  171DOPC  H13B20767   2.783   2.990   3.676 -0.6554 -0.4899 -0.6720
  171DOPC  H13C20768   2.909   2.874   3.641  0.7342  1.4676  0.8364
  171DOPC   C1420769   2.857   2.889   3.911  0.4030 -0.7393  0.5053
  171DOPC  H14A20770   2.855   2.995   3.890 -1.8154 -0.5706  1.3659
  171DOPC  H14B20771   2.815   2.874   4.009 -0.2434 -1.0598  0.1810
  171DOPC  H14C20772   2.956   2.847   3.922  0.3966 -0.6160  1.0319
  171DOPC   C1520773   2.634   2.858   3.837  0.1354 -1.1645  0.2261
  171DOPC  H15A20774   2.609   2.825   3.937 -1.8544  1.2201  0.6202
  171DOPC  H15B20775   2.572   2.794   3.775 -2.0200  0.5367  0.4712
  171DOPC  H15C20776   2.612   2.964   3.837  0.8022 -0.9860  2.2436
  171DOPC   C1120777   2.959   2.637   3.780 -0.3481  0.7476  1.2106
  171DOPC  H11A20778   2.973   2.537   3.734 -2.4652  0.8430  0.2620
  171DOPC  H11B20779   2.997   2.695   3.693 -3.1672  2.9860  1.3189
  171DOPC     P20780   3.025   2.532   4.008 -0.2113  0.3016  0.4407
  171DOPC   O1320781   2.950   2.420   3.954 -0.8038 -0.2364 -0.6074
  171DOPC   O1420782   2.991   2.580   4.139 -0.3402  0.0900  0.5546
  171DOPC   O1220783   3.031   2.649   3.901 -0.0371 -0.9266 -0.5263
  171DOPC   O1120784   3.178   2.498   4.019  0.0952  0.3130  0.0861
  171DOPC    C120785   3.273   2.582   4.089 -0.6205 -0.5991  0.0230
  171DOPC    HA20786   3.236   2.584   4.194 -1.1759 -1.5454 -0.1376
  171DOPC    HB20787   3.281   2.686   4.050 -1.5002 -0.3009  0.5821
  171DOPC    C220788   3.414   2.521   4.095 -0.1656 -0.0363 -0.4498
  171DOPC    HS20789   3.451   2.512   3.990  1.1916  1.1246 -0.0973
  171DOPC   O2120790   3.407   2.401   4.181 -0.0561 -0.2338 -0.2492
  171DOPC   C2120791   3.512   2.325   4.154 -0.2856  0.3935  0.7495
  171DOPC   O2220792   3.598   2.349   4.068 -0.7064 -0.1803 -0.3505
  171DOPC   C2220793   3.508   2.200   4.240 -0.0278  0.1335  0.4002
  171DOPC   H2R20794   3.479   2.120   4.168 -1.6743  0.0163  1.1471
  171DOPC   H2S20795   3.431   2.205   4.321 -0.7914  0.3338 -0.3217
  171DOPC    C320796   3.514   2.621   4.169  0.5360  0.5589  0.1174
  171DOPC    HX20797   3.530   2.716   4.116  0.6806  0.2361 -0.4235
  171DOPC    HY20798   3.614   2.573   4.169 -0.3630 -1.4322  0.2014
  171DOPC   O3120799   3.481   2.635   4.305  0.2214  0.4495 -0.1587
  171DOPC   C3120800   3.536   2.742   4.366  0.2577  0.6310 -0.2273
  171DOPC   O3220801   3.586   2.837   4.305  0.0355  0.4886 -0.2873
  171DOPC   C3220802   3.539   2.719   4.520  0.0781 -0.3231 -0.0649
  171DOPC   H2X20803   3.433   2.725   4.552  0.2505 -0.9302  0.6556
  171DOPC   H2Y20804   3.576   2.617   4.542  0.1923 -0.1181  0.7379
  171DOPC   C2320805   3.654   2.187   4.289 -0.0517 -0.0779 -0.1477
  171DOPC   H3R20806   3.724   2.186   4.202 -2.0927  0.4914 -1.8776
  171DOPC   H3S20807   3.667   2.086   4.332 -2.3053 -0.1988  0.3826
  171DOPC   C2420808   3.690   2.294   4.396  0.0376  0.1995  0.7160
  171DOPC   H4R20809   3.687   2.394   4.349  0.8521 -0.3939 -0.6638
  171DOPC   H4S20810   3.794   2.261   4.419  0.0520 -0.0589  0.2950
  171DOPC   C2520811   3.593   2.286   4.516 -0.1190  0.0399  0.5407
  171DOPC   H5R20812   3.567   2.179   4.523  0.0439  0.0659  1.8513
  171DOPC   H5S20813   3.501   2.345   4.493  0.1446  0.6263  0.9470
  171DOPC   C2620814   3.661   2.328   4.644 -0.0862  0.3633 -0.6940
  171DOPC   H6R20815   3.718   2.419   4.617  2.9528 -1.6708 -1.5766
  171DOPC   H6S20816   3.728   2.240   4.659 -1.4908 -0.6127  0.1656
  171DOPC   C2720817   3.579   2.342   4.776 -0.2868  0.0112 -0.5256
  171DOPC   H7R20818   3.504   2.423   4.761 -2.4532 -1.9344 -0.9134
  171DOPC   H7S20819   3.646   2.363   4.862  0.5667  2.4780 -1.6844
  171DOPC   C2820820   3.499   2.208   4.798  0.2221 -0.0647  0.4871
  171DOPC   H8R20821   3.577   2.129   4.796  1.0302  0.7266  0.2089
  171DOPC   H8S20822   3.439   2.196   4.705 -1.3724  0.6659  1.3665
  171DOPC   C2920823   3.410   2.210   4.921  0.5340  1.0094  0.5614
  171DOPC   H9R20824   3.306   2.228   4.891  0.0728 -0.2530  1.3141
  171DOPC  C21020825   3.433   2.183   5.051 -0.1998 -0.2429  0.6204
  171DOPC  H10R20826   3.347   2.190   5.120 -2.5642 -0.8645 -2.0930
  171DOPC  C21120827   3.564   2.156   5.117 -0.5767 -0.4270 -0.2724
  171DOPC  H11R20828   3.635   2.122   5.039 -0.5685 -2.6102  0.6139
  171DOPC  H11S20829   3.554   2.067   5.183  2.2612 -1.1848 -0.7186
  171DOPC  C21220830   3.621   2.263   5.211  0.1566 -0.1875  1.0752
  171DOPC  H12R20831   3.632   2.356   5.150  0.3222 -0.4722  0.6657
  171DOPC  H12S20832   3.717   2.224   5.251 -0.2206 -1.2481  0.9749
  171DOPC  C21320833   3.539   2.286   5.340  0.0129  0.4463  0.3985
  171DOPC  H13R20834   3.533   2.192   5.400  2.1035 -0.6051 -0.9121
  171DOPC  H13S20835   3.435   2.322   5.322 -0.3746 -0.2869  1.1084
  171DOPC  C21420836   3.614   2.389   5.419  0.2894 -0.1508 -0.3978
  171DOPC  H14R20837   3.597   2.486   5.367 -2.1204 -1.4629 -2.2517
  171DOPC  H14S20838   3.722   2.363   5.414  1.3520  3.6660 -0.6249
  171DOPC  C21520839   3.564   2.408   5.564 -0.4495 -0.3164  1.0011
  171DOPC  H15R20840   3.454   2.427   5.572 -0.3792  0.3166  0.5332
  171DOPC  H15S20841   3.601   2.504   5.606  0.1404 -0.1505  0.1307
  171DOPC  C21620842   3.615   2.294   5.657  0.1597 -0.4517 -0.2139
  171DOPC  H16R20843   3.725   2.312   5.655  0.0558  1.1723  2.7086
  171DOPC  H16S20844   3.591   2.193   5.619 -2.5222  0.4722 -1.1763
  171DOPC  C21720845   3.552   2.320   5.796  0.1056  0.1567 -0.1926
  171DOPC  H17R20846   3.557   2.425   5.832  3.1146  0.3139 -0.7773
  171DOPC  H17S20847   3.604   2.268   5.879 -0.9905  0.2449  0.5775
  171DOPC  C21820848   3.402   2.271   5.806 -0.6488 -0.5346 -0.9179
  171DOPC  H18R20849   3.348   2.302   5.899 -0.7554 -1.9802 -0.4653
  171DOPC  H18S20850   3.389   2.162   5.789 -0.0020 -0.1506 -4.4556
  171DOPC  H18T20851   3.343   2.315   5.724  2.3625 -1.1154 -3.5962
  171DOPC   C3320852   3.620   2.835   4.592 -0.0735  0.1806  1.0702
  171DOPC   H3X20853   3.579   2.935   4.565  0.8624 -0.1903 -2.0804
  171DOPC   H3Y20854   3.721   2.832   4.546 -1.4384 -0.7962 -2.1353
  171DOPC   C3420855   3.625   2.802   4.743 -0.1841  0.5664  0.5064
  171DOPC   H4X20856   3.625   2.900   4.796 -1.2106  0.5872  0.4972
  171DOPC   H4Y20857   3.714   2.744   4.773 -0.1951  0.7114  0.8237
  171DOPC   C3520858   3.505   2.739   4.817  0.4802 -0.4495  0.3708
  171DOPC   H5X20859   3.485   2.634   4.787 -0.1725 -0.5453  1.1144
  171DOPC   H5Y20860   3.432   2.814   4.780  2.3459  1.5841  0.5697
  171DOPC   C3620861   3.508   2.749   4.970 -0.1322 -0.0906  0.7912
  171DOPC   H6X20862   3.521   2.855   4.999  0.2853  1.0302 -3.0142
  171DOPC   H6Y20863   3.412   2.706   5.007 -0.8907 -1.3952 -2.3670
  171DOPC   C3720864   3.612   2.648   5.030  0.0540 -0.3699  0.4312
  171DOPC   H7X20865   3.580   2.542   5.020 -0.8409 -0.0300 -0.5068
  171DOPC   H7Y20866   3.712   2.654   4.981 -0.7453 -0.3864 -1.2588
  171DOPC   C3820867   3.622   2.667   5.184  0.0167 -0.2453  0.1215
  171DOPC   H8X20868   3.674   2.577   5.223  0.4755  0.2517  0.6759
  171DOPC   H8Y20869   3.517   2.671   5.218 -0.4313 -0.1536 -1.1916
  171DOPC   C3920870   3.693   2.797   5.214  0.2185 -0.0415  0.4763
  171DOPC   H9X20871   3.773   2.804   5.139 -0.6864 -0.2028 -0.5364
  171DOPC  C31020872   3.676   2.877   5.316 -0.2004 -0.4225  0.4566
  171DOPC  H10X20873   3.760   2.944   5.338 -1.7207  1.5946  0.4602
  171DOPC  C31120874   3.576   2.869   5.430  0.2903 -0.5430 -0.1421
  171DOPC  H11X20875   3.490   2.803   5.404  0.5866 -1.1118  0.3058
  171DOPC  H11Y20876   3.525   2.966   5.448 -2.1844 -1.7211 -0.3217
  171DOPC  C31220877   3.626   2.816   5.571 -0.2566  0.5653  0.0813
  171DOPC  H12X20878   3.698   2.894   5.602  2.0347 -1.3272 -0.1817
  171DOPC  H12Y20879   3.675   2.718   5.556 -1.0530 -0.0781  1.4713
  171DOPC  C31320880   3.521   2.796   5.678  0.9323  0.2302  0.0120
  171DOPC  H13X20881   3.457   2.886   5.683 -1.1421 -1.0795 -1.1100
  171DOPC  H13Y20882   3.465   2.701   5.661  0.7657  0.3730 -0.2482
  171DOPC  C31420883   3.579   2.762   5.814 -0.0708 -0.3776 -0.5006
  171DOPC  H14X20884   3.665   2.695   5.795 -0.0118 -0.1027 -1.2744
  171DOPC  H14Y20885   3.612   2.854   5.867 -0.1098 -1.8405  2.2108
  171DOPC  C31520886   3.488   2.692   5.919  0.2822  0.6011 -0.4497
  171DOPC  H15X20887   3.437   2.599   5.887 -0.2002  0.2090  1.3071
  171DOPC  H15Y20888   3.408   2.768   5.935 -2.5411 -2.0845 -0.7875
  171DOPC  C31620889   3.562   2.665   6.052  0.6363 -0.0296  0.0989
  171DOPC  H16X20890   3.658   2.613   6.028  0.9433 -1.4131  3.7056
  171DOPC  H16Y20891   3.595   2.755   6.107 -1.2947  0.5853  0.3100
  171DOPC  C31720892   3.474   2.564   6.135 -1.2584  0.2320  0.0789
  171DOPC  H17X20893   3.388   2.611   6.187  0.3758  1.3922  1.8502
  171DOPC  H17Y20894   3.445   2.482   6.065  0.0751  0.8633 -1.2718
  171DOPC  C31820895   3.573   2.497   6.233 -0.2307 -1.0031  0.2010
  171DOPC  H18X20896   3.522   2.448   6.318  1.4568 -0.0075  1.8486
  171DOPC  H18Y20897   3.616   2.409   6.179  0.4640 -0.1323 -0.6969
  171DOPC  H18Z20898   3.651   2.564   6.273  1.7377 -1.8554 -1.9886
  172DOPC     N20899   2.017   4.050   3.686 -0.4938  0.3973  0.1413
  172DOPC   C1220900   2.010   3.889   3.696 -0.3278 -0.5531 -0.5953
  172DOPC  H12A20901   2.095   3.851   3.641  1.9368  0.6649  1.8202
  172DOPC  H12B20902   1.920   3.864   3.642  0.7157  1.0263 -3.2939
  172DOPC   C1320903   1.905   4.110   3.762  0.2145  0.2015 -0.4000
  172DOPC  H13A20904   1.930   4.110   3.867  1.3166  0.6201 -0.6453
  172DOPC  H13B20905   1.875   4.211   3.738 -2.6044  0.2068  2.4067
  172DOPC  H13C20906   1.810   4.060   3.753 -0.8351  2.0970 -0.4917
  172DOPC   C1420907   1.995   4.086   3.541  0.0484  0.8395  0.1790
  172DOPC  H14A20908   1.904   4.038   3.507  0.2010  1.2911 -0.9011
  172DOPC  H14B20909   1.976   4.191   3.528 -0.5307  0.8967  1.3291
  172DOPC  H14C20910   2.080   4.057   3.482  0.2607 -0.0600  0.8965
  172DOPC   C1520911   2.151   4.104   3.725  0.1956 -0.4197 -0.0636
  172DOPC  H15A20912   2.220   4.057   3.657  0.9541  1.1065 -0.4040
  172DOPC  H15B20913   2.183   4.063   3.820  0.7188  0.7741  0.3000
  172DOPC  H15C20914   2.152   4.212   3.727 -0.1834 -0.3652 -1.5421
  172DOPC   C1120915   2.012   3.824   3.837 -0.4374  0.3267  0.3674
  172DOPC  H11A20916   1.923   3.875   3.879 -0.1665  1.5621 -0.4842
  172DOPC  H11B20917   1.979   3.718   3.842  1.6646 -0.5220 -1.5994
  172DOPC     P20918   2.264   3.784   3.894 -0.2556  0.5129  0.0331
  172DOPC   O1320919   2.378   3.862   3.954 -0.1985 -0.0859 -0.4541
  172DOPC   O1420920   2.278   3.769   3.745  0.4243 -0.3094  0.2165
  172DOPC   O1220921   2.125   3.858   3.922 -0.2978  0.2301  0.0675
  172DOPC   O1120922   2.241   3.640   3.958 -0.3749  0.8036 -0.2965
  172DOPC    C120923   2.201   3.654   4.101 -0.0837  0.1879  0.2861
  172DOPC    HA20924   2.096   3.690   4.104 -0.6304 -0.9334 -2.4212
  172DOPC    HB20925   2.273   3.723   4.150  0.1714  0.4266 -0.4126
  172DOPC    C220926   2.201   3.515   4.172 -0.0429 -0.6621  0.3983
  172DOPC    HS20927   2.112   3.462   4.133  1.4188 -2.6140 -0.4735
  172DOPC   O2120928   2.190   3.537   4.322  0.3472  0.2151  0.4538
  172DOPC   C2120929   2.116   3.441   4.377  0.3223  0.4177 -0.0455
  172DOPC   O2220930   2.069   3.341   4.317 -0.2910  0.0260  0.5900
  172DOPC   C2220931   2.093   3.472   4.523 -0.0798  0.8819  0.4984
  172DOPC   H2R20932   2.002   3.416   4.553 -0.3540  1.3252  0.4952
  172DOPC   H2S20933   2.072   3.581   4.527 -1.5289  0.7266 -1.3955
  172DOPC    C320934   2.331   3.436   4.149 -0.0671 -0.2991  0.2755
  172DOPC    HX20935   2.333   3.417   4.039  0.5917  0.0336  0.2282
  172DOPC    HY20936   2.317   3.341   4.205 -2.0254 -1.0998 -1.4104
  172DOPC   O3120937   2.455   3.507   4.177  0.4068  0.2229 -0.1222
  172DOPC   C3120938   2.524   3.497   4.293  0.4814 -0.2596 -0.2329
  172DOPC   O3220939   2.491   3.418   4.383  0.4188 -0.4152  0.1206
  172DOPC   C3220940   2.645   3.588   4.312 -0.6122  0.6669 -0.0825
  172DOPC   H2X20941   2.697   3.554   4.404  0.4010  0.1511 -0.8168
  172DOPC   H2Y20942   2.705   3.566   4.221  0.0164  2.3442 -0.1049
  172DOPC   C2320943   2.214   3.422   4.609  0.4794  0.0067 -0.3182
  172DOPC   H3R20944   2.302   3.486   4.586  0.0286  0.3108 -1.2760
  172DOPC   H3S20945   2.239   3.318   4.579  1.6102  0.2616 -0.2764
  172DOPC   C2420946   2.195   3.433   4.763  0.7076 -0.0039  0.0914
  172DOPC   H4R20947   2.286   3.389   4.808  0.7105  1.3638  1.5181
  172DOPC   H4S20948   2.106   3.375   4.796  0.0573  0.0792 -1.4468
  172DOPC   C2520949   2.174   3.581   4.812 -0.3342  0.1230 -0.8535
  172DOPC   H5R20950   2.121   3.652   4.745 -0.3164  2.2430  1.2356
  172DOPC   H5S20951   2.275   3.617   4.840 -0.0235  0.2105 -2.0415
  172DOPC   C2620952   2.095   3.591   4.941 -0.0051 -0.1648 -0.5317
  172DOPC   H6R20953   2.150   3.539   5.023  2.0242  1.2650 -0.9096
  172DOPC   H6S20954   1.992   3.550   4.936 -1.0083  2.0733  0.1702
  172DOPC   C2720955   2.093   3.743   4.993 -0.8083  0.7408  0.1355
  172DOPC   H7R20956   2.024   3.799   4.927 -1.1386  1.3073  0.9415
  172DOPC   H7S20957   2.188   3.799   4.979 -0.5692 -0.2146 -2.7262
  172DOPC   C2820958   2.037   3.759   5.131 -0.3285 -0.4924 -0.4382
  172DOPC   H8R20959   1.931   3.727   5.129  0.5379 -3.7238 -0.3065
  172DOPC   H8S20960   2.039   3.869   5.146  2.9028 -0.1972 -2.1278
  172DOPC   C2920961   2.113   3.687   5.243  0.6442  0.5322  0.1534
  172DOPC   H9R20962   2.222   3.702   5.240  1.0421 -1.4535  2.0093
  172DOPC  C21020963   2.066   3.597   5.326  0.3145  0.0722 -0.0235
  172DOPC  H10R20964   2.130   3.536   5.392  0.2501  1.0594  0.9825
  172DOPC  C21120965   1.917   3.580   5.350  0.6094 -0.0834 -0.5700
  172DOPC  H11R20966   1.899   3.474   5.380 -0.0125  0.6134  1.6958
  172DOPC  H11S20967   1.863   3.593   5.253  2.5837  2.3469 -1.4270
  172DOPC  C21220968   1.862   3.675   5.460 -0.8340 -0.3000  0.1239
  172DOPC  H12R20969   1.868   3.780   5.423 -2.7437 -0.5641 -1.0628
  172DOPC  H12S20970   1.929   3.665   5.548 -1.2595  1.9617  0.7840
  172DOPC  C21320971   1.724   3.632   5.506  0.5575  0.4452  0.5600
  172DOPC  H13R20972   1.728   3.528   5.545 -0.5204 -0.0382 -0.5520
  172DOPC  H13S20973   1.644   3.635   5.429  0.1655  0.8208  0.9695
  172DOPC  C21420974   1.666   3.726   5.619  0.9796 -0.2460  0.4311
  172DOPC  H14R20975   1.592   3.657   5.664 -0.3412  0.1424 -1.0768
  172DOPC  H14S20976   1.619   3.815   5.573  0.7567 -1.0257 -0.9181
  172DOPC  C21520977   1.767   3.769   5.729  0.3789 -0.0306  0.0321
  172DOPC  H15R20978   1.865   3.811   5.696  1.2675 -1.2135  1.0777
  172DOPC  H15S20979   1.802   3.679   5.784  0.7661 -0.0312 -0.2104
  172DOPC  C21620980   1.701   3.873   5.824 -0.6533  0.2450 -0.2733
  172DOPC  H16R20981   1.608   3.836   5.871 -0.6262 -0.5995 -0.8593
  172DOPC  H16S20982   1.690   3.969   5.770 -0.0583  0.7459  0.4866
  172DOPC  C21720983   1.789   3.900   5.945  0.0743 -0.3512 -0.1193
  172DOPC  H17R20984   1.894   3.917   5.912  0.0010  0.3257 -0.0344
  172DOPC  H17S20985   1.785   3.812   6.012  0.9463  1.5928  2.6968
  172DOPC  C21820986   1.734   4.016   6.024  0.7131 -1.2993 -0.6145
  172DOPC  H18R20987   1.717   4.112   5.971 -0.5782 -0.7800  0.6799
  172DOPC  H18S20988   1.803   4.039   6.108  2.9032  0.1295 -2.6695
  172DOPC  H18T20989   1.633   3.992   6.063  0.3946  1.3279  0.4024
  172DOPC   C3320990   2.606   3.737   4.305  0.3075 -0.0192  0.5154
  172DOPC   H3X20991   2.509   3.743   4.251  1.0617 -2.2429 -1.2574
  172DOPC   H3Y20992   2.681   3.795   4.246  0.1977 -0.5274 -0.1339
  172DOPC   C3420993   2.589   3.803   4.437 -0.8948 -0.9174 -0.5875
  172DOPC   H4X20994   2.573   3.910   4.412 -0.6008 -0.4365  1.2046
  172DOPC   H4Y20995   2.688   3.798   4.486 -0.0369  0.8471 -2.0253
  172DOPC   C3520996   2.463   3.763   4.528  0.0646  0.2692 -0.5439
  172DOPC   H5X20997   2.420   3.668   4.488  0.5531  0.3051 -1.1707
  172DOPC   H5Y20998   2.390   3.846   4.516 -0.8756 -0.2466  1.1745
  172DOPC   C3620999   2.503   3.740   4.675 -0.3674 -0.2774 -1.0216
  172DOPC   H6X21000   2.585   3.810   4.701  1.8797 -2.1479 -2.6530
  172DOPC   H6Y21001   2.422   3.765   4.747  1.2112 -1.9291  1.4790
  172DOPC   C3721002   2.569   3.605   4.702 -0.4248  0.0400 -0.1777
  172DOPC   H7X21003   2.500   3.522   4.677  0.9626 -1.1820 -0.1118
  172DOPC   H7Y21004   2.651   3.589   4.628  0.7389  1.2801  0.7676
  172DOPC   C3821005   2.602   3.602   4.856 -0.0286 -0.1663  0.0269
  172DOPC   H8X21006   2.539   3.671   4.914 -0.4607 -0.4716 -0.0704
  172DOPC   H8Y21007   2.703   3.648   4.857 -0.1890  0.1785  0.1778
  172DOPC   C3921008   2.610   3.456   4.903  0.3398 -0.7300 -0.0027
  172DOPC   H9X21009   2.691   3.397   4.857  2.2220  1.3464  0.4706
  172DOPC  C31021010   2.537   3.398   5.005  0.5153 -0.5866 -0.2009
  172DOPC  H10X21011   2.559   3.297   5.044 -0.9417 -0.3888  1.2662
  172DOPC  C31121012   2.425   3.458   5.084  0.4203 -0.4913 -0.2467
  172DOPC  H11X21013   2.340   3.390   5.063 -1.1017  1.3005 -0.1483
  172DOPC  H11Y21014   2.388   3.559   5.056  0.4205 -0.3894  0.1229
  172DOPC  C31221015   2.448   3.447   5.234  0.0471 -0.1289  0.2735
  172DOPC  H12X21016   2.473   3.340   5.251  1.1816 -0.2342 -1.6528
  172DOPC  H12Y21017   2.349   3.464   5.282  0.4732 -1.5305  1.7591
  172DOPC  C31321018   2.545   3.547   5.296  0.2807  1.0139 -0.1039
  172DOPC  H13X21019   2.648   3.511   5.312 -0.7871 -2.1216  0.5020
  172DOPC  H13Y21020   2.559   3.629   5.223 -0.2526 -0.0581 -1.4390
  172DOPC  C31421021   2.509   3.604   5.434  0.7765  0.0240 -0.3587
  172DOPC  H14X21022   2.404   3.639   5.439 -0.2212 -2.8317  1.4619
  172DOPC  H14Y21023   2.510   3.520   5.507 -1.7022 -1.3623 -1.7875
  172DOPC  C31521024   2.608   3.719   5.468 -0.1833 -0.0329  0.4020
  172DOPC  H15X21025   2.597   3.787   5.381  0.3073  1.2247  1.2869
  172DOPC  H15Y21026   2.715   3.697   5.486  0.0325  0.0589 -0.7387
  172DOPC  C31621027   2.568   3.793   5.600  0.0343 -0.6697  0.4937
  172DOPC  H16X21028   2.491   3.866   5.569 -1.9861 -2.6343  0.5962
  172DOPC  H16Y21029   2.510   3.728   5.669  2.3229 -2.4655  0.8733
  172DOPC  C31721030   2.693   3.847   5.681  0.2786 -0.6296  0.0898
  172DOPC  H17X21031   2.736   3.766   5.744  1.1693  0.9615  1.6222
  172DOPC  H17Y21032   2.760   3.869   5.595 -1.7134  0.0352 -1.3602
  172DOPC  C31821033   2.656   3.961   5.777  0.3770 -0.1034 -0.5872
  172DOPC  H18X21034   2.752   4.009   5.805  0.5888 -0.2018 -1.1452
  172DOPC  H18Y21035   2.585   4.038   5.738 -0.5245 -0.3580  0.4849
  172DOPC  H18Z21036   2.607   3.921   5.868  0.2595  3.6989  1.2500
  173DOPC     N21037   0.526   2.989   3.732  0.2198 -0.7237 -0.3685
  173DOPC   C1221038   0.449   2.945   3.853  0.1004 -0.4596  0.0313
  173DOPC  H12A21039   0.499   2.859   3.895  0.2950 -0.0781  0.5982
  173DOPC  H12B21040   0.351   2.920   3.815 -0.4228  3.4144 -1.7234
  173DOPC   C1321041   0.496   2.898   3.615 -0.4135 -0.3736 -0.2464
  173DOPC  H13A21042   0.514   2.797   3.647 -0.9268  0.6999  4.0101
  173DOPC  H13B21043   0.394   2.907   3.580 -0.5937  0.9671  0.5445
  173DOPC  H13C21044   0.559   2.925   3.531  0.5639 -0.5125  0.4298
  173DOPC   C1421045   0.676   2.990   3.749  0.0297  0.4761  0.7018
  173DOPC  H14A21046   0.721   3.063   3.814  2.4809 -1.4526  1.2893
  173DOPC  H14B21047   0.713   2.897   3.788 -0.2222 -0.0182 -0.2074
  173DOPC  H14C21048   0.733   3.000   3.658 -0.1959  0.0093  0.5041
  173DOPC   C1521049   0.476   3.122   3.693 -0.2191 -0.0724 -0.0929
  173DOPC  H15A21050   0.389   3.099   3.633 -1.5956 -0.1407  1.8574
  173DOPC  H15B21051   0.550   3.175   3.635 -0.6121  1.7905  1.0281
  173DOPC  H15C21052   0.453   3.179   3.782 -1.2928 -0.4484 -0.1110
  173DOPC   C1121053   0.423   3.048   3.971 -0.1461  0.2568 -0.4485
  173DOPC  H11A21054   0.394   2.991   4.062  0.4589  0.5158 -0.0842
  173DOPC  H11B21055   0.519   3.100   3.994 -1.5634  2.7668  0.1702
  173DOPC     P21056   0.169   3.095   3.911 -0.0424 -0.5107  0.0591
  173DOPC   O1321057   0.169   2.973   3.832  0.6497  0.0137  0.0603
  173DOPC   O1421058   0.102   3.221   3.863  0.3310  0.2309  0.2583
  173DOPC   O1221059   0.318   3.135   3.937  0.8972 -0.3986 -0.3105
  173DOPC   O1121060   0.108   3.057   4.052 -0.2297 -0.1799  0.1377
  173DOPC    C121061   0.097   3.162   4.151  0.3089 -0.4106  0.0744
  173DOPC    HA21062   0.010   3.149   4.219 -0.4954  1.8230 -0.4326
  173DOPC    HB21063   0.084   3.265   4.114 -1.7098 -0.4912  0.4587
  173DOPC    C221064   0.219   3.165   4.253 -0.1340  0.3286  0.2313
  173DOPC    HS21065   0.309   3.178   4.189 -0.3557  2.1332  0.2324
  173DOPC   O2121066   0.233   3.033   4.319  0.1686 -0.1236 -0.2572
  173DOPC   C2121067   0.354   2.982   4.342  0.1647 -0.4417 -0.6312
  173DOPC   O2221068   0.460   3.034   4.313  0.6490  0.2854  0.1334
  173DOPC   C2221069   0.340   2.853   4.427  0.1020 -1.0304 -0.4244
  173DOPC   H2R21070   0.425   2.788   4.398  1.4215  0.2667  0.3989
  173DOPC   H2S21071   0.245   2.804   4.399 -0.6105 -0.0263  0.1443
  173DOPC    C321072   0.207   3.280   4.357  0.8415  0.2292 -0.4143
  173DOPC    HX21073   0.182   3.370   4.297 -1.1224 -0.8635 -1.3373
  173DOPC    HY21074   0.297   3.296   4.420  0.3799  1.4194 -0.0322
  173DOPC   O3121075   0.093   3.252   4.439 -0.0808  0.3835 -0.1557
  173DOPC   C3121076   0.112   3.211   4.561 -0.5769  0.2172 -0.0273
  173DOPC   O3221077   0.224   3.212   4.613  0.6875 -0.4829 -0.1893
  173DOPC   C3221078  -0.013   3.163   4.623 -0.9304  0.1907  0.6411
  173DOPC   H2X21079  -0.096   3.232   4.598 -0.9875  0.1363  0.6781
  173DOPC   H2Y21080  -0.051   3.073   4.569  1.8368 -1.1713  0.7226
  173DOPC   C2321081   0.336   2.893   4.578  0.1233 -0.0469  0.4286
  173DOPC   H3R21082   0.246   2.954   4.602 -0.3448 -0.8819  0.8176
  173DOPC   H3S21083   0.414   2.968   4.603 -0.9292  0.5041  2.2355
  173DOPC   C2421084   0.335   2.778   4.677 -0.7698  0.5104  0.2790
  173DOPC   H4R21085   0.420   2.711   4.651  0.7460  1.9466  1.3061
  173DOPC   H4S21086   0.250   2.709   4.660  0.6491 -1.3126  0.2724
  173DOPC   C2521087   0.324   2.821   4.821  0.3311  0.4916 -0.0488
  173DOPC   H5R21088   0.230   2.879   4.834  0.9615  1.6279 -0.3664
  173DOPC   H5S21089   0.401   2.893   4.858  0.2397 -1.2012  3.9396
  173DOPC   C2621090   0.339   2.712   4.920  0.7386  0.9201  0.0739
  173DOPC   H6R21091   0.446   2.683   4.931  0.8661  0.6160 -1.6583
  173DOPC   H6S21092   0.293   2.624   4.869  1.6857  1.0381 -1.0323
  173DOPC   C2721093   0.267   2.736   5.056 -0.3596 -0.2688  0.2793
  173DOPC   H7R21094   0.157   2.730   5.043 -0.4005  1.2146 -0.3340
  173DOPC   H7S21095   0.293   2.834   5.102 -3.3974  0.0139  1.5640
  173DOPC   C2821096   0.298   2.627   5.168  0.7113  0.1108  0.0925
  173DOPC   H8R21097   0.258   2.527   5.140 -0.6344  0.8402 -0.7207
  173DOPC   H8S21098   0.228   2.652   5.251  1.9631 -2.2152  1.9666
  173DOPC   C2921099   0.441   2.632   5.226 -0.6736  0.1839  0.8155
  173DOPC   H9R21100   0.519   2.583   5.165 -2.2521 -1.5777  0.1205
  173DOPC  C21021101   0.478   2.693   5.339  0.0851  0.4751  0.1209
  173DOPC  H10R21102   0.583   2.708   5.367 -0.5882  1.0420  2.5795
  173DOPC  C21121103   0.383   2.769   5.431 -0.0729  0.2360 -0.7458
  173DOPC  H11R21104   0.300   2.800   5.364  0.4896  0.0424 -1.5485
  173DOPC  H11S21105   0.426   2.863   5.473 -0.9635  1.0497 -1.6070
  173DOPC  C21221106   0.335   2.672   5.545 -0.0507 -0.3504 -0.2304
  173DOPC  H12R21107   0.428   2.636   5.595  0.0155 -0.4117 -0.3976
  173DOPC  H12S21108   0.283   2.587   5.497 -0.4485 -0.4635  0.3881
  173DOPC  C21321109   0.247   2.734   5.654 -0.1615 -0.0900 -0.2183
  173DOPC  H13R21110   0.297   2.818   5.706  2.0548 -0.4496 -1.6171
  173DOPC  H13S21111   0.216   2.653   5.723  0.9100  1.2804  1.9633
  173DOPC  C21421112   0.115   2.788   5.602 -0.6863 -0.6398  0.2761
  173DOPC  H14R21113   0.050   2.710   5.558 -1.1851 -0.1436  0.1169
  173DOPC  H14S21114   0.127   2.859   5.517  0.7495 -2.3992 -1.0809
  173DOPC  C21521115   0.037   2.852   5.712 -0.7884 -0.7683 -0.1287
  173DOPC  H15R21116   0.096   2.925   5.772  0.5431 -1.9053  0.0053
  173DOPC  H15S21117   0.003   2.776   5.786 -0.8855  1.2102  1.9916
  173DOPC  C21621118  -0.097   2.911   5.664  0.0770  0.1119 -0.0591
  173DOPC  H16R21119  -0.147   2.938   5.760 -1.9452  1.1594 -1.3389
  173DOPC  H16S21120  -0.157   2.830   5.617 -0.9073  0.8392 -0.0798
  173DOPC  C21721121  -0.097   3.023   5.558  0.2490 -0.2580  0.3123
  173DOPC  H17R21122  -0.077   2.979   5.458  2.7942 -1.2634  1.1722
  173DOPC  H17S21123  -0.015   3.097   5.570  0.1337  0.0900 -0.8794
  173DOPC  C21821124  -0.245   3.068   5.557 -0.0094  0.3947  0.5773
  173DOPC  H18R21125  -0.307   2.993   5.504  1.5182  0.8840 -2.0892
  173DOPC  H18S21126  -0.259   3.165   5.505  0.9955  0.9894  1.3752
  173DOPC  H18T21127  -0.284   3.070   5.661 -2.1120 -2.5517 -0.0071
  173DOPC   C3321128  -0.003   3.132   4.773  0.4023  0.7410 -0.2824
  173DOPC   H3X21129   0.015   3.225   4.832  0.4850 -1.3892  3.3526
  173DOPC   H3Y21130   0.075   3.057   4.796  0.3597  0.8110  0.0913
  173DOPC   C3421131  -0.139   3.084   4.836  0.0342 -0.2161 -0.3844
  173DOPC   H4X21132  -0.189   3.032   4.751  2.2635 -0.2100 -1.7670
  173DOPC   H4Y21133  -0.196   3.171   4.874  1.4376  0.2752  0.6619
  173DOPC   C3521134  -0.102   2.990   4.951  0.4662  0.1036 -0.7357
  173DOPC   H5X21135  -0.034   2.921   4.896 -0.0425 -1.0970  0.1093
  173DOPC   H5Y21136  -0.198   2.945   4.983  0.4046 -0.5250 -1.7723
  173DOPC   C3621137  -0.023   3.051   5.068 -0.5778 -0.8339 -0.6118
  173DOPC   H6X21138   0.049   2.984   5.118 -1.7736 -0.8323  1.2015
  173DOPC   H6Y21139   0.036   3.134   5.023 -0.8580 -0.6504 -0.6460
  173DOPC   C3721140  -0.109   3.107   5.183 -0.0122 -0.8919  0.4168
  173DOPC   H7X21141  -0.191   3.040   5.216 -3.1749  1.6150 -1.7578
  173DOPC   H7Y21142  -0.032   3.101   5.263  0.8442  0.3981 -0.2758
  173DOPC   C3821143  -0.158   3.248   5.160 -0.5087 -0.4784  1.3978
  173DOPC   H8X21144  -0.245   3.271   5.225 -0.4877 -1.0471  1.6302
  173DOPC   H8Y21145  -0.187   3.258   5.053 -2.7731 -0.7451  1.9494
  173DOPC   C3921146  -0.059   3.361   5.189 -0.2279 -0.5033 -0.9034
  173DOPC   H9X21147   0.024   3.335   5.257 -0.7450 -0.5233 -0.2616
  173DOPC  C31021148  -0.067   3.483   5.137 -0.2067 -0.5136  0.0934
  173DOPC  H10X21149   0.004   3.561   5.167 -0.3911 -0.3001 -0.0132
  173DOPC  C31121150  -0.171   3.547   5.050 -0.3162 -0.7015  0.2913
  173DOPC  H11X21151  -0.189   3.652   5.082  0.1458 -1.3047  2.7083
  173DOPC  H11Y21152  -0.267   3.492   5.061 -0.1941 -0.5873  2.3906
  173DOPC  C31221153  -0.150   3.544   4.900  0.3854 -0.2145 -0.0217
  173DOPC  H12X21154  -0.110   3.447   4.864  1.2173  0.1007  0.0413
  173DOPC  H12Y21155  -0.067   3.611   4.871 -0.1929 -0.6003 -2.9275
  173DOPC  C31321156  -0.268   3.591   4.815 -0.5151  0.6359 -0.4288
  173DOPC  H13X21157  -0.363   3.533   4.827 -1.2541  1.7806 -0.5628
  173DOPC  H13Y21158  -0.312   3.686   4.852 -1.5259  0.3838 -0.9493
  173DOPC  C31421159  -0.231   3.596   4.666  0.4195  0.1300 -0.4283
  173DOPC  H14X21160  -0.136   3.652   4.659  0.6322 -0.0161  0.9683
  173DOPC  H14Y21161  -0.215   3.491   4.632  1.0662 -0.2191  0.8805
  173DOPC  C31521162  -0.330   3.656   4.563 -0.3903 -0.1250  1.3923
  173DOPC  H15X21163  -0.360   3.759   4.590 -1.5485 -0.1105  0.1607
  173DOPC  H15Y21164  -0.410   3.582   4.546  1.0485 -1.2367 -1.1807
  173DOPC  C31621165  -0.262   3.661   4.419 -1.0212  0.4135 -0.0893
  173DOPC  H16X21166  -0.333   3.709   4.349 -1.6355 -0.5434 -0.1315
  173DOPC  H16Y21167  -0.171   3.726   4.425 -0.5007 -0.3829  0.9827
  173DOPC  C31721168  -0.235   3.517   4.367  0.1470 -0.3586 -0.2452
  173DOPC  H17X21169  -0.149   3.480   4.427 -0.6392  1.4786  2.1948
  173DOPC  H17Y21170  -0.316   3.451   4.404  0.6373 -1.4199 -1.0427
  173DOPC  C31821171  -0.212   3.506   4.215 -0.2682  0.1176 -0.4543
  173DOPC  H18X21172  -0.130   3.574   4.183  1.7234 -1.6730  0.5537
  173DOPC  H18Y21173  -0.172   3.407   4.183  3.1741  0.7387  1.3517
  173DOPC  H18Z21174  -0.302   3.526   4.154 -0.8606  0.3606  0.4865
  174DOPC     N21175   4.220   1.563   3.382  0.0702 -0.1909 -0.4018
  174DOPC   C1221176   4.366   1.538   3.434  0.3939 -0.5181  0.0954
  174DOPC  H12A21177   4.420   1.462   3.380  1.6364 -0.5714  1.3581
  174DOPC  H12B21178   4.366   1.516   3.539  0.3820  0.7664  0.3830
  174DOPC   C1321179   4.226   1.565   3.236 -0.4648  0.1824 -0.0258
  174DOPC  H13A21180   4.123   1.572   3.204 -0.5226  1.1845  0.3609
  174DOPC  H13B21181   4.281   1.650   3.198 -1.0297 -0.1169 -1.6053
  174DOPC  H13C21182   4.278   1.477   3.202  0.3713  1.4305 -2.1757
  174DOPC   C1421183   4.166   1.690   3.435  0.5157  0.1119 -0.7770
  174DOPC  H14A21184   4.069   1.710   3.391  0.1455  4.1380  1.3271
  174DOPC  H14B21185   4.137   1.687   3.539  3.1678  1.2966  0.0852
  174DOPC  H14C21186   4.218   1.782   3.412 -1.7372  1.0579 -2.5281
  174DOPC   C1521187   4.136   1.449   3.423 -0.4497 -0.0489 -0.1917
  174DOPC  H15A21188   4.044   1.445   3.367 -0.2378 -0.0080 -0.5509
  174DOPC  H15B21189   4.119   1.439   3.529  1.7026 -0.1969  0.1947
  174DOPC  H15C21190   4.202   1.365   3.406  0.3133  0.3617  0.6306
  174DOPC   C1121191   4.465   1.663   3.433  0.6194 -0.6126 -0.6127
  174DOPC  H11A21192   4.566   1.628   3.463  2.2388  4.2406  0.6384
  174DOPC  H11B21193   4.469   1.705   3.330  2.3567  0.5704 -0.1164
  174DOPC     P21194   4.480   1.785   3.664  0.3779 -0.2536  0.1815
  174DOPC   O1321195   4.415   1.901   3.728  0.0310  0.0691 -0.3030
  174DOPC   O1421196   4.622   1.787   3.655 -0.2609 -0.4264 -0.2336
  174DOPC   O1221197   4.426   1.770   3.519 -0.3176 -0.5291 -0.4802
  174DOPC   O1121198   4.428   1.646   3.732  0.4573  0.1798  0.0076
  174DOPC    C121199   4.288   1.631   3.764  0.4924  0.5981 -0.2824
  174DOPC    HA21200   4.251   1.533   3.725 -4.5978  2.6569 -1.4979
  174DOPC    HB21201   4.233   1.704   3.701 -0.0130  0.6460  0.2069
  174DOPC    C221202   4.270   1.638   3.919 -0.7514  0.6620 -0.8668
  174DOPC    HS21203   4.169   1.597   3.938 -1.1648  1.3020 -1.6055
  174DOPC   O2121204   4.280   1.769   3.982 -0.0268  0.2694  0.2074
  174DOPC   C2121205   4.196   1.858   3.945  0.2210 -0.9502 -0.0556
  174DOPC   O2221206   4.093   1.839   3.883 -0.0051  0.3091  0.4973
  174DOPC   C2221207   4.233   1.993   3.996  0.2020 -0.0875  0.3029
  174DOPC   H2R21208   4.248   2.052   3.903 -2.4890 -1.2308 -0.9558
  174DOPC   H2S21209   4.323   2.007   4.060  0.3385 -0.4890  0.2057
  174DOPC    C321210   4.364   1.538   3.991 -0.5814 -0.8356 -0.1695
  174DOPC    HX21211   4.469   1.569   3.968 -1.4205  0.1910 -3.0486
  174DOPC    HY21212   4.349   1.438   3.944 -0.3674 -1.0836  0.2877
  174DOPC   O3121213   4.332   1.529   4.133  0.3484  0.3662 -0.3682
  174DOPC   C3121214   4.399   1.599   4.220  0.1688  0.3084  0.1855
  174DOPC   O3221215   4.494   1.669   4.198 -0.0054 -0.6328  0.1588
  174DOPC   C3221216   4.328   1.581   4.366  0.2521 -0.1687  0.5606
  174DOPC   H2X21217   4.223   1.614   4.353  1.0164  1.7663 -1.0747
  174DOPC   H2Y21218   4.347   1.475   4.395  0.7190 -0.3272 -0.2899
  174DOPC   C2321219   4.117   2.063   4.072  0.1623 -0.2059 -0.4822
  174DOPC   H3R21220   4.014   2.027   4.049 -0.7562  1.1413  1.2922
  174DOPC   H3S21221   4.106   2.165   4.030 -4.9906 -1.1901 -2.4094
  174DOPC   C2421222   4.151   2.076   4.216  0.4894  0.3450  0.2451
  174DOPC   H4R21223   4.241   2.138   4.231  2.5261 -2.3853  0.1496
  174DOPC   H4S21224   4.182   1.978   4.258 -0.0346 -0.0505 -0.2667
  174DOPC   C2521225   4.036   2.121   4.301 -0.7538  0.0107  0.2811
  174DOPC   H5R21226   3.963   2.038   4.306  0.5653 -1.1876  0.4370
  174DOPC   H5S21227   3.977   2.209   4.266 -0.0781  0.7132  0.8615
  174DOPC   C2621228   4.077   2.143   4.449 -0.0955  0.4871 -0.1613
  174DOPC   H6R21229   3.989   2.181   4.504  0.6469  1.1889  0.5560
  174DOPC   H6S21230   4.147   2.228   4.458  2.2428 -1.2231 -1.0830
  174DOPC   C2721231   4.126   2.002   4.507  0.2706 -0.5577  0.1906
  174DOPC   H7R21232   4.233   1.990   4.480 -0.2358  0.7254 -2.7243
  174DOPC   H7S21233   4.071   1.918   4.459  0.6599 -1.4244  1.2120
  174DOPC   C2821234   4.099   1.996   4.658 -0.0118 -0.4099 -0.2378
  174DOPC   H8R21235   4.120   2.088   4.717 -1.0650 -0.0407 -0.4141
  174DOPC   H8S21236   4.171   1.919   4.692  0.9921 -0.1459 -1.6673
  174DOPC   C2921237   3.955   1.941   4.676 -0.2333  0.3957  0.2882
  174DOPC   H9R21238   3.930   1.871   4.594 -0.5606  0.9083 -0.0522
  174DOPC  C21021239   3.865   1.969   4.773 -0.1754 -0.5281 -0.3268
  174DOPC  H10R21240   3.775   1.907   4.769 -1.5581  1.4090 -0.3255
  174DOPC  C21121241   3.886   2.068   4.885  0.2671  0.2849 -0.0812
  174DOPC  H11R21242   3.797   2.134   4.897  0.3694  0.6678 -1.3154
  174DOPC  H11S21243   3.983   2.122   4.895  0.7831 -0.8058  0.9916
  174DOPC  C21221244   3.901   1.992   5.020 -0.1679  0.2350 -0.2081
  174DOPC  H12R21245   3.976   1.909   5.016 -0.6584 -0.2042 -0.4545
  174DOPC  H12S21246   3.806   1.943   5.049 -1.5045  2.5657 -0.4113
  174DOPC  C21321247   3.937   2.084   5.138 -0.0818  0.5259  0.8882
  174DOPC  H13R21248   3.888   2.181   5.117  2.3189  1.6971  0.4268
  174DOPC  H13S21249   4.046   2.105   5.140  0.0114  0.0308  1.4723
  174DOPC  C21421250   3.912   2.022   5.274  0.1576  0.1897  0.3478
  174DOPC  H14R21251   3.944   1.916   5.278 -0.9996 -0.1533  0.8488
  174DOPC  H14S21252   3.803   2.027   5.294  0.2111 -2.9170  1.9379
  174DOPC  C21521253   3.979   2.108   5.380  0.6235  0.0843  0.3372
  174DOPC  H15R21254   3.932   2.208   5.388  0.3434  0.0524 -0.7803
  174DOPC  H15S21255   4.086   2.127   5.357  0.3402  1.0718 -0.1880
  174DOPC  C21621256   3.972   2.041   5.521  1.1063 -0.3200  0.7070
  174DOPC  H16R21257   3.993   1.933   5.506 -1.6460 -0.8735  0.4214
  174DOPC  H16S21258   3.872   2.056   5.567  0.7454  1.5040 -0.5630
  174DOPC  C21721259   4.066   2.104   5.618  0.2337  0.3171  0.4432
  174DOPC  H17R21260   4.037   2.211   5.625 -2.9401 -0.5140  1.8172
  174DOPC  H17S21261   4.170   2.086   5.584 -0.1786 -2.1226  0.3177
  174DOPC  C21821262   4.056   2.042   5.758  0.1440 -0.1463 -0.7795
  174DOPC  H18R21263   4.123   2.089   5.834 -2.6053  0.2423  1.5980
  174DOPC  H18S21264   4.071   1.932   5.759 -2.7441 -0.6197 -1.8093
  174DOPC  H18T21265   3.951   2.062   5.789  0.7648  0.9206  0.8217
  174DOPC   C3321266   4.384   1.667   4.484 -0.4624 -0.3283  0.0629
  174DOPC   H3X21267   4.362   1.774   4.461 -1.6420 -0.6974 -0.5984
  174DOPC   H3Y21268   4.494   1.655   4.492 -0.1985  2.0184  0.7042
  174DOPC   C3421269   4.326   1.629   4.618  0.3231  0.1501  0.4775
  174DOPC   H4X21270   4.316   1.521   4.643 -0.1197  0.3884  1.3519
  174DOPC   H4Y21271   4.221   1.666   4.615 -0.0917 -0.9890  0.3192
  174DOPC   C3521272   4.399   1.692   4.729  0.2399 -0.0426  0.6335
  174DOPC   H5X21273   4.411   1.799   4.700  1.9461 -0.2930  0.3297
  174DOPC   H5Y21274   4.501   1.648   4.730  1.0498  1.7304  0.7004
  174DOPC   C3621275   4.328   1.692   4.864  0.1266  0.2593  0.0829
  174DOPC   H6X21276   4.249   1.770   4.876 -0.4668 -0.0227 -1.6068
  174DOPC   H6Y21277   4.262   1.604   4.877 -1.8043  1.5800 -0.3705
  174DOPC   C3721278   4.434   1.686   4.982 -0.0016  0.0013  0.0866
  174DOPC   H7X21279   4.492   1.592   4.969  0.1648  0.4817 -3.5725
  174DOPC   H7Y21280   4.507   1.769   4.975 -1.5399  1.2753 -2.2877
  174DOPC   C3821281   4.381   1.681   5.126  0.2340  0.5996  0.0765
  174DOPC   H8X21282   4.467   1.699   5.194 -0.2051 -0.5453  0.9712
  174DOPC   H8Y21283   4.359   1.572   5.137  0.2697  0.6735  0.8806
  174DOPC   C3921284   4.258   1.765   5.152 -0.2231 -0.2746  0.6019
  174DOPC   H9X21285   4.172   1.755   5.084 -1.4199  1.4152  1.7885
  174DOPC  C31021286   4.251   1.857   5.246 -0.7008 -0.8253 -0.4388
  174DOPC  H10X21287   4.171   1.932   5.244  1.6689  1.8778 -0.4644
  174DOPC  C31121288   4.362   1.879   5.345  0.1787  0.0874 -0.2569
  174DOPC  H11X21289   4.376   1.985   5.374  3.6861 -0.7415  1.6921
  174DOPC  H11Y21290   4.464   1.863   5.303  0.9511  1.2395  1.1048
  174DOPC  C31221291   4.354   1.796   5.471 -0.6454 -0.0741 -0.0876
  174DOPC  H12X21292   4.362   1.689   5.442  1.0014  0.1775 -0.6941
  174DOPC  H12Y21293   4.263   1.815   5.531 -0.8767 -1.1524 -0.0733
  174DOPC  C31321294   4.473   1.818   5.569  0.1335  0.4262  0.2182
  174DOPC  H13X21295   4.482   1.722   5.623 -0.1785 -0.8861 -1.9317
  174DOPC  H13Y21296   4.567   1.832   5.512 -1.1644 -0.4084 -2.2856
  174DOPC  C31421297   4.443   1.920   5.677  0.0526  0.0675  0.2444
  174DOPC  H14X21298   4.404   2.011   5.626 -1.0017  0.0957  1.0695
  174DOPC  H14Y21299   4.365   1.872   5.739  0.3839 -1.6600 -0.6286
  174DOPC  C31521300   4.566   1.978   5.766 -0.0868 -0.4834  0.0014
  174DOPC  H15X21301   4.582   1.925   5.862  1.6447 -0.6859 -0.3755
  174DOPC  H15Y21302   4.543   2.078   5.808  1.0204 -0.2731  0.1159
  174DOPC  C31621303   4.697   2.007   5.680  0.3634  0.3703 -1.0135
  174DOPC  H16X21304   4.675   2.011   5.571 -1.4289 -0.1445 -0.7089
  174DOPC  H16Y21305   4.740   2.105   5.709 -1.6616  1.0464 -0.0748
  174DOPC  C31721306   4.815   1.913   5.719  0.1828  0.9785  0.3784
  174DOPC  H17X21307   4.907   1.958   5.676  1.3096 -1.1559  0.4167
  174DOPC  H17Y21308   4.818   1.907   5.830 -1.5905 -0.7647  0.3778
  174DOPC  C31821309   4.812   1.767   5.675  0.2972  0.7721  0.3004
  174DOPC  H18X21310   4.815   1.763   5.564 -3.1396  1.1720  0.1128
  174DOPC  H18Y21311   4.892   1.712   5.730 -0.9642 -0.2069  1.2175
  174DOPC  H18Z21312   4.713   1.736   5.715  0.4339 -0.1401 -0.0385
  175DOPC     N21313   2.843   5.166   3.568  0.8455 -0.0144  0.1880
  175DOPC   C1221314   2.816   5.143   3.713 -0.6493 -0.0339 -0.3875
  175DOPC  H12A21315   2.835   5.040   3.739  3.4540  0.5005 -0.6285
  175DOPC  H12B21316   2.710   5.160   3.726 -1.2956 -1.6726 -2.8611
  175DOPC   C1321317   2.769   5.063   3.486  0.2967 -0.5303  0.6029
  175DOPC  H13A21318   2.662   5.064   3.507  0.2147  0.4158  0.2161
  175DOPC  H13B21319   2.787   5.068   3.380  0.4233  1.9797  0.6645
  175DOPC  H13C21320   2.809   4.968   3.517  0.3564 -0.1853  1.6308
  175DOPC   C1421321   2.990   5.159   3.536  1.1837 -0.9199 -0.0537
  175DOPC  H14A21322   3.010   5.183   3.432 -0.7302  2.1314  0.1752
  175DOPC  H14B21323   3.045   5.231   3.594  0.8763  0.4430 -1.3909
  175DOPC  H14C21324   3.041   5.068   3.564 -1.5274 -2.4563  0.1932
  175DOPC   C1521325   2.790   5.298   3.510  0.5217  0.4173 -0.3209
  175DOPC  H15A21326   2.687   5.322   3.534  0.2920 -0.5722 -0.2817
  175DOPC  H15B21327   2.805   5.313   3.404 -2.3874  0.9467 -0.7351
  175DOPC  H15C21328   2.843   5.383   3.551  1.2623  0.3701 -1.1507
  175DOPC   C1121329   2.883   5.240   3.815  0.4065  0.7750 -0.4999
  175DOPC  H11A21330   2.878   5.348   3.790 -2.1835  1.3704  1.9999
  175DOPC  H11B21331   2.834   5.234   3.915  1.5758 -0.6869  0.0141
  175DOPC     P21332   3.075   5.075   3.885  0.2482  0.1069  0.0704
  175DOPC   O1321333   3.198   5.120   3.956  0.2011  0.0291 -0.4393
  175DOPC   O1421334   3.091   4.975   3.775 -0.0598  0.0989 -0.5257
  175DOPC   O1221335   3.016   5.204   3.825 -0.5896 -0.2900 -0.0246
  175DOPC   O1121336   2.969   5.035   3.990  1.2457 -0.3612  0.2329
  175DOPC    C121337   2.916   4.904   4.014 -0.2143 -0.3297  0.3078
  175DOPC    HA21338   2.985   4.843   4.076 -1.3402 -0.1513  1.7895
  175DOPC    HB21339   2.892   4.855   3.918 -2.1042 -0.7288  0.9419
  175DOPC    C221340   2.785   4.912   4.098  0.4186  0.5565  0.6135
  175DOPC    HS21341   2.708   4.957   4.032 -0.1247 -0.1654  0.7344
  175DOPC   O2121342   2.804   4.987   4.219 -0.4129  0.3923  0.4717
  175DOPC   C2121343   2.695   5.021   4.288 -0.2299  0.1432  0.6649
  175DOPC   O2221344   2.580   4.997   4.254 -0.4012 -0.4274 -0.2792
  175DOPC   C2221345   2.740   5.098   4.417 -0.1921 -0.3830  0.7557
  175DOPC   H2R21346   2.698   5.200   4.422  1.6971  0.3850  1.7730
  175DOPC   H2S21347   2.850   5.106   4.413 -0.3072  1.0296 -2.8888
  175DOPC    C321348   2.731   4.767   4.124 -0.3891  0.2196 -0.1571
  175DOPC    HX21349   2.692   4.727   4.028  0.8208 -0.7917 -0.2568
  175DOPC    HY21350   2.643   4.782   4.189  0.0394  2.1309  0.0440
  175DOPC   O3121351   2.823   4.673   4.179  0.0820  0.5386  0.1440
  175DOPC   C3121352   2.819   4.654   4.304 -0.9598 -0.3376  0.5889
  175DOPC   O3221353   2.746   4.699   4.389 -0.3812  0.2298 -0.6845
  175DOPC   C3221354   2.941   4.555   4.333 -0.2796  0.6014 -0.6654
  175DOPC   H2X21355   2.916   4.474   4.261 -0.7987  0.9934 -0.9352
  175DOPC   H2Y21356   3.039   4.606   4.318  0.9843 -1.4861  0.0699
  175DOPC   C2321357   2.708   5.024   4.543 -0.0073  0.2917 -0.1037
  175DOPC   H3R21358   2.756   4.924   4.540 -1.4909 -0.5355  1.5941
  175DOPC   H3S21359   2.599   5.004   4.553 -0.7669  1.1152 -4.6984
  175DOPC   C2421360   2.753   5.101   4.673  0.0087 -0.2966  1.1628
  175DOPC   H4R21361   2.710   5.203   4.666 -0.1035 -0.3868  0.4092
  175DOPC   H4S21362   2.864   5.097   4.679  0.0847 -1.4800 -0.3186
  175DOPC   C2521363   2.687   5.055   4.804 -0.0165 -0.9085 -0.3227
  175DOPC   H5R21364   2.577   5.068   4.796  0.0841  0.0552 -0.1848
  175DOPC   H5S21365   2.730   5.118   4.885 -0.4206 -0.5352 -0.3978
  175DOPC   C2621366   2.716   4.905   4.849 -0.2167 -0.3233  0.6022
  175DOPC   H6R21367   2.826   4.899   4.839 -0.2074 -0.3258  0.7047
  175DOPC   H6S21368   2.671   4.830   4.781  0.7888 -0.1301 -0.3063
  175DOPC   C2721369   2.675   4.878   4.992  0.3757  0.2389 -0.3580
  175DOPC   H7R21370   2.653   4.769   5.001 -0.6622  0.4520 -0.1183
  175DOPC   H7S21371   2.575   4.924   5.009 -0.3783 -1.7683  1.1080
  175DOPC   C2821372   2.767   4.916   5.116 -0.6411  0.3894  0.4660
  175DOPC   H8R21373   2.793   5.022   5.099 -1.5335  0.7229  1.1176
  175DOPC   H8S21374   2.865   4.864   5.110 -0.8961  0.0691 -2.4636
  175DOPC   C2921375   2.687   4.884   5.236 -1.0906 -0.3712 -0.3467
  175DOPC   H9R21376   2.577   4.887   5.225 -1.0867 -1.6706 -0.9289
  175DOPC  C21021377   2.732   4.855   5.359  0.0397  0.1944 -0.8877
  175DOPC  H10R21378   2.651   4.836   5.431 -0.1208 -0.2314 -1.1728
  175DOPC  C21121379   2.879   4.834   5.398 -0.0199  0.4301 -0.2352
  175DOPC  H11R21380   2.944   4.826   5.308 -1.4117 -1.2865 -1.1451
  175DOPC  H11S21381   2.896   4.740   5.454  1.9982  1.4533  1.0038
  175DOPC  C21221382   2.924   4.934   5.497 -1.1935 -0.1440 -0.5314
  175DOPC  H12R21383   2.910   5.039   5.465 -1.0385  0.2652  0.7104
  175DOPC  H12S21384   3.034   4.926   5.514 -1.1467  1.4149 -0.0167
  175DOPC  C21321385   2.863   4.912   5.638 -0.3124  0.6113  0.0976
  175DOPC  H13R21386   2.928   4.833   5.682  0.2248 -0.4467 -2.4225
  175DOPC  H13S21387   2.763   4.865   5.629 -0.0307 -0.2864  1.3303
  175DOPC  C21421388   2.854   5.031   5.731 -0.3174  0.1089 -0.5906
  175DOPC  H14R21389   2.779   5.098   5.683 -0.1141  0.5356 -0.3196
  175DOPC  H14S21390   2.950   5.086   5.741 -0.2998 -0.2899  2.8029
  175DOPC  C21521391   2.813   4.986   5.873  0.2071  0.0279  0.0033
  175DOPC  H15R21392   2.877   4.902   5.908  0.0703 -1.1109 -2.2566
  175DOPC  H15S21393   2.706   4.956   5.864 -0.1512  1.2827 -0.0853
  175DOPC  C21621394   2.837   5.100   5.974  0.3888 -0.1471 -0.4780
  175DOPC  H16R21395   2.947   5.116   5.978  0.3818 -0.4317  1.4260
  175DOPC  H16S21396   2.801   5.059   6.071 -1.1303 -0.6177 -1.2043
  175DOPC  C21721397   2.740   5.219   5.951 -0.5310 -0.9548  0.5288
  175DOPC  H17R21398   2.643   5.175   5.918  1.8580 -4.1251 -3.1391
  175DOPC  H17S21399   2.772   5.282   5.865 -0.7915  0.0854  1.1725
  175DOPC  C21821400   2.728   5.300   6.078  0.7145  0.2285  0.2338
  175DOPC  H18R21401   2.699   5.403   6.047 -0.8175 -0.6649 -1.4506
  175DOPC  H18S21402   2.827   5.305   6.128  0.9790  0.5060 -0.3142
  175DOPC  H18T21403   2.659   5.248   6.148  1.3445 -0.4281  0.3759
  175DOPC   C3321404   2.949   4.515   4.483 -0.5111  0.0594 -0.7629
  175DOPC   H3X21405   2.989   4.412   4.482 -1.3415 -0.2796 -2.6583
  175DOPC   H3Y21406   2.852   4.503   4.536  0.4416  0.3288  1.1629
  175DOPC   C3421407   3.035   4.607   4.568 -0.7886 -0.2966  0.1414
  175DOPC   H4X21408   2.988   4.708   4.564  2.1418  1.2005  0.0019
  175DOPC   H4Y21409   3.136   4.620   4.521  0.4171  2.4287  3.0813
  175DOPC   C3521410   3.056   4.557   4.706 -0.2136 -0.3287 -0.8252
  175DOPC   H5X21411   3.084   4.449   4.702  1.2094  0.0564 -2.2528
  175DOPC   H5Y21412   2.962   4.541   4.762  1.3552 -0.6847  1.8751
  175DOPC   C3621413   3.156   4.639   4.798  0.5020  0.6871  0.1024
  175DOPC   H6X21414   3.155   4.598   4.901 -2.0055 -0.2085 -0.2088
  175DOPC   H6Y21415   3.255   4.609   4.758 -0.7289 -1.9047 -1.2746
  175DOPC   C3721416   3.133   4.787   4.816  0.0541 -0.3098  0.2602
  175DOPC   H7X21417   3.160   4.829   4.717 -0.4289  0.7176  0.5418
  175DOPC   H7Y21418   3.024   4.790   4.833  0.2682 -2.1942  2.4230
  175DOPC   C3821419   3.198   4.836   4.940 -0.4880  0.2082  0.2702
  175DOPC   H8X21420   3.308   4.819   4.942 -0.5409 -0.3003  3.0016
  175DOPC   H8Y21421   3.155   4.785   5.030 -0.4436 -1.3058 -0.5310
  175DOPC   C3921422   3.175   4.987   4.947  0.0980  0.2338  0.2716
  175DOPC   H9X21423   3.173   5.037   4.849 -1.5063 -1.2048 -0.4850
  175DOPC  C31021424   3.169   5.066   5.059 -0.2268 -0.4705  0.0513
  175DOPC  H10X21425   3.135   5.170   5.043 -0.0929 -0.3391  0.6003
  175DOPC  C31121426   3.179   5.009   5.198  0.1438 -0.3345  0.2912
  175DOPC  H11X21427   3.170   4.898   5.199 -0.2511 -0.3139 -0.4405
  175DOPC  H11Y21428   3.095   5.044   5.263  1.2139  2.4560  0.2854
  175DOPC  C31221429   3.312   5.042   5.258  0.0428  0.4856 -0.2780
  175DOPC  H12X21430   3.341   5.149   5.256  0.9315  0.2811  0.7242
  175DOPC  H12Y21431   3.391   4.986   5.205  0.4396  1.1733 -0.4293
  175DOPC  C31321432   3.312   5.011   5.413  0.1170 -0.0051  0.0584
  175DOPC  H13X21433   3.258   4.917   5.437  0.5266 -0.2258  0.1328
  175DOPC  H13Y21434   3.414   4.982   5.447 -0.6696 -1.5849  1.1770
  175DOPC  C31421435   3.266   5.129   5.495  0.3188  0.2446  0.4426
  175DOPC  H14X21436   3.311   5.226   5.464 -0.4939  0.3142 -0.6192
  175DOPC  H14Y21437   3.157   5.140   5.474  0.2962  0.4893  0.6928
  175DOPC  C31521438   3.274   5.113   5.648 -0.4528  0.1208 -0.0903
  175DOPC  H15X21439   3.380   5.111   5.679 -0.8221  2.9720  1.6604
  175DOPC  H15Y21440   3.212   5.025   5.678 -0.5798  0.0640 -0.4998
  175DOPC  C31621441   3.217   5.232   5.715 -0.1503 -0.3939  0.0334
  175DOPC  H16X21442   3.271   5.327   5.693 -1.0262 -0.0294 -0.6529
  175DOPC  H16Y21443   3.110   5.232   5.685 -0.5276 -1.3976  1.3011
  175DOPC  C31721444   3.215   5.221   5.865  0.6797  0.3669 -0.0684
  175DOPC  H17X21445   3.161   5.125   5.874 -2.2502  1.4941 -3.4192
  175DOPC  H17Y21446   3.316   5.215   5.912 -0.3422  2.3064  2.6181
  175DOPC  C31821447   3.148   5.332   5.945  0.7375  0.5711 -0.7615
  175DOPC  H18X21448   3.205   5.425   5.925 -1.3635  1.9517 -0.6702
  175DOPC  H18Y21449   3.042   5.344   5.914  0.3722  0.7332  0.4786
  175DOPC  H18Z21450   3.154   5.309   6.054 -0.5112 -1.8659 -1.1244
  176DOPC     N21451   2.091   2.050   4.284 -0.1904 -0.2347  0.3786
  176DOPC   C1221452   1.960   2.087   4.333  0.1525  0.1732 -0.1832
  176DOPC  H12A21453   1.956   2.195   4.330 -0.9655  0.1297 -0.9325
  176DOPC  H12B21454   1.948   2.059   4.437 -3.5122 -1.0017 -0.7761
  176DOPC   C1321455   2.096   1.901   4.266  0.0138  0.4490  0.1280
  176DOPC  H13A21456   2.069   1.850   4.357 -0.1924  0.6129  0.1604
  176DOPC  H13B21457   2.017   1.872   4.198 -1.2279  2.0857  0.7846
  176DOPC  H13C21458   2.192   1.866   4.232 -0.7997 -0.6028 -1.1825
  176DOPC   C1421459   2.196   2.087   4.381  1.1308 -0.3220  1.1438
  176DOPC  H14A21460   2.195   2.193   4.400  1.2684  0.0556 -0.8191
  176DOPC  H14B21461   2.178   2.043   4.478  0.9031 -1.3955  0.6314
  176DOPC  H14C21462   2.294   2.055   4.348  2.3054  3.7825  0.1707
  176DOPC   C1521463   2.113   2.114   4.157  0.3487 -0.8367  0.2053
  176DOPC  H15A21464   2.214   2.095   4.122  0.4966 -0.3096  0.3304
  176DOPC  H15B21465   2.101   2.220   4.176 -1.5694 -0.7428 -1.2477
  176DOPC  H15C21466   2.042   2.087   4.081 -1.3085  1.3602  0.8612
  176DOPC   C1121467   1.827   2.028   4.267  0.7448  0.5445  0.4531
  176DOPC  H11A21468   1.753   2.103   4.300  0.4604  2.5188 -3.9509
  176DOPC  H11B21469   1.831   2.028   4.156 -0.3834  0.8346  0.3992
  176DOPC     P21470   1.650   1.845   4.327 -0.2179  0.1546 -0.1762
  176DOPC   O1321471   1.656   1.714   4.389 -0.0433 -0.3150 -0.4774
  176DOPC   O1421472   1.588   1.852   4.194  0.2201 -0.6281 -0.3973
  176DOPC   O1221473   1.797   1.896   4.316 -0.8154  0.0088  0.9281
  176DOPC   O1121474   1.589   1.946   4.427 -0.3040  0.2305  0.0079
  176DOPC    C121475   1.669   1.977   4.547  0.2760  0.3187  0.7075
  176DOPC    HA21476   1.727   2.070   4.529 -0.4802  0.5989 -0.3940
  176DOPC    HB21477   1.730   1.890   4.578 -1.4933 -0.3649  2.5538
  176DOPC    C221478   1.586   2.013   4.668 -0.0708  0.3719  0.6734
  176DOPC    HS21479   1.503   1.939   4.680 -0.7214  0.3923 -2.6503
  176DOPC   O2121480   1.531   2.146   4.652  0.3324 -0.1390  0.1510
  176DOPC   C2121481   1.421   2.156   4.580 -0.1096 -0.0484  0.5662
  176DOPC   O2221482   1.348   2.065   4.547 -0.9205 -0.5989 -0.7737
  176DOPC   C2221483   1.391   2.305   4.552  0.2102  0.4309  0.5856
  176DOPC   H2R21484   1.358   2.323   4.448 -0.3598  0.6932  0.8099
  176DOPC   H2S21485   1.485   2.360   4.578  1.3694 -1.5586  0.8117
  176DOPC    C321486   1.678   2.009   4.796  0.0418  0.1057 -0.1122
  176DOPC    HX21487   1.621   2.045   4.884  0.9108  1.9599 -0.2611
  176DOPC    HY21488   1.750   2.091   4.774 -1.1944  1.9127  2.1586
  176DOPC   O3121489   1.735   1.877   4.820  0.1003 -0.0260 -0.5021
  176DOPC   C3121490   1.858   1.882   4.871 -0.4381 -0.7813 -0.5248
  176DOPC   O3221491   1.937   1.976   4.865  0.2297 -0.2719 -0.5997
  176DOPC   C3221492   1.876   1.755   4.953  0.3165 -0.5490  0.3164
  176DOPC   H2X21493   1.843   1.775   5.057 -2.2026 -0.5468 -0.4250
  176DOPC   H2Y21494   1.811   1.685   4.896 -0.8997  1.1209 -0.4543
  176DOPC   C2321495   1.272   2.360   4.636  0.3589 -0.5946  0.1440
  176DOPC   H3R21496   1.177   2.315   4.601 -0.0109  2.0189 -2.6918
  176DOPC   H3S21497   1.263   2.467   4.608  1.1834 -0.3422  0.7959
  176DOPC   C2421498   1.293   2.348   4.789  0.1070  0.3716 -0.3291
  176DOPC   H4R21499   1.310   2.240   4.810  0.7600  0.1246 -1.9541
  176DOPC   H4S21500   1.200   2.380   4.841 -1.2761  0.6314 -2.8108
  176DOPC   C2521501   1.408   2.431   4.842  0.1110 -0.0412 -0.1654
  176DOPC   H5R21502   1.393   2.536   4.808  1.1930  1.0552  2.5064
  176DOPC   H5S21503   1.497   2.397   4.785  0.5601 -0.9764  1.0398
  176DOPC   C2621504   1.419   2.432   4.996 -0.1162  0.2451  0.7543
  176DOPC   H6R21505   1.321   2.465   5.035  0.3942  1.9494  0.6588
  176DOPC   H6S21506   1.494   2.511   5.019 -0.9453  0.5223  2.7407
  176DOPC   C2721507   1.458   2.300   5.056  0.0028  0.5490  0.0548
  176DOPC   H7R21508   1.543   2.254   5.001  0.3752  0.7267  0.4742
  176DOPC   H7S21509   1.370   2.234   5.042  0.1885  0.2225  0.3678
  176DOPC   C2821510   1.495   2.305   5.209 -0.1858  0.1838 -0.3850
  176DOPC   H8R21511   1.572   2.383   5.225 -0.7308  0.8249 -0.7826
  176DOPC   H8S21512   1.541   2.207   5.235  0.5419  0.6764  0.2159
  176DOPC   C2921513   1.378   2.336   5.295  0.0145 -0.2890 -0.1962
  176DOPC   H9R21514   1.301   2.383   5.232 -0.1348 -0.0125  0.1925
  176DOPC  C21021515   1.358   2.327   5.425  0.2209  0.8661 -0.0263
  176DOPC  H10R21516   1.264   2.357   5.472 -0.0657 -2.4106  1.7896
  176DOPC  C21121517   1.457   2.272   5.526 -0.7859  0.2331  0.7476
  176DOPC  H11R21518   1.502   2.357   5.581  3.0917  0.9568 -2.9441
  176DOPC  H11S21519   1.549   2.234   5.475 -1.6209 -1.3532  0.3634
  176DOPC  C21221520   1.406   2.156   5.610  0.4513  0.0644 -0.2016
  176DOPC  H12R21521   1.481   2.106   5.674 -0.6453  0.5023  1.4939
  176DOPC  H12S21522   1.351   2.074   5.558 -0.0681  0.0835  0.3090
  176DOPC  C21321523   1.312   2.213   5.714 -0.3210  0.3660 -0.7922
  176DOPC  H13R21524   1.213   2.245   5.675 -0.2319  2.4004  0.4849
  176DOPC  H13S21525   1.363   2.293   5.772  0.4590 -1.0667  0.5820
  176DOPC  C21421526   1.281   2.104   5.821  0.2837  0.4628  0.2541
  176DOPC  H14R21527   1.374   2.063   5.865  0.1449  0.4153  0.5067
  176DOPC  H14S21528   1.234   2.014   5.775  2.9269 -0.7037 -0.3300
  176DOPC  C21521529   1.188   2.159   5.929  0.2906 -0.0638 -0.7988
  176DOPC  H15R21530   1.090   2.190   5.885  0.6442 -0.1670 -1.6692
  176DOPC  H15S21531   1.240   2.250   5.967  0.8650  0.9486 -3.7630
  176DOPC  C21621532   1.160   2.055   6.046 -0.4161 -0.1094  0.3925
  176DOPC  H16R21533   1.125   1.959   6.003 -2.1375 -0.4257  2.3664
  176DOPC  H16S21534   1.081   2.090   6.116 -2.6207 -3.1711 -0.3362
  176DOPC  C21721535   1.286   2.024   6.135  0.1702  0.5234  0.0467
  176DOPC  H17R21536   1.367   1.988   6.068  0.0803 -0.0157  0.2273
  176DOPC  H17S21537   1.268   1.934   6.197  0.4521 -0.6561 -1.5054
  176DOPC  C21821538   1.333   2.129   6.240 -0.5618 -0.1656  0.7142
  176DOPC  H18R21539   1.414   2.101   6.310 -0.1135 -0.2872  0.1544
  176DOPC  H18S21540   1.240   2.152   6.297 -0.6601 -0.1868  0.5642
  176DOPC  H18T21541   1.372   2.213   6.179  1.8405 -2.6379 -1.3894
  176DOPC   C3321542   2.014   1.692   4.947  0.4753 -0.1977 -0.2830
  176DOPC   H3X21543   2.065   1.699   4.849 -1.3756  4.1317 -1.1850
  176DOPC   H3Y21544   1.999   1.586   4.974 -1.2071 -0.6397 -2.6141
  176DOPC   C3421545   2.106   1.746   5.061  0.1795 -0.6075 -0.0454
  176DOPC   H4X21546   2.126   1.853   5.037 -0.9974 -0.1541  0.9115
  176DOPC   H4Y21547   2.209   1.707   5.051  1.7655  3.1831 -0.5058
  176DOPC   C3521548   2.045   1.734   5.197 -0.0038 -0.1334 -0.6134
  176DOPC   H5X21549   2.004   1.631   5.194  0.8998 -0.4992 -4.0463
  176DOPC   H5Y21550   1.967   1.806   5.228  1.8697  0.7899  2.5096
  176DOPC   C3621551   2.148   1.755   5.319  0.4832  0.8387  0.1732
  176DOPC   H6X21552   2.243   1.703   5.294 -1.4333 -2.5092 -0.7149
  176DOPC   H6Y21553   2.158   1.863   5.342  0.0303  0.8940  0.1246
  176DOPC   C3721554   2.098   1.699   5.449  0.6729 -0.3411 -0.2424
  176DOPC   H7X21555   2.002   1.747   5.475  1.2679  0.1956  1.0536
  176DOPC   H7Y21556   2.067   1.595   5.428 -0.5006  0.2343 -1.4874
  176DOPC   C3821557   2.199   1.696   5.560  0.3506  0.5564 -0.0460
  176DOPC   H8X21558   2.231   1.794   5.601 -4.4680  2.0103  0.8890
  176DOPC   H8Y21559   2.285   1.637   5.522  1.2197  1.3586  0.6336
  176DOPC   C3921560   2.150   1.625   5.684  0.0175 -0.3657  0.2166
  176DOPC   H9X21561   2.047   1.589   5.671  0.0387  0.3175 -2.5593
  176DOPC  C31021562   2.210   1.601   5.803  0.5587  0.0187  0.5442
  176DOPC  H10X21563   2.171   1.520   5.866 -0.5934 -0.6645 -0.9860
  176DOPC  C31121564   2.350   1.648   5.842 -0.8729  0.1392  0.6581
  176DOPC  H11X21565   2.381   1.737   5.784 -1.6623 -0.0337 -0.0531
  176DOPC  H11Y21566   2.417   1.561   5.823 -0.1678  0.9624 -0.8275
  176DOPC  C31221567   2.355   1.691   5.983 -0.5817 -0.1965 -0.4985
  176DOPC  H12X21568   2.454   1.737   6.003 -0.9322 -0.1443  1.2479
  176DOPC  H12Y21569   2.343   1.612   6.060  1.6867  0.0848  0.2075
  176DOPC  C31321570   2.263   1.807   6.035 -0.0815 -0.1476  0.2151
  176DOPC  H13X21571   2.288   1.900   5.979 -0.0749 -0.5688 -0.5004
  176DOPC  H13Y21572   2.158   1.775   6.020  0.5637 -2.2697 -0.0877
  176DOPC  C31421573   2.292   1.834   6.189  0.1036 -0.5945 -0.0736
  176DOPC  H14X21574   2.249   1.742   6.233  0.2364 -0.7892 -0.3492
  176DOPC  H14Y21575   2.400   1.847   6.212 -0.2317  1.3302  0.6294
  176DOPC  C31521576   2.221   1.967   6.236 -0.1078 -0.0639  0.3189
  176DOPC  H15X21577   2.120   1.968   6.190 -0.0949  0.6122  0.3013
  176DOPC  H15Y21578   2.286   2.045   6.192 -1.1875 -0.3317 -1.8829
  176DOPC  C31621579   2.203   1.988   6.386  0.0398 -0.1776  0.1882
  176DOPC  H16X21580   2.120   1.927   6.428 -0.4924  0.9473  0.7913
  176DOPC  H16Y21581   2.299   1.949   6.427  1.3862  1.2829 -1.4232
  176DOPC  C31721582   2.189   2.131   6.425  0.1443 -0.7884 -0.0103
  176DOPC  H17X21583   2.176   2.134   6.536 -0.9407  0.9129 -0.1495
  176DOPC  H17Y21584   2.277   2.194   6.399 -0.7422  1.0310  1.2046
  176DOPC  C31821585   2.057   2.185   6.368  0.9956  0.3928 -0.2125
  176DOPC  H18X21586   2.029   2.279   6.420 -0.9672 -0.6643  0.7794
  176DOPC  H18Y21587   2.072   2.208   6.261 -1.2862  0.0274 -0.6706
  176DOPC  H18Z21588   1.979   2.107   6.383 -0.3123  0.8259 -3.8021
  177DOPC     N21589   4.282   4.901   2.940 -0.0396 -0.2565 -0.6063
  177DOPC   C1221590   4.367   4.817   3.031 -0.2579  0.0386  0.5296
  177DOPC  H12A21591   4.454   4.779   2.980 -1.1531 -2.5351  0.7897
  177DOPC  H12B21592   4.309   4.730   3.057 -0.9092  0.2852 -0.0862
  177DOPC   C1321593   4.365   5.014   2.892 -0.0421  0.3603  0.1989
  177DOPC  H13A21594   4.414   5.068   2.971 -0.8343 -1.4158  1.9867
  177DOPC  H13B21595   4.447   4.980   2.830 -0.1555  0.2227  0.1216
  177DOPC  H13C21596   4.301   5.083   2.839 -0.3959 -1.0827 -1.3390
  177DOPC   C1421597   4.153   4.943   3.011  0.0241 -0.2090 -0.0782
  177DOPC  H14A21598   4.077   4.977   2.942 -0.0599 -1.3256 -0.5723
  177DOPC  H14B21599   4.107   4.856   3.056  0.3775 -0.6598 -0.5732
  177DOPC  H14C21600   4.173   5.013   3.091  1.2649 -1.1880  0.5051
  177DOPC   C1521601   4.235   4.820   2.820  0.3027  0.9678 -0.6145
  177DOPC  H15A21602   4.173   4.879   2.754 -1.2651  2.4612  2.0072
  177DOPC  H15B21603   4.171   4.737   2.846  1.3452  0.2662 -0.1923
  177DOPC  H15C21604   4.321   4.771   2.776 -1.2449 -0.0246 -2.7583
  177DOPC   C1121605   4.407   4.880   3.168  0.0765  0.3108  0.2259
  177DOPC  H11A21606   4.488   4.828   3.223 -0.8918  0.7013  2.1167
  177DOPC  H11B21607   4.451   4.979   3.143  1.2816  0.0037  1.0212
  177DOPC     P21608   4.267   5.011   3.352  0.0295  0.0911 -0.1086
  177DOPC   O1321609   4.153   4.978   3.439  0.3342 -0.2338 -0.1993
  177DOPC   O1421610   4.270   5.139   3.280 -0.0658 -0.5525 -0.1385
  177DOPC   O1221611   4.292   4.895   3.251  0.0855 -0.1645  0.9937
  177DOPC   O1121612   4.394   5.008   3.439  0.2540 -0.2135 -0.5236
  177DOPC    C121613   4.418   4.891   3.515  0.1827  0.3941 -0.4777
  177DOPC    HA21614   4.523   4.856   3.505 -0.4391 -1.3203 -1.1717
  177DOPC    HB21615   4.346   4.810   3.494 -0.1753 -0.9695  4.6411
  177DOPC    C221616   4.402   4.915   3.676 -0.3297 -0.2329  0.0153
  177DOPC    HS21617   4.305   4.965   3.699  0.3713 -0.0697  2.9812
  177DOPC   O2121618   4.513   4.987   3.725  0.5517  0.3985  0.1972
  177DOPC   C2121619   4.504   5.115   3.717 -0.3610  0.3707  0.3908
  177DOPC   O2221620   4.406   5.175   3.679 -0.4960  0.0007 -0.4617
  177DOPC   C2221621   4.628   5.171   3.782 -0.1014  0.6611 -1.0285
  177DOPC   H2R21622   4.658   5.263   3.727  0.8862  0.5087 -0.7640
  177DOPC   H2S21623   4.714   5.100   3.792 -0.5926  0.1923 -0.0773
  177DOPC    C321624   4.389   4.781   3.751  0.1723  0.5513  0.4595
  177DOPC    HX21625   4.472   4.711   3.728  1.9523  2.8968 -0.7490
  177DOPC    HY21626   4.300   4.731   3.709  1.7743 -0.5287 -1.8569
  177DOPC   O3121627   4.367   4.801   3.888  0.1016  0.1599 -1.1524
  177DOPC   C3121628   4.318   4.694   3.953 -0.2844 -0.4992  0.5488
  177DOPC   O3221629   4.292   4.583   3.904  0.2071  0.7872  0.3189
  177DOPC   C3221630   4.320   4.722   4.104 -0.3275 -0.0284 -0.1708
  177DOPC   H2X21631   4.421   4.759   4.133 -0.8364  0.9062  0.4390
  177DOPC   H2Y21632   4.243   4.797   4.130 -1.4954 -1.5483  0.9198
  177DOPC   C2321633   4.591   5.232   3.925  0.0501 -0.4742 -0.0914
  177DOPC   H3R21634   4.501   5.295   3.907 -0.3068 -1.3073 -1.4403
  177DOPC   H3S21635   4.675   5.299   3.953 -1.1539  1.4387 -0.9058
  177DOPC   C2421636   4.549   5.123   4.021  0.1836 -0.4223 -0.0497
  177DOPC   H4R21637   4.618   5.038   4.000 -0.8537 -0.6095 -3.2894
  177DOPC   H4S21638   4.444   5.100   3.993 -0.3345 -1.8169  2.7740
  177DOPC   C2521639   4.547   5.180   4.161 -0.3246  0.7392  0.0506
  177DOPC   H5R21640   4.481   5.268   4.178 -2.2277 -0.6183 -0.0566
  177DOPC   H5S21641   4.651   5.212   4.183 -0.8406  1.1761  2.1171
  177DOPC   C2621642   4.531   5.069   4.268  0.1308 -0.3789 -0.3716
  177DOPC   H6R21643   4.603   4.985   4.257  0.0270 -0.3969 -0.9834
  177DOPC   H6S21644   4.432   5.018   4.264  0.2082 -0.4551 -1.7992
  177DOPC   C2721645   4.561   5.119   4.410 -0.3271  0.0635  0.3302
  177DOPC   H7R21646   4.652   5.183   4.420 -2.9231  4.5607 -1.6828
  177DOPC   H7S21647   4.564   5.031   4.477  0.7520 -1.8950 -2.1303
  177DOPC   C2821648   4.464   5.227   4.452 -0.4742  0.2406 -0.3363
  177DOPC   H8R21649   4.469   5.309   4.378 -1.3435 -2.4146 -3.5832
  177DOPC   H8S21650   4.495   5.267   4.551  0.1567 -1.7610  0.3335
  177DOPC   C2921651   4.319   5.180   4.448  0.6432 -0.3711  0.3344
  177DOPC   H9R21652   4.257   5.206   4.360 -0.1163 -1.5253  0.5024
  177DOPC  C21021653   4.265   5.092   4.537  0.2038  0.0352  0.0126
  177DOPC  H10R21654   4.164   5.054   4.516 -0.0013  1.4290 -1.8079
  177DOPC  C21121655   4.332   5.043   4.664  0.3447 -0.0655  0.3312
  177DOPC  H11R21656   4.434   5.086   4.659  1.0286 -1.7528 -1.5482
  177DOPC  H11S21657   4.338   4.932   4.659 -3.1424 -0.3631  0.0176
  177DOPC  C21221658   4.263   5.083   4.796 -0.2551  0.1462  0.2010
  177DOPC  H12R21659   4.153   5.065   4.793 -0.6020  1.6361  2.1344
  177DOPC  H12S21660   4.260   5.193   4.809 -1.3094 -0.0540  2.0415
  177DOPC  C21321661   4.323   5.023   4.926  1.2499 -0.0945  0.5076
  177DOPC  H13R21662   4.431   5.051   4.924  1.3995 -0.4734 -3.0935
  177DOPC  H13S21663   4.316   4.912   4.919 -0.2098  0.0543 -0.8235
  177DOPC  C21421664   4.258   5.065   5.058  0.1622  0.2887  0.1590
  177DOPC  H14R21665   4.150   5.043   5.048  0.7875 -2.7974 -0.9487
  177DOPC  H14S21666   4.279   5.174   5.052 -0.5254  0.4206  0.1517
  177DOPC  C21521667   4.335   5.006   5.181  0.6025 -0.1134  0.1922
  177DOPC  H15R21668   4.445   5.019   5.173  1.0039 -0.8736  3.1886
  177DOPC  H15S21669   4.316   4.896   5.182  0.7373 -0.1388  1.1359
  177DOPC  C21621670   4.293   5.082   5.306 -0.0681  0.0472 -0.6420
  177DOPC  H16R21671   4.184   5.083   5.324  0.0556  0.4692  0.1336
  177DOPC  H16S21672   4.321   5.186   5.277  0.1824 -0.0191 -0.6395
  177DOPC  C21721673   4.359   5.025   5.437 -0.1695  0.6390 -0.3998
  177DOPC  H17R21674   4.360   5.110   5.509 -0.8543 -0.8695  1.4653
  177DOPC  H17S21675   4.464   4.991   5.425  0.6253  1.4424  3.1374
  177DOPC  C21821676   4.280   4.912   5.507  0.0408 -0.2548  0.3533
  177DOPC  H18R21677   4.297   4.902   5.616  1.7030 -0.2752  0.1107
  177DOPC  H18S21678   4.301   4.820   5.447 -1.0032 -1.8484  2.2936
  177DOPC  H18T21679   4.169   4.922   5.508 -0.0221 -0.8874  1.7682
  177DOPC   C3321680   4.295   4.600   4.194 -0.1831 -0.1663  0.1066
  177DOPC   H3X21681   4.384   4.533   4.199 -0.1421 -0.6241 -3.7668
  177DOPC   H3Y21682   4.216   4.531   4.158  0.2899 -0.4509 -0.4092
  177DOPC   C3421683   4.257   4.639   4.339  0.3920  0.4029  0.0225
  177DOPC   H4X21684   4.181   4.720   4.333  1.0214  1.1170  1.2066
  177DOPC   H4Y21685   4.340   4.686   4.396  0.5680  0.1197  0.0055
  177DOPC   C3521686   4.194   4.518   4.412  0.0360 -0.1422  0.1680
  177DOPC   H5X21687   4.284   4.459   4.439  0.7664  0.6973 -0.3485
  177DOPC   H5Y21688   4.125   4.460   4.348  1.7939  0.2210 -2.1980
  177DOPC   C3621689   4.118   4.558   4.545 -0.2805 -0.3428 -0.5267
  177DOPC   H6X21690   4.050   4.641   4.514 -1.9309 -1.7683 -0.8239
  177DOPC   H6Y21691   4.057   4.474   4.583  0.5417 -0.0086  1.6887
  177DOPC   C3721692   4.196   4.617   4.664  0.2280  0.0167  0.2704
  177DOPC   H7X21693   4.264   4.535   4.698  0.7863 -0.4041 -1.7587
  177DOPC   H7Y21694   4.260   4.700   4.629  0.9554 -0.3385  0.7266
  177DOPC   C3821695   4.102   4.680   4.769  0.2849  0.1251  0.4519
  177DOPC   H8X21696   4.031   4.736   4.705 -0.5914 -2.3896 -0.8652
  177DOPC   H8Y21697   4.151   4.763   4.825  0.0694  1.1872 -0.8800
  177DOPC   C3921698   4.038   4.582   4.869  0.0410  0.1099 -0.0986
  177DOPC   H9X21699   4.034   4.477   4.837  0.3381 -0.1156  0.5866
  177DOPC  C31021700   4.011   4.599   5.000 -0.3813  0.2727  0.0712
  177DOPC  H10X21701   3.988   4.511   5.062  1.0314 -1.0882 -1.2328
  177DOPC  C31121702   4.023   4.726   5.081 -0.1480 -0.5389 -0.0182
  177DOPC  H11X21703   3.926   4.778   5.064  0.5720  1.0284  0.4514
  177DOPC  H11Y21704   4.093   4.803   5.040  0.2652 -0.0561  1.5300
  177DOPC  C31221705   4.063   4.697   5.231  0.2825  0.4744 -0.7793
  177DOPC  H12X21706   4.116   4.788   5.267 -1.5843  2.6927 -3.2436
  177DOPC  H12Y21707   4.127   4.610   5.255 -0.5888  0.5747  2.3385
  177DOPC  C31321708   3.936   4.669   5.319  0.1945  0.4014 -0.0299
  177DOPC  H13X21709   3.888   4.769   5.332 -2.5977 -0.9027  0.5135
  177DOPC  H13Y21710   3.861   4.608   5.265 -1.1123  0.9249  1.1240
  177DOPC  C31421711   3.971   4.605   5.453  0.1866 -0.4682  1.1001
  177DOPC  H14X21712   4.024   4.508   5.443 -0.2535 -1.0709  3.7689
  177DOPC  H14Y21713   4.042   4.667   5.511 -0.9447  1.2344  0.7409
  177DOPC  C31521714   3.842   4.572   5.542 -0.9489 -0.4137 -0.0556
  177DOPC  H15X21715   3.877   4.503   5.621  1.7166  1.1232  0.2160
  177DOPC  H15Y21716   3.769   4.520   5.477 -1.3996  0.0584  0.0614
  177DOPC  C31621717   3.788   4.698   5.607  0.3799  0.2956 -0.5752
  177DOPC  H16X21718   3.875   4.759   5.638  0.6793  1.1589 -2.9248
  177DOPC  H16Y21719   3.735   4.766   5.536  0.2819  2.5395  1.4741
  177DOPC  C31721720   3.693   4.667   5.723 -0.2825 -0.1960  0.6006
  177DOPC  H17X21721   3.634   4.581   5.683 -0.1397 -0.6550  1.3441
  177DOPC  H17Y21722   3.753   4.624   5.806  2.0775 -1.5334 -1.6533
  177DOPC  C31821723   3.607   4.781   5.765  0.2061  0.4855 -0.0031
  177DOPC  H18X21724   3.533   4.755   5.844 -0.7671 -1.7443 -1.5126
  177DOPC  H18Y21725   3.673   4.858   5.810  0.6093 -0.8879  1.8904
  177DOPC  H18Z21726   3.551   4.828   5.682 -1.1019  1.1336  1.1995
  178DOPC     N21727   2.397   4.426   3.252  0.6868  0.6467 -0.0455
  178DOPC   C1221728   2.518   4.428   3.327 -0.6580 -0.0717 -0.4060
  178DOPC  H12A21729   2.588   4.502   3.290 -0.8709 -0.5458 -1.8385
  178DOPC  H12B21730   2.569   4.335   3.308 -0.1008 -0.0013  0.7249
  178DOPC   C1321731   2.304   4.538   3.277  1.1704 -0.2422 -0.3713
  178DOPC  H13A21732   2.216   4.548   3.214  0.2505 -1.1868  0.7193
  178DOPC  H13B21733   2.269   4.520   3.378  0.4044  1.6626 -0.2592
  178DOPC  H13C21734   2.359   4.630   3.276  1.2983 -0.3047 -2.1344
  178DOPC   C1421735   2.315   4.301   3.275  0.3794 -0.2235 -1.4556
  178DOPC  H14A21736   2.262   4.295   3.369  2.2263 -2.0751 -0.4370
  178DOPC  H14B21737   2.251   4.279   3.191  0.3804 -0.9680 -1.2677
  178DOPC  H14C21738   2.383   4.220   3.300 -0.9336 -1.2185 -1.0384
  178DOPC   C1521739   2.432   4.426   3.103 -0.3528 -1.1907 -0.3319
  178DOPC  H15A21740   2.334   4.430   3.059 -0.7281  0.5808  0.5406
  178DOPC  H15B21741   2.483   4.337   3.070  1.7899 -0.3702  0.5337
  178DOPC  H15C21742   2.487   4.519   3.091 -0.1947 -1.2862 -0.3448
  178DOPC   C1121743   2.504   4.452   3.475 -0.2056  0.0541  0.0240
  178DOPC  H11A21744   2.423   4.388   3.516 -0.1050 -0.0932 -0.0069
  178DOPC  H11B21745   2.598   4.425   3.529 -1.0917 -1.3669  0.9071
  178DOPC     P21746   2.478   4.635   3.670 -0.2124 -0.3451  0.5053
  178DOPC   O1321747   2.427   4.774   3.680  0.5476 -0.1491 -0.5136
  178DOPC   O1421748   2.615   4.613   3.727  0.4281 -0.5169  0.1077
  178DOPC   O1221749   2.478   4.590   3.514 -0.4915  0.0485  0.3533
  178DOPC   O1121750   2.359   4.543   3.725 -1.0571 -0.3206 -0.0225
  178DOPC    C121751   2.390   4.436   3.819 -0.4386 -0.4724 -0.5572
  178DOPC    HA21752   2.494   4.397   3.815 -0.0802  0.2651  0.9589
  178DOPC    HB21753   2.325   4.350   3.794  2.5958 -3.5101  1.1952
  178DOPC    C221754   2.352   4.463   3.966  0.2192 -0.7396 -0.5091
  178DOPC    HS21755   2.349   4.366   4.019  0.9947  0.8663  2.7583
  178DOPC   O2121756   2.214   4.531   3.968  0.3357 -0.2088 -0.0237
  178DOPC   C2121757   2.113   4.453   3.989  0.2341 -0.0314 -0.0972
  178DOPC   O2221758   2.112   4.333   3.983  0.0302 -0.0493 -0.0636
  178DOPC   C2221759   1.996   4.544   4.009  0.4123 -0.3653  0.1640
  178DOPC   H2R21760   1.907   4.479   4.000  0.7308 -0.9300  0.9935
  178DOPC   H2S21761   1.995   4.614   3.923  0.0962  0.1405  0.5748
  178DOPC    C321762   2.463   4.549   4.037  0.0547  0.2606 -0.6639
  178DOPC    HX21763   2.463   4.649   3.990 -0.8789  0.2696 -0.6525
  178DOPC    HY21764   2.564   4.507   4.017 -0.4366 -0.4338 -1.7888
  178DOPC   O3121765   2.453   4.554   4.183 -0.0365  0.2756  0.1060
  178DOPC   C3121766   2.383   4.658   4.233 -0.3824  0.2167  0.1090
  178DOPC   O3221767   2.347   4.755   4.168  0.0051  0.3158 -0.0195
  178DOPC   C3221768   2.350   4.617   4.373 -0.4598 -0.5276  0.3044
  178DOPC   H2X21769   2.254   4.560   4.373 -1.1019  0.2482 -3.8045
  178DOPC   H2Y21770   2.428   4.547   4.411 -0.2139 -0.7817 -0.6457
  178DOPC   C2321771   1.999   4.616   4.141  0.1947 -0.1126  0.0688
  178DOPC   H3R21772   1.929   4.702   4.139  2.3735  1.8571 -3.1661
  178DOPC   H3S21773   2.097   4.667   4.156  0.9718 -1.2482 -0.9288
  178DOPC   C2421774   1.963   4.531   4.264  0.3652 -0.1065 -0.3565
  178DOPC   H4R21775   2.033   4.446   4.277 -0.8408 -1.1755 -0.6467
  178DOPC   H4S21776   1.865   4.484   4.239  0.3597 -1.2250  1.6021
  178DOPC   C2521777   1.950   4.610   4.390 -0.1104 -0.8581 -0.0527
  178DOPC   H5R21778   1.858   4.671   4.378  1.2189  0.9093 -2.0125
  178DOPC   H5S21779   2.035   4.680   4.404 -0.3661 -0.4393 -0.5618
  178DOPC   C2621780   1.934   4.530   4.521  0.5768 -0.6637  0.3627
  178DOPC   H6R21781   2.020   4.462   4.537  0.9608 -0.3110 -0.1592
  178DOPC   H6S21782   1.844   4.468   4.503  0.0081 -0.5986  2.7481
  178DOPC   C2721783   1.904   4.622   4.640  0.2569  0.1610  0.6818
  178DOPC   H7R21784   1.822   4.691   4.610  0.5922  0.1268 -0.3545
  178DOPC   H7S21785   1.991   4.691   4.653  0.1177  0.8437 -1.5412
  178DOPC   C2821786   1.886   4.550   4.768  0.4621 -0.3649  0.5648
  178DOPC   H8R21787   1.868   4.621   4.853 -1.0372 -2.2136  1.8835
  178DOPC   H8S21788   1.988   4.509   4.784  0.9500  0.0351 -1.3395
  178DOPC   C2921789   1.772   4.452   4.776 -0.3790 -0.4197 -0.1671
  178DOPC   H9R21790   1.683   4.482   4.718 -0.9411 -1.2579  0.2303
  178DOPC  C21021791   1.781   4.337   4.841 -0.5037 -0.3607 -0.6491
  178DOPC  H10R21792   1.704   4.259   4.841  0.3497 -1.2251 -0.2832
  178DOPC  C21121793   1.908   4.284   4.905 -0.4645 -0.6610  0.3988
  178DOPC  H11R21794   1.984   4.363   4.925 -0.1226 -0.5564 -1.2446
  178DOPC  H11S21795   1.948   4.205   4.839  1.0981 -0.3021  0.8701
  178DOPC  C21221796   1.896   4.225   5.052 -0.1842  0.1329  0.2681
  178DOPC  H12R21797   1.998   4.203   5.091 -1.0564  0.9061  3.1927
  178DOPC  H12S21798   1.844   4.127   5.056 -0.4628  0.3220  2.3111
  178DOPC  C21321799   1.832   4.320   5.153  1.0472 -0.4301 -0.4223
  178DOPC  H13R21800   1.738   4.360   5.108  0.4647 -0.2110  0.9445
  178DOPC  H13S21801   1.903   4.405   5.164  0.1976 -0.0364  4.4845
  178DOPC  C21421802   1.804   4.264   5.292  0.7851  0.0663 -0.4526
  178DOPC  H14R21803   1.894   4.209   5.327 -0.9813 -1.7157  1.5997
  178DOPC  H14S21804   1.729   4.183   5.283 -0.2632  1.1858 -2.5182
  178DOPC  C21521805   1.765   4.370   5.402  0.1818  0.5130  0.4837
  178DOPC  H15R21806   1.698   4.446   5.355 -0.5306 -1.6699 -2.3155
  178DOPC  H15S21807   1.856   4.426   5.433 -0.0741  1.1541  0.0924
  178DOPC  C21621808   1.701   4.308   5.524  0.8435 -0.3204  0.6657
  178DOPC  H16R21809   1.608   4.257   5.491  1.9463 -1.9293 -0.0894
  178DOPC  H16S21810   1.668   4.385   5.598  0.1896 -1.9746  2.1691
  178DOPC  C21721811   1.783   4.208   5.603 -0.4722 -0.4569 -1.0512
  178DOPC  H17R21812   1.826   4.126   5.541 -0.2053  0.1418 -1.6686
  178DOPC  H17S21813   1.715   4.166   5.680 -0.6917  2.4210  0.4678
  178DOPC  C21821814   1.895   4.275   5.696  0.3805  0.4708  0.2561
  178DOPC  H18R21815   1.972   4.336   5.644 -0.5874  0.5278 -1.1949
  178DOPC  H18S21816   1.947   4.202   5.761  2.2578  1.0645 -0.5246
  178DOPC  H18T21817   1.843   4.341   5.768  0.7995  1.9397 -0.7330
  178DOPC   C3321818   2.346   4.735   4.476 -0.3399  0.1101  0.8111
  178DOPC   H3X21819   2.270   4.808   4.440  0.4569  0.1097 -0.9540
  178DOPC   H3Y21820   2.448   4.776   4.466 -0.8345  0.8919 -1.8429
  178DOPC   C3421821   2.328   4.696   4.621  0.9727  0.0595 -0.0433
  178DOPC   H4X21822   2.400   4.614   4.643  0.2803 -0.6919 -0.4951
  178DOPC   H4Y21823   2.229   4.648   4.637  1.1391 -1.0468 -2.0666
  178DOPC   C3521824   2.353   4.810   4.722 -0.1930 -0.0520  0.8148
  178DOPC   H5X21825   2.269   4.882   4.707 -2.2290 -2.2580  0.9585
  178DOPC   H5Y21826   2.449   4.857   4.694 -0.6611  1.8679  2.2040
  178DOPC   C3621827   2.362   4.775   4.869 -0.2062  0.5772 -0.1047
  178DOPC   H6X21828   2.449   4.708   4.884 -0.2555  0.9454  2.2121
  178DOPC   H6Y21829   2.387   4.865   4.929 -0.0779  0.4349  0.0580
  178DOPC   C3721830   2.240   4.713   4.920  0.4809  0.4412 -0.4646
  178DOPC   H7X21831   2.151   4.757   4.869  1.3029  0.4462 -1.9804
  178DOPC   H7Y21832   2.226   4.606   4.892  0.0393  0.2976  0.2866
  178DOPC   C3821833   2.233   4.704   5.073 -0.3211 -0.8745  0.6318
  178DOPC   H8X21834   2.195   4.803   5.108 -1.7800 -1.3353  0.4381
  178DOPC   H8Y21835   2.337   4.699   5.111 -0.5042 -0.9715  1.1247
  178DOPC   C3921836   2.151   4.597   5.135  0.3675  0.0873 -0.4309
  178DOPC   H9X21837   2.044   4.601   5.109 -0.1197 -0.9039  1.2360
  178DOPC  C31021838   2.194   4.502   5.217 -0.2389 -0.9206 -0.1852
  178DOPC  H10X21839   2.118   4.428   5.245 -1.1465 -0.5420 -1.5743
  178DOPC  C31121840   2.332   4.476   5.286 -0.0950  0.0836  0.0692
  178DOPC  H11X21841   2.412   4.526   5.227 -0.3776 -2.3828 -2.6127
  178DOPC  H11Y21842   2.348   4.367   5.291  1.9955  0.2935 -1.0281
  178DOPC  C31221843   2.335   4.522   5.438  0.1287 -0.1866 -0.0568
  178DOPC  H12X21844   2.239   4.496   5.488 -0.1324  0.2873 -0.3010
  178DOPC  H12Y21845   2.340   4.633   5.445 -0.7355 -0.2381  2.8721
  178DOPC  C31321846   2.447   4.451   5.508  0.1775 -0.1642 -0.9367
  178DOPC  H13X21847   2.440   4.461   5.619  4.5408  2.5615 -0.6714
  178DOPC  H13Y21848   2.445   4.340   5.504  0.9371 -0.2924  1.0559
  178DOPC  C31421849   2.579   4.516   5.478  0.2668  0.5651 -0.5213
  178DOPC  H14X21850   2.597   4.497   5.370 -0.3291  0.6639 -0.6450
  178DOPC  H14Y21851   2.587   4.626   5.483  3.1131  0.4121 -0.0038
  178DOPC  C31521852   2.700   4.462   5.564  0.0151 -0.0909 -0.6811
  178DOPC  H15X21853   2.793   4.485   5.507  0.2532  0.2723 -0.1585
  178DOPC  H15Y21854   2.690   4.352   5.564 -1.0253 -0.0076 -0.8491
  178DOPC  C31621855   2.714   4.525   5.707 -0.2761  0.0186  0.2119
  178DOPC  H16X21856   2.713   4.635   5.691  1.6877 -0.1085 -1.1349
  178DOPC  H16Y21857   2.626   4.490   5.766 -0.7554 -0.5235 -0.8049
  178DOPC  C31721858   2.840   4.473   5.775 -0.2320 -0.4592 -0.2143
  178DOPC  H17X21859   2.834   4.362   5.781  0.5460 -0.4722  0.6407
  178DOPC  H17Y21860   2.936   4.496   5.724  0.4321 -2.0275  0.2611
  178DOPC  C31821861   2.844   4.529   5.917 -0.5200 -0.4721 -0.1060
  178DOPC  H18X21862   2.757   4.504   5.983  0.2183 -3.3163 -0.0715
  178DOPC  H18Y21863   2.937   4.487   5.960  0.1216 -0.7649 -1.7010
  178DOPC  H18Z21864   2.854   4.639   5.914  1.3527 -0.5909  0.5383
  179DOPC     N21865   4.445   4.263   3.280  0.1533 -0.4253 -0.0384
  179DOPC   C1221866   4.443   4.418   3.291  0.3591  0.6834 -0.0828
  179DOPC  H12A21867   4.361   4.433   3.360  0.2005  1.1574 -0.3673
  179DOPC  H12B21868   4.415   4.448   3.190 -0.4608 -0.8618 -0.3478
  179DOPC   C1321869   4.524   4.224   3.152  0.0883 -0.3793 -0.6111
  179DOPC  H13A21870   4.458   4.265   3.076 -0.6490 -0.1157  0.1530
  179DOPC  H13B21871   4.624   4.259   3.134  1.2323 -3.6455 -1.1369
  179DOPC  H13C21872   4.530   4.118   3.135 -2.1967 -0.4958 -1.1409
  179DOPC   C1421873   4.307   4.206   3.272 -0.1786 -0.1159 -0.2045
  179DOPC  H14A21874   4.252   4.241   3.358  1.5579 -2.1250  1.8480
  179DOPC  H14B21875   4.253   4.239   3.184 -0.8361 -0.9292 -0.1204
  179DOPC  H14C21876   4.306   4.099   3.278 -1.5763 -0.1512 -0.5481
  179DOPC   C1521877   4.514   4.207   3.407  0.5184 -0.4278 -0.0637
  179DOPC  H15A21878   4.614   4.247   3.413  0.5783 -0.7247  1.1253
  179DOPC  H15B21879   4.505   4.100   3.416  0.4511 -0.3616  0.6749
  179DOPC  H15C21880   4.468   4.256   3.492 -0.2601 -0.8732 -0.2217
  179DOPC   C1121881   4.574   4.492   3.328  0.2984  0.2406 -0.3041
  179DOPC  H11A21882   4.571   4.603   3.323  1.6071  0.2461 -2.3924
  179DOPC  H11B21883   4.602   4.469   3.433  1.0153  0.6498 -0.3924
  179DOPC     P21884   4.836   4.446   3.282 -0.1231  0.1022 -0.3333
  179DOPC   O1321885   4.923   4.528   3.194  0.8246  0.8731 -0.5489
  179DOPC   O1421886   4.856   4.299   3.277 -0.1104 -0.4262 -0.5225
  179DOPC   O1221887   4.685   4.472   3.232  0.3913  0.6123  0.1004
  179DOPC   O1121888   4.840   4.495   3.432  1.2350 -0.1690  0.1707
  179DOPC    C121889   4.892   4.621   3.463 -0.6158 -0.4664  0.5366
  179DOPC    HA21890   4.844   4.703   3.405 -0.2341 -0.4631  0.2203
  179DOPC    HB21891   5.001   4.623   3.444 -0.2978 -3.1958  1.6722
  179DOPC    C221892   4.881   4.654   3.617  0.6501 -0.5758 -0.8081
  179DOPC    HS21893   4.941   4.745   3.639 -1.6037  0.9150 -0.4900
  179DOPC   O2121894   4.940   4.544   3.692  0.3321 -0.3765  0.2402
  179DOPC   C2121895   5.071   4.531   3.689  0.9919  0.2007  0.1077
  179DOPC   O2221896   5.150   4.610   3.642  0.3095  0.7286 -0.4176
  179DOPC   C2221897   5.101   4.404   3.768 -0.4287 -1.1270  0.0599
  179DOPC   H2R21898   5.064   4.318   3.709  2.0338 -0.3717 -2.8097
  179DOPC   H2S21899   5.052   4.402   3.868  0.7488 -0.2740  0.6849
  179DOPC    C321900   4.741   4.681   3.676 -0.1446  0.2617  0.2358
  179DOPC    HX21901   4.684   4.587   3.663  0.4780 -0.3055  1.4483
  179DOPC    HY21902   4.697   4.764   3.617 -1.7398 -0.7978 -0.1040
  179DOPC   O3121903   4.757   4.711   3.811 -0.5285  0.0326  0.5270
  179DOPC   C3121904   4.687   4.638   3.895  0.0618  0.2875 -0.5186
  179DOPC   O3221905   4.599   4.558   3.874 -0.0368 -0.1224  0.4860
  179DOPC   C3221906   4.734   4.665   4.036 -0.4821 -0.5238 -0.1595
  179DOPC   H2X21907   4.845   4.667   4.046 -0.4622  1.6369 -0.3598
  179DOPC   H2Y21908   4.690   4.763   4.063 -0.2057 -0.9387  1.9542
  179DOPC   C2321909   5.255   4.375   3.796  0.2879 -0.3108  0.0552
  179DOPC   H3R21910   5.300   4.465   3.843  0.2418 -0.4676  0.4015
  179DOPC   H3S21911   5.288   4.358   3.691 -2.1477  2.5437 -1.3654
  179DOPC   C2421912   5.274   4.249   3.884 -0.3187  0.3849  0.1361
  179DOPC   H4R21913   5.372   4.203   3.862 -1.3604 -2.3822  0.8023
  179DOPC   H4S21914   5.190   4.177   3.873  0.7657 -1.0392  0.8995
  179DOPC   C2521915   5.277   4.292   4.034 -0.9890 -0.6193  0.6747
  179DOPC   H5R21916   5.181   4.335   4.069 -0.7489  1.1866 -0.7241
  179DOPC   H5S21917   5.349   4.375   4.053  1.9178 -2.5634 -1.0923
  179DOPC   C2621918   5.339   4.177   4.121 -0.2306 -0.7775 -0.3985
  179DOPC   H6R21919   5.444   4.163   4.088  0.0814 -0.6180  0.5161
  179DOPC   H6S21920   5.283   4.084   4.096 -1.7623  0.1826 -0.7103
  179DOPC   C2721921   5.330   4.202   4.265 -0.1847 -0.5673 -0.6253
  179DOPC   H7R21922   5.358   4.114   4.327  0.7042  0.8710  1.0838
  179DOPC   H7S21923   5.224   4.233   4.277  0.6875  2.2424  0.5788
  179DOPC   C2821924   5.413   4.312   4.326  0.2111  1.0159  0.1078
  179DOPC   H8R21925   5.406   4.405   4.266  0.9407  0.1618 -1.3712
  179DOPC   H8S21926   5.517   4.276   4.314 -0.3344 -0.5588 -0.1799
  179DOPC   C2921927   5.391   4.336   4.476  0.6112 -0.3082  0.1201
  179DOPC   H9R21928   5.415   4.256   4.547 -0.8230 -0.7041  0.1832
  179DOPC  C21021929   5.357   4.454   4.528 -0.0861 -0.1668  0.1769
  179DOPC  H10R21930   5.342   4.463   4.637  1.6417 -3.2631  0.7747
  179DOPC  C21121931   5.330   4.580   4.441 -0.2339 -1.1132 -0.2822
  179DOPC  H11R21932   5.391   4.594   4.349  0.9597 -0.1880  0.6137
  179DOPC  H11S21933   5.360   4.661   4.511 -1.5541 -1.4640  0.7293
  179DOPC  C21221934   5.184   4.589   4.393 -0.2507  0.2398  0.4275
  179DOPC  H12R21935   5.122   4.582   4.485 -2.2266  0.2847 -0.8525
  179DOPC  H12S21936   5.164   4.495   4.337  1.5039  0.4240 -0.5918
  179DOPC  C21321937   5.152   4.706   4.304  1.3092 -0.2270 -0.2406
  179DOPC  H13R21938   5.213   4.797   4.323 -0.6281  1.4923 -1.7333
  179DOPC  H13S21939   5.046   4.740   4.312  0.8135 -2.0739  1.9362
  179DOPC  C21421940   5.172   4.680   4.157  0.1700  0.0511 -0.0924
  179DOPC  H14R21941   5.098   4.604   4.123  1.2038 -1.0193 -0.0379
  179DOPC  H14S21942   5.272   4.632   4.142 -0.6463 -2.1553  1.0619
  179DOPC  C21521943   5.142   4.807   4.071 -0.3038  0.4470 -0.6716
  179DOPC  H15R21944   5.199   4.892   4.115  0.4623 -0.2753 -0.2226
  179DOPC  H15S21945   5.033   4.826   4.082  0.1550  3.1780 -0.0840
  179DOPC  C21621946   5.178   4.779   3.925 -0.1316  0.7233 -0.0866
  179DOPC  H16R21947   5.109   4.707   3.878  1.7893 -0.0553 -1.8438
  179DOPC  H16S21948   5.281   4.736   3.924 -0.4334 -0.0366  0.5778
  179DOPC  C21721949   5.184   4.907   3.844  0.0756 -0.5913  0.3800
  179DOPC  H17R21950   5.214   4.980   3.923 -2.1318 -0.2507  0.9587
  179DOPC  H17S21951   5.084   4.940   3.809  1.1461  2.4461 -0.1572
  179DOPC  C21821952   5.292   4.907   3.732 -0.1062  0.2554 -0.8029
  179DOPC  H18R21953   5.286   5.000   3.673  0.5217  0.1015 -1.1146
  179DOPC  H18S21954   5.279   4.820   3.663 -0.8955 -0.6778  0.4773
  179DOPC  H18T21955   5.393   4.919   3.777 -0.1089 -0.2262 -0.6588
  179DOPC   C3321956   4.671   4.562   4.139 -0.3868 -0.7088 -0.0713
  179DOPC   H3X21957   4.697   4.460   4.105  0.5844 -0.4031 -0.2760
  179DOPC   H3Y21958   4.565   4.596   4.134  0.1321  0.9433 -0.5829
  179DOPC   C3421959   4.727   4.579   4.281 -0.4153 -0.2406  0.2757
  179DOPC   H4X21960   4.837   4.566   4.288 -0.4024 -0.9255 -1.0669
  179DOPC   H4Y21961   4.681   4.497   4.340 -1.3836 -2.3496 -3.1158
  179DOPC   C3521962   4.688   4.718   4.341  0.2994 -0.8781  0.0771
  179DOPC   H5X21963   4.586   4.753   4.314  0.0463 -1.1635  0.6481
  179DOPC   H5Y21964   4.751   4.794   4.289 -2.5204  1.5924 -0.0410
  179DOPC   C3621965   4.702   4.729   4.495 -0.0649 -0.0591 -0.5287
  179DOPC   H6X21966   4.798   4.680   4.520  0.9166  1.2379 -1.6079
  179DOPC   H6Y21967   4.719   4.831   4.537  1.1953  0.4256 -2.1566
  179DOPC   C3721968   4.577   4.665   4.572  0.0125  0.6876  0.0288
  179DOPC   H7X21969   4.484   4.717   4.541  1.0116  2.5543 -0.0163
  179DOPC   H7Y21970   4.566   4.562   4.534 -2.2830  1.2024 -0.8985
  179DOPC   C3821971   4.587   4.653   4.715  0.1973 -0.6406 -0.8542
  179DOPC   H8X21972   4.689   4.617   4.737 -0.8724 -2.1663  2.2038
  179DOPC   H8Y21973   4.524   4.571   4.757 -1.1417  0.6487 -0.2540
  179DOPC   C3921974   4.570   4.783   4.800  0.7420  0.1612  1.1615
  179DOPC   H9X21975   4.546   4.865   4.732 -3.2480  0.0096  2.1697
  179DOPC  C31021976   4.600   4.814   4.930 -0.3693 -0.0462 -0.3458
  179DOPC  H10X21977   4.578   4.916   4.966 -0.1366 -0.4511  1.0062
  179DOPC  C31121978   4.641   4.712   5.027 -0.0188 -0.1786 -0.5022
  179DOPC  H11X21979   4.744   4.739   5.057  0.0996 -0.7092 -0.4216
  179DOPC  H11Y21980   4.641   4.608   4.987  0.3088 -1.3933  2.4326
  179DOPC  C31221981   4.556   4.715   5.156 -0.1266 -0.4250 -0.0422
  179DOPC  H12X21982   4.452   4.677   5.144 -0.0904 -0.5558  0.0570
  179DOPC  H12Y21983   4.550   4.819   5.194  1.0067 -0.2282 -0.3741
  179DOPC  C31321984   4.606   4.639   5.278  0.1281  0.3658 -0.4679
  179DOPC  H13X21985   4.596   4.529   5.262 -2.5174  0.2486  1.3091
  179DOPC  H13Y21986   4.713   4.668   5.284  0.1878 -0.1229  3.6051
  179DOPC  C31421987   4.533   4.677   5.409 -0.0650 -0.7186  0.2182
  179DOPC  H14X21988   4.558   4.783   5.432  2.6062 -1.6568  2.0769
  179DOPC  H14Y21989   4.425   4.668   5.386  0.1890 -1.2997 -0.8435
  179DOPC  C31521990   4.583   4.588   5.519  0.0626  0.6208  0.3019
  179DOPC  H15X21991   4.694   4.584   5.528  0.1296 -0.0505 -0.5963
  179DOPC  H15Y21992   4.555   4.481   5.508 -1.5723  0.9837  0.6824
  179DOPC  C31621993   4.522   4.642   5.650 -0.3502 -0.4228  0.4807
  179DOPC  H16X21994   4.601   4.621   5.725  0.7325 -1.5937 -0.9267
  179DOPC  H16Y21995   4.515   4.752   5.637 -0.3086 -0.5191 -0.3748
  179DOPC  C31721996   4.393   4.570   5.691  0.6322 -0.8756  0.3874
  179DOPC  H17X21997   4.316   4.585   5.613 -0.6822 -2.9803  1.2097
  179DOPC  H17Y21998   4.405   4.460   5.705  1.2408 -0.9763 -0.7675
  179DOPC  C31821999   4.339   4.641   5.812 -0.0159  0.0319 -0.9366
  179DOPC  H18X22000   4.326   4.750   5.796 -0.4670 -0.0596 -1.2021
  179DOPC  H18Y22001   4.250   4.593   5.858  1.2975  1.1284  3.2164
  179DOPC  H18Z22002   4.419   4.628   5.888 -2.1886 -0.4486  1.4252
  180DOPC     N22003   5.710   2.534   3.914  0.3099 -0.0252  0.6975
  180DOPC   C1222004   5.672   2.516   4.060 -0.2942  0.2091  0.2644
  180DOPC  H12A22005   5.672   2.612   4.108 -2.3501  0.0339  0.7248
  180DOPC  H12B22006   5.762   2.479   4.106 -0.7635 -1.7037 -0.2398
  180DOPC   C1322007   5.831   2.624   3.902  0.1939  0.0039 -0.5402
  180DOPC  H13A22008   5.919   2.589   3.954 -1.2109 -0.8262  1.4083
  180DOPC  H13B22009   5.856   2.635   3.798  0.5429 -0.9060 -0.5658
  180DOPC  H13C22010   5.814   2.724   3.940 -3.1381  0.5511 -3.0006
  180DOPC   C1422011   5.596   2.605   3.846 -0.5156  0.2083  0.9885
  180DOPC  H14A22012   5.509   2.542   3.855 -0.3632 -0.2640 -0.5290
  180DOPC  H14B22013   5.576   2.705   3.882  1.6919  2.1723 -2.7172
  180DOPC  H14C22014   5.607   2.608   3.739  2.4838  1.2964  1.2311
  180DOPC   C1522015   5.749   2.412   3.845  0.5387  0.1234  0.2047
  180DOPC  H15A22016   5.758   2.423   3.737  2.0704  2.5875  0.5107
  180DOPC  H15B22017   5.682   2.329   3.862 -1.0527  2.0858  5.1832
  180DOPC  H15C22018   5.844   2.382   3.886  0.6450  0.9294  0.5470
  180DOPC   C1122019   5.547   2.438   4.105  0.5202  0.2493  0.2501
  180DOPC  H11A22020   5.550   2.338   4.056 -0.4258 -0.2281  1.1195
  180DOPC  H11B22021   5.546   2.412   4.213 -0.1956 -2.4148 -0.3347
  180DOPC     P22022   5.342   2.600   4.144 -0.2068 -0.9868 -0.0101
  180DOPC   O1322023   5.211   2.628   4.088 -0.1788 -0.2600 -0.1691
  180DOPC   O1422024   5.437   2.710   4.166 -0.3166  0.0569 -0.2667
  180DOPC   O1222025   5.419   2.494   4.060 -0.6077  0.1288  0.0801
  180DOPC   O1122026   5.325   2.525   4.279 -0.1440 -0.0767 -0.4201
  180DOPC    C122027   5.246   2.405   4.280  0.1609 -0.4360 -0.5287
  180DOPC    HA22028   5.276   2.345   4.369 -1.4078  0.5909  0.7482
  180DOPC    HB22029   5.272   2.338   4.195 -1.9979 -1.9391 -0.0932
  180DOPC    C222030   5.088   2.417   4.279 -0.5830 -0.6597  0.0209
  180DOPC    HS22031   5.068   2.455   4.177  2.1881 -3.4150 -1.7383
  180DOPC   O2122032   5.049   2.502   4.388  0.2949 -0.3885  0.2062
  180DOPC   C2122033   5.010   2.624   4.366 -0.0494 -0.0927  0.7324
  180DOPC   O2222034   4.979   2.675   4.260  0.1167  0.1098 -0.1810
  180DOPC   C2222035   4.999   2.687   4.502 -0.5364 -0.0401 -0.0548
  180DOPC   H2R22036   5.088   2.647   4.556 -2.2477  0.1629  3.1474
  180DOPC   H2S22037   4.905   2.659   4.555 -0.0637  1.8137  1.8768
  180DOPC    C322038   5.011   2.287   4.283  0.8979 -0.0887  0.1214
  180DOPC    HX22039   5.039   2.224   4.370  0.9424 -2.3804 -1.4806
  180DOPC    HY22040   5.041   2.237   4.188  0.2807  2.3945 -1.4849
  180DOPC   O3122041   4.872   2.317   4.294  0.0455  0.7419  0.6640
  180DOPC   C3122042   4.792   2.264   4.200  0.1842  0.1766 -0.2400
  180DOPC   O3222043   4.829   2.186   4.115 -0.2946  0.0228  0.5157
  180DOPC   C3222044   4.653   2.313   4.232  0.6876  0.4224 -0.5644
  180DOPC   H2X22045   4.643   2.385   4.316  1.5671  0.7493 -0.7346
  180DOPC   H2Y22046   4.606   2.363   4.145 -0.6502  1.6963  0.8259
  180DOPC   C2322047   5.010   2.839   4.491  0.3111  0.3345 -0.7304
  180DOPC   H3R22048   4.918   2.865   4.436 -1.3051 -1.1905  1.0984
  180DOPC   H3S22049   5.102   2.879   4.443  1.1965  0.3451  0.9010
  180DOPC   C2422050   4.991   2.924   4.622 -0.3648 -0.1550  0.1548
  180DOPC   H4R22051   4.985   3.032   4.599  1.0763 -0.4372 -1.7907
  180DOPC   H4S22052   5.079   2.901   4.686  2.3818  0.0351 -3.2838
  180DOPC   C2522053   4.875   2.882   4.712 -0.4075 -0.2822 -0.1015
  180DOPC   H5R22054   4.883   2.773   4.731 -2.4259 -0.1836  1.6617
  180DOPC   H5S22055   4.780   2.905   4.659  0.1054  2.3510 -0.0336
  180DOPC   C2622056   4.868   2.942   4.851  0.2483  0.3142 -0.2543
  180DOPC   H6R22057   4.767   2.902   4.875 -0.0142  1.7490  1.1826
  180DOPC   H6S22058   4.856   3.052   4.849  1.8665  0.5234  0.5501
  180DOPC   C2722059   4.971   2.899   4.954 -0.8842  0.0418  0.1889
  180DOPC   H7R22060   5.069   2.933   4.915 -0.2954 -1.3536  0.4160
  180DOPC   H7S22061   4.975   2.789   4.966  0.3885  0.2619  2.1934
  180DOPC   C2822062   4.944   2.963   5.092 -0.3308 -0.3639  0.1649
  180DOPC   H8R22063   4.942   3.074   5.077  0.0686 -0.7233 -3.3684
  180DOPC   H8S22064   5.039   2.957   5.148  1.0788  1.9491 -1.7638
  180DOPC   C2922065   4.818   2.913   5.162 -1.1370  0.3044 -0.0914
  180DOPC   H9R22066   4.725   2.949   5.115 -1.9151 -1.2915  0.1521
  180DOPC  C21022067   4.814   2.850   5.284 -0.4145  0.5587 -0.1141
  180DOPC  H10R22068   4.716   2.833   5.330  0.2389  0.1535  1.1868
  180DOPC  C21122069   4.933   2.800   5.374  0.1033 -0.1514  0.4126
  180DOPC  H11R22070   5.012   2.877   5.381  1.3829 -1.3179 -0.5835
  180DOPC  H11S22071   4.980   2.712   5.325 -2.0040 -2.0076  1.5483
  180DOPC  C21222072   4.907   2.744   5.518  0.6935 -0.2698 -0.1496
  180DOPC  H12R22073   5.002   2.704   5.559  1.4307  0.0815 -1.4519
  180DOPC  H12S22074   4.850   2.648   5.518  2.2263 -1.2160 -0.5927
  180DOPC  C21322075   4.856   2.845   5.617 -0.0760 -0.1437  0.5752
  180DOPC  H13R22076   4.780   2.907   5.565  1.6154  2.5479  1.1157
  180DOPC  H13S22077   4.944   2.911   5.632  0.0558 -0.3666  0.7839
  180DOPC  C21422078   4.787   2.775   5.734 -0.2271  0.1888  0.0849
  180DOPC  H14R22079   4.845   2.690   5.776 -0.6816  0.1383  0.6291
  180DOPC  H14S22080   4.690   2.740   5.691 -0.6238  0.6807  0.5574
  180DOPC  C21522081   4.749   2.866   5.853  0.1687 -0.8636 -0.0281
  180DOPC  H15R22082   4.838   2.888   5.915 -0.4977  0.5432  0.4531
  180DOPC  H15S22083   4.672   2.803   5.903 -3.3497  1.4490 -2.0773
  180DOPC  C21622084   4.680   2.998   5.805  0.8402  0.0107  0.0542
  180DOPC  H16R22085   4.592   2.982   5.739 -0.8408 -2.8280  2.7097
  180DOPC  H16S22086   4.755   3.073   5.771 -0.1270  0.9661 -0.0427
  180DOPC  C21722087   4.616   3.071   5.929 -0.5507 -0.1045  0.0455
  180DOPC  H17R22088   4.557   2.998   5.988  0.2948  0.1340  1.2223
  180DOPC  H17S22089   4.556   3.158   5.895 -1.4300 -0.5962  0.3235
  180DOPC  C21822090   4.721   3.129   6.033 -0.6780  0.2887  0.7486
  180DOPC  H18R22091   4.814   3.159   5.979 -1.8862  1.1521 -0.9325
  180DOPC  H18S22092   4.742   3.051   6.110 -0.4145 -0.9245 -0.5020
  180DOPC  H18T22093   4.676   3.215   6.087 -0.7625  0.4970  0.3464
  180DOPC   C3322094   4.567   2.183   4.262 -0.0835  1.0127 -0.0988
  180DOPC   H3X22095   4.575   2.102   4.186 -0.5127 -1.3506  2.2256
  180DOPC   H3Y22096   4.462   2.219   4.260 -0.4616  0.1464  1.7368
  180DOPC   C3422097   4.593   2.116   4.394 -0.0502 -0.0301  0.3309
  180DOPC   H4X22098   4.701   2.092   4.405  0.0102 -0.0919 -0.3361
  180DOPC   H4Y22099   4.540   2.019   4.390 -1.8832  0.9335 -2.1280
  180DOPC   C3522100   4.559   2.207   4.503  0.5234  0.4321 -0.6260
  180DOPC   H5X22101   4.470   2.270   4.480  1.1561  2.3122  1.6680
  180DOPC   H5Y22102   4.646   2.271   4.530 -0.7095  1.6841  0.4945
  180DOPC   C3622103   4.514   2.130   4.629 -0.4684 -0.0221  0.4542
  180DOPC   H6X22104   4.437   2.063   4.585  0.5734  0.3812 -2.1558
  180DOPC   H6Y22105   4.600   2.075   4.673  0.0041  0.7065  0.4527
  180DOPC   C3722106   4.452   2.216   4.736 -0.2715 -1.0162  0.6375
  180DOPC   H7X22107   4.527   2.295   4.759  0.3406 -0.2055 -3.5174
  180DOPC   H7Y22108   4.366   2.260   4.682 -0.2179 -1.1621  0.4341
  180DOPC   C3822109   4.425   2.140   4.869  0.0358  0.1265  0.1752
  180DOPC   H8X22110   4.519   2.139   4.929 -0.4343 -1.2476  0.9386
  180DOPC   H8Y22111   4.405   2.035   4.839  1.6040 -0.7024  1.8221
  180DOPC   C3922112   4.312   2.196   4.948  0.0884 -0.0204 -0.6181
  180DOPC   H9X22113   4.227   2.235   4.890  0.4134  1.0260 -0.4102
  180DOPC  C31022114   4.321   2.238   5.078  0.2759  0.0753 -0.4058
  180DOPC  H10X22115   4.231   2.272   5.131  0.5103 -1.3428  0.9817
  180DOPC  C31122116   4.441   2.247   5.166 -0.2087 -0.1358 -0.8154
  180DOPC  H11X22117   4.514   2.325   5.134  0.3860 -0.3449  0.0196
  180DOPC  H11Y22118   4.505   2.156   5.167  2.0920  1.4268  0.2986
  180DOPC  C31222119   4.395   2.287   5.302  0.2509  0.3493 -0.3822
  180DOPC  H12X22120   4.317   2.218   5.341  0.9773  0.0585  0.5892
  180DOPC  H12Y22121   4.329   2.376   5.299  0.3961  0.6729  2.6990
  180DOPC  C31322122   4.497   2.294   5.414 -0.2062 -0.1593  0.0979
  180DOPC  H13X22123   4.550   2.197   5.426 -3.6247 -2.2377 -0.0952
  180DOPC  H13Y22124   4.567   2.374   5.383 -0.2626  0.1995  0.8805
  180DOPC  C31422125   4.436   2.327   5.552 -0.4202  0.1583 -0.4311
  180DOPC  H14X22126   4.352   2.399   5.535 -0.9167 -0.5524 -1.0314
  180DOPC  H14Y22127   4.390   2.233   5.589 -3.2661  1.6661  0.2177
  180DOPC  C31522128   4.536   2.380   5.657 -0.3482 -0.1148  0.3921
  180DOPC  H15X22129   4.574   2.479   5.623  0.3121 -0.2654  0.6775
  180DOPC  H15Y22130   4.622   2.311   5.655 -0.2794 -0.0652 -2.2379
  180DOPC  C31622131   4.479   2.381   5.806  0.2199 -0.0556  0.2185
  180DOPC  H16X22132   4.380   2.426   5.787 -0.0690 -1.6655 -2.6317
  180DOPC  H16Y22133   4.467   2.274   5.834  0.2586  0.0599  0.6895
  180DOPC  C31722134   4.548   2.474   5.905  0.0915  0.0374  0.7224
  180DOPC  H17X22135   4.656   2.448   5.905  0.4891  1.4978 -1.1171
  180DOPC  H17Y22136   4.546   2.576   5.862 -0.3836  0.2211  1.1748
  180DOPC  C31822137   4.485   2.492   6.044  0.4696  0.5502  0.1190
  180DOPC  H18X22138   4.384   2.538   6.037  1.2411  2.3854  0.3999
  180DOPC  H18Y22139   4.481   2.400   6.107  0.8634 -0.6668 -1.5754
  180DOPC  H18Z22140   4.550   2.566   6.096  3.0477 -0.5503 -1.3816
  181DOPC     N22141   6.614   3.258   3.091  0.0152 -0.1569 -0.0066
  181DOPC   C1222142   6.750   3.258   3.150  0.0473  0.1634  0.1996
  181DOPC  H12A22143   6.800   3.353   3.135  1.5521 -0.9380 -2.3958
  181DOPC  H12B22144   6.812   3.183   3.105 -1.6942 -1.6680  0.7170
  181DOPC   C1322145   6.524   3.342   3.165  0.3043  0.3670  0.2133
  181DOPC  H13A22146   6.519   3.312   3.269  2.0614 -0.1397  0.1794
  181DOPC  H13B22147   6.557   3.445   3.170 -2.9741  1.6009 -0.5348
  181DOPC  H13C22148   6.422   3.352   3.131 -0.4948  2.0124  2.7958
  181DOPC   C1422149   6.551   3.114   3.088  0.3909 -0.5508  0.1942
  181DOPC  H14A22150   6.545   3.073   3.188  0.8184  0.7678  0.7870
  181DOPC  H14B22151   6.459   3.114   3.031  0.3800 -2.9777  0.1146
  181DOPC  H14C22152   6.610   3.040   3.035  0.4456 -0.9980  0.8584
  181DOPC   C1522153   6.614   3.306   2.949  0.2265 -0.5509  0.4417
  181DOPC  H15A22154   6.512   3.306   2.912  0.4582  0.8386 -0.2827
  181DOPC  H15B22155   6.666   3.246   2.876 -1.0458  0.9974 -1.8926
  181DOPC  H15C22156   6.653   3.407   2.940 -0.6267 -0.3299 -1.2526
  181DOPC   C1122157   6.773   3.223   3.297  0.4976  0.1451 -0.7325
  181DOPC  H11A22158   6.877   3.220   3.337 -0.0474  1.4019  0.8869
  181DOPC  H11B22159   6.724   3.307   3.351  0.1158 -1.1649  1.0648
  181DOPC     P22160   6.684   3.076   3.491 -0.0397  0.2538  0.1054
  181DOPC   O1322161   6.673   3.209   3.558  0.3350  0.4497  0.4305
  181DOPC   O1422162   6.783   2.987   3.548 -0.2575  0.3971 -0.0318
  181DOPC   O1222163   6.713   3.097   3.338  0.0136 -0.0801 -0.5271
  181DOPC   O1122164   6.550   2.992   3.490  0.5247  0.3014 -0.4055
  181DOPC    C122165   6.433   3.059   3.512 -0.2014 -0.1919  0.9239
  181DOPC    HA22166   6.351   2.991   3.485 -0.1450 -0.9076  2.4673
  181DOPC    HB22167   6.431   3.133   3.429  1.3032 -2.0012 -0.8326
  181DOPC    C222168   6.403   3.111   3.653 -0.5791 -0.5270  0.1351
  181DOPC    HS22169   6.420   3.220   3.648  0.0117 -0.6709 -1.8928
  181DOPC   O2122170   6.479   3.029   3.751 -0.6777 -0.4259  0.2715
  181DOPC   C2122171   6.540   3.088   3.841  0.1530 -0.5637 -0.6139
  181DOPC   O2222172   6.550   3.209   3.857  0.3834  0.1358 -0.2293
  181DOPC   C2222173   6.604   2.983   3.931  0.4607 -0.0261 -0.0653
  181DOPC   H2R22174   6.704   2.964   3.886  1.4252 -0.5983  2.1681
  181DOPC   H2S22175   6.535   2.899   3.913 -0.7356  1.3073 -2.1480
  181DOPC    C322176   6.250   3.098   3.686 -0.7467 -1.0788  0.1708
  181DOPC    HX22177   6.225   2.991   3.702 -1.4257 -0.7450  1.5447
  181DOPC    HY22178   6.200   3.151   3.603  3.2304  3.0419  0.0386
  181DOPC   O3122179   6.214   3.168   3.811 -0.1134 -0.0772 -0.6406
  181DOPC   C3122180   6.220   3.299   3.822  0.0258 -0.5485  0.7880
  181DOPC   O3222181   6.241   3.370   3.728 -0.0131 -0.1787 -0.3455
  181DOPC   C3222182   6.197   3.336   3.971 -0.2095 -0.1333 -0.3365
  181DOPC   H2X22183   6.088   3.330   3.992  0.2925 -0.7418  2.4549
  181DOPC   H2Y22184   6.247   3.263   4.038 -0.9568  1.4231  2.0449
  181DOPC   C2322185   6.616   3.025   4.072 -0.6097 -0.5667 -0.5024
  181DOPC   H3R22186   6.657   3.129   4.078  1.1542 -1.0416 -2.8546
  181DOPC   H3S22187   6.682   2.952   4.122 -1.1547  0.6297  2.1132
  181DOPC   C2422188   6.479   3.021   4.150 -0.0339 -0.5463 -0.1615
  181DOPC   H4R22189   6.434   2.919   4.148  0.7101 -0.8771 -0.4378
  181DOPC   H4S22190   6.406   3.091   4.103 -0.3217 -1.2589 -0.7901
  181DOPC   C2522191   6.503   3.066   4.298 -0.3272  0.2480  0.0440
  181DOPC   H5R22192   6.556   3.162   4.282 -0.2027 -0.1565 -2.4685
  181DOPC   H5S22193   6.564   2.993   4.356 -1.4750 -0.6777  0.1316
  181DOPC   C2622194   6.380   3.088   4.381  0.7984 -0.0814 -0.6481
  181DOPC   H6R22195   6.335   2.990   4.408 -1.8492  0.8516 -1.3842
  181DOPC   H6S22196   6.304   3.143   4.322 -1.8733 -1.4514  1.2503
  181DOPC   C2722197   6.417   3.164   4.515  0.4401  0.3946 -0.5712
  181DOPC   H7R22198   6.485   3.248   4.488 -0.1703  0.5822 -1.5709
  181DOPC   H7S22199   6.461   3.091   4.586  0.4728 -0.8500 -1.8469
  181DOPC   C2822200   6.283   3.214   4.579  0.0130 -0.5782  0.0158
  181DOPC   H8R22201   6.200   3.143   4.601 -2.4898  1.7685 -1.2952
  181DOPC   H8S22202   6.228   3.281   4.509  0.0290  0.0658  0.6118
  181DOPC   C2922203   6.315   3.296   4.704  0.2200  0.9043  0.1191
  181DOPC   H9R22204   6.350   3.398   4.680  1.0276  0.3688 -1.0770
  181DOPC  C21022205   6.290   3.258   4.830 -0.0325 -0.5073  0.1939
  181DOPC  H10R22206   6.327   3.324   4.910 -0.5589 -1.0862  0.9187
  181DOPC  C21122207   6.253   3.115   4.866  0.8902  0.3923 -0.2191
  181DOPC  H11R22208   6.293   3.045   4.790 -2.0482  0.7176 -2.2407
  181DOPC  H11S22209   6.142   3.104   4.860  0.8154 -1.1965  2.2886
  181DOPC  C21222210   6.299   3.085   5.011 -0.5808  0.9615  0.5073
  181DOPC  H12R22211   6.409   3.098   5.014 -0.6073  1.0945  1.0020
  181DOPC  H12S22212   6.281   2.977   5.029 -0.1174  0.7210 -0.3979
  181DOPC  C21322213   6.226   3.163   5.116 -0.0556  0.0785  0.0010
  181DOPC  H13R22214   6.116   3.158   5.102 -0.3296  0.8830  1.6559
  181DOPC  H13S22215   6.251   3.271   5.108  2.0549 -0.4661 -1.6921
  181DOPC  C21422216   6.257   3.128   5.260  0.0100  0.1148 -0.6679
  181DOPC  H14R22217   6.363   3.154   5.277  0.6551 -1.0695 -2.6484
  181DOPC  H14S22218   6.227   3.021   5.270  0.6169 -0.1600 -1.7211
  181DOPC  C21522219   6.173   3.206   5.366 -0.0255  0.2302 -0.4628
  181DOPC  H15R22220   6.067   3.204   5.331  0.2173  0.6646 -1.2730
  181DOPC  H15S22221   6.211   3.311   5.359 -2.3742  1.1029 -1.2634
  181DOPC  C21622222   6.205   3.152   5.508 -0.4445  0.8718  0.1039
  181DOPC  H16R22223   6.316   3.145   5.517 -0.5792 -1.7689  0.4654
  181DOPC  H16S22224   6.163   3.050   5.519 -0.6504  1.0146  0.6569
  181DOPC  C21722225   6.164   3.247   5.614 -0.1671 -0.6663  0.0741
  181DOPC  H17R22226   6.175   3.355   5.591 -1.1531 -0.7780 -1.0192
  181DOPC  H17S22227   6.230   3.227   5.702 -1.3122  0.1316  1.1528
  181DOPC  C21822228   6.014   3.229   5.646 -0.1587  0.1814  0.5229
  181DOPC  H18R22229   5.987   3.122   5.638  1.9601 -0.3249 -0.4409
  181DOPC  H18S22230   5.960   3.280   5.563  2.4286  0.8352 -0.8767
  181DOPC  H18T22231   5.982   3.270   5.744 -0.8410 -0.1824  0.4594
  181DOPC   C3322232   6.235   3.479   4.014 -0.3299 -0.3914 -0.8451
  181DOPC   H3X22233   6.210   3.550   3.932  0.2189 -0.5780 -1.1783
  181DOPC   H3Y22234   6.343   3.501   4.027  0.2903 -2.4018 -2.1396
  181DOPC   C3422235   6.145   3.525   4.133 -0.0791  0.4880  0.3897
  181DOPC   H4X22236   6.041   3.507   4.100  0.5943 -1.1134 -1.0409
  181DOPC   H4Y22237   6.155   3.632   4.161  2.0694  0.1673  1.1087
  181DOPC   C3522238   6.170   3.435   4.262  0.5511  0.1764 -0.0120
  181DOPC   H5X22239   6.274   3.443   4.301  0.9101  0.7455 -1.0440
  181DOPC   H5Y22240   6.155   3.330   4.229 -1.4342  0.3541  0.2282
  181DOPC   C3622241   6.078   3.476   4.369  0.4005 -0.2072 -0.0825
  181DOPC   H6X22242   5.981   3.494   4.318 -0.3751 -3.0659  0.1973
  181DOPC   H6Y22243   6.073   3.393   4.444 -1.6352 -0.1212 -0.0669
  181DOPC   C3722244   6.132   3.604   4.443 -0.3108 -0.1260 -0.2972
  181DOPC   H7X22245   6.208   3.573   4.518  0.8282  0.1070 -1.3307
  181DOPC   H7Y22246   6.177   3.668   4.363  0.3453 -0.4037 -0.1589
  181DOPC   C3822247   6.030   3.672   4.534 -0.7551 -0.2514  0.4547
  181DOPC   H8X22248   5.973   3.598   4.594  0.0762  0.4287  2.1495
  181DOPC   H8Y22249   5.955   3.714   4.464 -2.3012 -0.8304  1.6918
  181DOPC   C3922250   6.087   3.779   4.623  0.0550  0.7433  1.1463
  181DOPC   H9X22251   6.087   3.877   4.573  2.5438  0.8013  1.1531
  181DOPC  C31022252   6.147   3.759   4.740  0.2270 -0.3679 -0.2288
  181DOPC  H10X22253   6.189   3.848   4.790 -2.1923  2.0266 -2.1137
  181DOPC  C31122254   6.164   3.640   4.827 -0.0348 -0.3278  0.0675
  181DOPC  H11X22255   6.267   3.650   4.865  0.3941 -0.2116 -1.0734
  181DOPC  H11Y22256   6.166   3.547   4.765  0.9552  1.3324 -2.5376
  181DOPC  C31222257   6.054   3.624   4.940 -0.5947  0.1436 -0.0001
  181DOPC  H12X22258   5.952   3.621   4.896 -0.2739 -1.4014 -0.6991
  181DOPC  H12Y22259   6.053   3.714   5.006 -0.8326  0.3822 -0.3275
  181DOPC  C31322260   6.075   3.494   5.018  0.3508  0.1748 -0.8313
  181DOPC  H13X22261   6.049   3.408   4.952  0.1186 -0.7544  0.4336
  181DOPC  H13Y22262   6.182   3.482   5.045 -0.0321  0.7139  1.0751
  181DOPC  C31422263   5.981   3.477   5.140  0.2859 -0.5784  0.0896
  181DOPC  H14X22264   5.881   3.508   5.102  0.6150 -1.3581 -1.5498
  181DOPC  H14Y22265   5.982   3.367   5.157 -0.4301 -0.4428  1.1094
  181DOPC  C31522266   6.012   3.555   5.265 -0.1825  1.0644 -0.6120
  181DOPC  H15X22267   6.024   3.662   5.238  2.6057  0.4348 -2.2645
  181DOPC  H15Y22268   6.111   3.526   5.307 -1.0780 -0.9121  0.2506
  181DOPC  C31622269   5.907   3.532   5.365  0.0230 -0.0214  0.0485
  181DOPC  H16X22270   5.812   3.579   5.329  0.0718 -0.5822 -0.8343
  181DOPC  H16Y22271   5.894   3.423   5.377  4.6223 -0.9187 -1.2260
  181DOPC  C31722272   5.940   3.606   5.498 -0.4502 -0.2814  0.4437
  181DOPC  H17X22273   6.036   3.575   5.544  0.2960 -0.5547 -1.2638
  181DOPC  H17Y22274   5.961   3.712   5.472  0.0406 -0.7918 -1.3243
  181DOPC  C31822275   5.830   3.605   5.609 -0.8188  0.4024  0.4225
  181DOPC  H18X22276   5.868   3.601   5.714 -0.7725  1.0608  0.4378
  181DOPC  H18Y22277   5.773   3.699   5.596 -0.8209  0.4604  0.8238
  181DOPC  H18Z22278   5.766   3.517   5.589 -0.8379  0.1148  1.6616
  182DOPC     N22279   1.423   1.560   4.014 -0.6276 -0.5859 -0.3410
  182DOPC   C1222280   1.438   1.584   4.164  0.3057 -0.0673 -0.4647
  182DOPC  H12A22281   1.341   1.592   4.212 -0.6116 -1.2849 -2.0041
  182DOPC  H12B22282   1.481   1.682   4.179  0.4388 -0.3243  1.0352
  182DOPC   C1322283   1.379   1.685   3.947 -0.0371 -0.6129 -0.4286
  182DOPC  H13A22284   1.373   1.681   3.839  1.3896  0.9460 -0.6177
  182DOPC  H13B22285   1.281   1.714   3.982  0.8581 -1.4772  3.2081
  182DOPC  H13C22286   1.446   1.765   3.976 -0.1505 -1.1228  1.3288
  182DOPC   C1422287   1.322   1.452   3.988  0.3163  0.1152 -0.1347
  182DOPC  H14A22288   1.332   1.423   3.884 -2.0377  2.0465 -0.9948
  182DOPC  H14B22289   1.334   1.362   4.045 -0.7718 -0.0626 -0.1694
  182DOPC  H14C22290   1.217   1.474   4.002 -0.2780 -2.2117 -0.5253
  182DOPC   C1522291   1.551   1.515   3.949  0.2036  0.3809  0.0457
  182DOPC  H15A22292   1.586   1.423   3.993 -1.3971 -0.2200  0.1280
  182DOPC  H15B22293   1.631   1.587   3.942 -0.0855  0.7531  0.5121
  182DOPC  H15C22294   1.535   1.491   3.845 -2.6192  1.8537  0.0234
  182DOPC   C1122295   1.510   1.475   4.245 -0.1723  0.9510 -0.5636
  182DOPC  H11A22296   1.620   1.473   4.227  0.3700  0.5428  2.2746
  182DOPC  H11B22297   1.496   1.495   4.354 -2.1657  0.4886 -0.7052
  182DOPC     P22298   1.538   1.209   4.199 -0.0702  0.2963  0.1221
  182DOPC   O1322299   1.644   1.235   4.108 -0.4227  0.4992  0.4240
  182DOPC   O1422300   1.442   1.096   4.180 -0.2849 -0.4579  0.4702
  182DOPC   O1222301   1.463   1.337   4.216  0.2974  0.0176  0.2365
  182DOPC   O1122302   1.618   1.202   4.338  0.2710  0.3413 -0.1404
  182DOPC    C122303   1.539   1.216   4.452  0.0503  0.1176 -0.6662
  182DOPC    HA22304   1.482   1.123   4.474 -2.5484  1.8888  0.5393
  182DOPC    HB22305   1.463   1.296   4.450 -1.4449 -1.2007  0.4558
  182DOPC    C222306   1.626   1.233   4.581  0.0438 -0.3723 -0.0595
  182DOPC    HS22307   1.694   1.318   4.557  0.2685 -1.1146 -2.3248
  182DOPC   O2122308   1.705   1.116   4.602  0.0131 -0.0847  0.3989
  182DOPC   C2122309   1.840   1.134   4.627  0.0549 -0.4342 -0.9052
  182DOPC   O2222310   1.900   1.236   4.603  0.1161  0.0870  0.0610
  182DOPC   C2222311   1.906   1.008   4.685 -0.3861 -0.5681 -0.4470
  182DOPC   H2R22312   1.879   0.923   4.620  2.2819 -1.5791 -0.3451
  182DOPC   H2S22313   1.851   0.980   4.777  0.0560  1.3785  0.4840
  182DOPC    C322314   1.551   1.269   4.704 -0.0871  0.2708  0.6117
  182DOPC    HX22315   1.478   1.349   4.678  0.8782  1.1389  0.5079
  182DOPC    HY22316   1.628   1.320   4.766  1.5025 -0.4468 -0.7031
  182DOPC   O3122317   1.480   1.160   4.765 -0.2976  0.3281 -0.1186
  182DOPC   C3122318   1.548   1.081   4.850  0.0372 -0.0610 -0.0517
  182DOPC   O3222319   1.656   1.110   4.899 -0.3991 -0.2486 -0.1322
  182DOPC   C3222320   1.467   0.953   4.879 -0.0660 -0.4414  0.2408
  182DOPC   H2X22321   1.359   0.981   4.876 -0.7504 -2.7523  0.7888
  182DOPC   H2Y22322   1.490   0.885   4.794  1.4217  1.7087 -1.1836
  182DOPC   C2322323   2.049   1.032   4.724  0.1185 -0.2101  0.0415
  182DOPC   H3R22324   2.057   1.118   4.794  1.8755  0.7572 -1.2538
  182DOPC   H3S22325   2.110   1.062   4.636 -1.6431  0.3592 -1.0325
  182DOPC   C2422326   2.112   0.918   4.806 -0.0151  0.4071  0.2647
  182DOPC   H4R22327   2.145   0.830   4.748  0.2794  1.3961 -1.1268
  182DOPC   H4S22328   2.029   0.882   4.871  1.1543 -0.4263  1.3290
  182DOPC   C2522329   2.220   0.959   4.909  0.0635 -0.3035  0.6367
  182DOPC   H5R22330   2.171   1.027   4.982 -2.8767  0.2445 -1.6593
  182DOPC   H5S22331   2.302   1.009   4.853 -1.8844  0.3663 -1.7884
  182DOPC   C2622332   2.264   0.833   4.985 -0.2022  0.3381 -0.3988
  182DOPC   H6R22333   2.283   0.750   4.914  0.0387 -0.4958  0.6128
  182DOPC   H6S22334   2.170   0.796   5.030 -0.5039  0.5865 -0.8133
  182DOPC   C2722335   2.377   0.856   5.093 -0.0101 -0.2016 -0.0843
  182DOPC   H7R22336   2.364   0.949   5.151 -1.0479 -1.0522  1.0892
  182DOPC   H7S22337   2.476   0.861   5.041 -0.3849 -0.3325 -0.8306
  182DOPC   C2822338   2.379   0.743   5.200  0.0699 -0.3268  0.2601
  182DOPC   H8R22339   2.464   0.745   5.271 -0.1321  0.5818  0.4891
  182DOPC   H8S22340   2.398   0.652   5.140 -1.3765 -0.4338 -0.0717
  182DOPC   C2922341   2.249   0.726   5.269  0.7205  0.3902  0.4799
  182DOPC   H9R22342   2.176   0.663   5.215  1.5626  0.3990 -0.6923
  182DOPC  C21022343   2.219   0.750   5.397 -0.3249  0.1861  0.4108
  182DOPC  H10R22344   2.120   0.714   5.427 -2.3872  2.2134 -3.2405
  182DOPC  C21122345   2.301   0.817   5.503  0.4648  0.0632  0.0187
  182DOPC  H11R22346   2.237   0.876   5.573  0.2302  2.4024 -2.0194
  182DOPC  H11S22347   2.359   0.893   5.446 -0.1746 -1.8849 -3.4642
  182DOPC  C21222348   2.385   0.733   5.596 -0.0775  0.6532 -0.7515
  182DOPC  H12R22349   2.450   0.669   5.531  0.3947  0.0136  0.3114
  182DOPC  H12S22350   2.316   0.668   5.654 -0.3654  0.1625 -1.6159
  182DOPC  C21322351   2.480   0.815   5.693 -0.3870 -0.1434  0.1399
  182DOPC  H13R22352   2.547   0.887   5.642 -2.0863  1.1710 -0.3112
  182DOPC  H13S22353   2.527   0.736   5.756 -1.4131 -2.1141 -1.4412
  182DOPC  C21422354   2.391   0.895   5.788 -0.3836 -0.2012  0.6093
  182DOPC  H14R22355   2.304   0.834   5.822 -1.9132  1.8735  0.6446
  182DOPC  H14S22356   2.340   0.974   5.728 -1.3943 -2.0572 -1.0820
  182DOPC  C21522357   2.479   0.949   5.898  0.4591  0.3620 -0.2898
  182DOPC  H15R22358   2.560   1.014   5.857  1.6336 -0.4241  0.7122
  182DOPC  H15S22359   2.524   0.865   5.954 -1.5131  0.9507  2.3516
  182DOPC  C21622360   2.405   1.036   6.000  0.0938 -0.1462  0.5250
  182DOPC  H16R22361   2.317   0.973   6.023  1.0555 -2.9914 -2.7550
  182DOPC  H16S22362   2.374   1.133   5.956 -0.3978  1.1787  3.5077
  182DOPC  C21722363   2.491   1.060   6.121 -0.1057 -0.4642  0.2647
  182DOPC  H17R22364   2.578   1.125   6.102 -0.4805 -0.4551 -1.6571
  182DOPC  H17S22365   2.522   0.958   6.153  0.8197 -1.0794 -2.3487
  182DOPC  C21822366   2.404   1.119   6.235  0.2066 -0.5061  0.2003
  182DOPC  H18R22367   2.363   1.033   6.293  0.1256 -2.3779 -2.4514
  182DOPC  H18S22368   2.317   1.180   6.205  0.8761 -0.0106 -0.7689
  182DOPC  H18T22369   2.467   1.178   6.305 -1.1508  1.9691 -0.5478
  182DOPC   C3322370   1.519   0.889   5.011 -0.2459  1.0274  0.3306
  182DOPC   H3X22371   1.433   0.832   5.054 -0.0821 -0.3777 -1.0942
  182DOPC   H3Y22372   1.542   0.967   5.086 -1.0978  0.7477  0.9054
  182DOPC   C3422373   1.629   0.782   4.981 -0.2159  1.0499  0.5466
  182DOPC   H4X22374   1.666   0.779   4.876  1.6338  1.0668  1.1783
  182DOPC   H4Y22375   1.594   0.679   5.002 -1.2190  1.5698  1.5275
  182DOPC   C3522376   1.755   0.811   5.068  0.1676 -0.3374  0.3453
  182DOPC   H5X22377   1.784   0.918   5.067  0.0318 -0.2990 -0.8463
  182DOPC   H5Y22378   1.835   0.749   5.023 -0.4127  1.0904 -3.0055
  182DOPC   C3622379   1.728   0.763   5.213  0.1577  0.7526  0.1746
  182DOPC   H6X22380   1.628   0.802   5.243 -0.6219 -0.7357 -0.4190
  182DOPC   H6Y22381   1.718   0.653   5.213 -0.9892  0.8106  1.9889
  182DOPC   C3722382   1.844   0.803   5.299  0.3120  0.0267 -0.1292
  182DOPC   H7X22383   1.935   0.745   5.268 -0.7091 -1.9005  0.3118
  182DOPC   H7Y22384   1.853   0.913   5.286 -3.8674  0.5385  0.1471
  182DOPC   C3822385   1.826   0.774   5.450  0.0310 -0.1630  0.0257
  182DOPC   H8X22386   1.724   0.808   5.479 -0.1409 -1.4982  1.0618
  182DOPC   H8Y22387   1.885   0.855   5.498  0.7974 -0.2366 -0.7748
  182DOPC   C3922388   1.855   0.631   5.495  0.0396 -0.0502  0.3543
  182DOPC   H9X22389   1.849   0.559   5.413 -0.2092 -1.1236  1.2988
  182DOPC  C31022390   1.926   0.598   5.608  0.7308  0.3632  0.1273
  182DOPC  H10X22391   1.947   0.491   5.623 -0.5521  0.3507  2.4543
  182DOPC  C31122392   1.955   0.688   5.723 -0.3964 -0.4162 -0.7593
  182DOPC  H11X22393   1.920   0.793   5.712  0.3559 -0.1652 -0.8050
  182DOPC  H11Y22394   2.065   0.703   5.714 -0.3246 -0.5009 -0.0159
  182DOPC  C31222395   1.907   0.632   5.858  0.0058 -0.1308 -0.8096
  182DOPC  H12X22396   1.942   0.530   5.888 -0.4266  0.4676  1.9539
  182DOPC  H12Y22397   1.797   0.636   5.869  0.1044  0.9278 -0.1465
  182DOPC  C31322398   1.942   0.728   5.971  0.3674 -0.2316 -0.2981
  182DOPC  H13X22399   2.049   0.713   5.997  0.1847 -1.1540 -0.0444
  182DOPC  H13Y22400   1.930   0.832   5.935 -0.4674 -0.3866 -0.4973
  182DOPC  C31422401   1.868   0.698   6.103 -0.1259  0.9410 -0.0167
  182DOPC  H14X22402   1.762   0.666   6.094 -0.6648  2.6955 -0.4961
  182DOPC  H14Y22403   1.911   0.605   6.144 -1.3122 -0.1563 -1.1538
  182DOPC  C31522404   1.873   0.815   6.200  1.0589  0.4687 -0.5454
  182DOPC  H15X22405   1.819   0.904   6.162 -0.6344 -0.9118 -1.5276
  182DOPC  H15Y22406   1.975   0.851   6.226  0.6629  0.2566  1.4996
  182DOPC  C31622407   1.828   0.770   6.340 -0.8598  0.6819  0.5854
  182DOPC  H16X22408   1.744   0.697   6.337  0.2527 -0.6170 -0.0372
  182DOPC  H16Y22409   1.915   0.725   6.392  0.7875  3.1324  0.1490
  182DOPC  C31722410   1.788   0.893   6.421 -0.1159 -0.4329 -0.4244
  182DOPC  H17X22411   1.813   0.869   6.527  1.4165  0.5142 -0.5371
  182DOPC  H17Y22412   1.854   0.981   6.407  0.3600 -0.8404 -0.7595
  182DOPC  C31822413   1.640   0.945   6.412 -0.3054  0.1745 -0.1117
  182DOPC  H18X22414   1.615   0.951   6.304  0.3584 -0.0777 -0.2852
  182DOPC  H18Y22415   1.570   0.877   6.466 -0.1048  1.0388  1.2839
  182DOPC  H18Z22416   1.635   1.045   6.460  1.4669 -0.5887  1.8155
  183DOPC     N22417   5.770   4.989   2.942 -0.3497  0.2724 -0.0100
  183DOPC   C1222418   5.716   4.975   3.075  0.1780 -0.4972  0.0318
  183DOPC  H12A22419   5.727   4.877   3.119  3.0038  0.1813  1.0124
  183DOPC  H12B22420   5.608   4.982   3.070 -0.0556 -1.4867  2.3509
  183DOPC   C1322421   5.686   4.906   2.854  0.2545  0.1792  0.7259
  183DOPC  H13A22422   5.728   4.911   2.755 -0.7524 -0.4693  0.2447
  183DOPC  H13B22423   5.698   4.799   2.870  1.0334  0.1795  0.1680
  183DOPC  H13C22424   5.580   4.924   2.857  0.6368  2.5799  1.8613
  183DOPC   C1422425   5.911   4.929   2.919  0.3847 -0.0895 -0.2443
  183DOPC  H14A22426   5.976   4.996   2.973  1.2896  0.4383 -1.9455
  183DOPC  H14B22427   5.918   4.825   2.946  1.2752 -0.0311 -0.2419
  183DOPC  H14C22428   5.956   4.941   2.822  0.5000  0.2195 -0.1563
  183DOPC   C1522429   5.768   5.131   2.889  0.5273  0.0324  0.0099
  183DOPC  H15A22430   5.838   5.143   2.808  0.0184  1.2026 -0.2682
  183DOPC  H15B22431   5.810   5.193   2.967 -1.3841 -0.2195  1.3043
  183DOPC  H15C22432   5.671   5.169   2.860  0.9413  0.9569 -0.1983
  183DOPC   C1122433   5.767   5.070   3.187  1.1617 -0.1309  0.5774
  183DOPC  H11A22434   5.709   5.164   3.173  4.1245  1.7697  0.3145
  183DOPC  H11B22435   5.727   5.026   3.281  2.8816  0.6868  1.7498
  183DOPC     P22436   5.979   5.233   3.165  0.0508  0.4723  0.2967
  183DOPC   O1322437   5.880   5.328   3.119  0.3141 -0.0349  0.4281
  183DOPC   O1422438   6.098   5.217   3.081  0.3189 -0.5018  0.2305
  183DOPC   O1222439   5.903   5.090   3.194 -0.5935 -0.4701 -0.0971
  183DOPC   O1122440   6.024   5.274   3.307  0.5552  0.1711 -0.1151
  183DOPC    C122441   5.947   5.284   3.426 -0.4848 -0.3619  1.1899
  183DOPC    HA22442   5.848   5.301   3.379  0.7613  1.3889 -0.9839
  183DOPC    HB22443   5.984   5.375   3.477 -1.0718  1.3889 -1.3684
  183DOPC    C222444   5.971   5.171   3.520 -0.1002 -0.0421  0.4484
  183DOPC    HS22445   5.931   5.082   3.467  0.2005 -0.2804  0.6180
  183DOPC   O2122446   5.893   5.189   3.637  0.1583 -0.0361 -0.0437
  183DOPC   C2122447   5.758   5.185   3.625  0.3654 -0.1684 -0.1570
  183DOPC   O2222448   5.700   5.167   3.523  0.4810  0.3868  0.2703
  183DOPC   C2222449   5.703   5.207   3.760 -0.2044 -0.6503 -0.3154
  183DOPC   H2R22450   5.728   5.313   3.783  0.7077 -1.2421  1.6731
  183DOPC   H2S22451   5.762   5.144   3.830 -0.1264  0.3997  0.5857
  183DOPC    C322452   6.121   5.141   3.561 -0.6567 -0.1556 -0.0569
  183DOPC    HX22453   6.176   5.149   3.465  0.7408  2.2850  0.8639
  183DOPC    HY22454   6.133   5.042   3.611 -1.4838 -0.0628  0.3564
  183DOPC   O3122455   6.175   5.247   3.640 -0.2542  0.3932  0.9159
  183DOPC   C3122456   6.238   5.205   3.750  0.0242  0.5093  0.5180
  183DOPC   O3222457   6.253   5.084   3.779  0.4663  0.3739 -0.2142
  183DOPC   C3222458   6.279   5.328   3.830 -0.2542 -0.7960 -0.0960
  183DOPC   H2X22459   6.375   5.367   3.790 -0.7204  2.2680  1.4581
  183DOPC   H2Y22460   6.201   5.405   3.816  1.5236  1.1744  0.2333
  183DOPC   C2322461   5.556   5.167   3.774  0.6315 -0.2832  0.6333
  183DOPC   H3R22462   5.533   5.062   3.746 -2.6774 -0.2207  2.5769
  183DOPC   H3S22463   5.500   5.235   3.706  0.0534 -0.9238  0.4636
  183DOPC   C2422464   5.492   5.184   3.912 -0.2395  0.2814  0.0109
  183DOPC   H4R22465   5.387   5.150   3.916  0.6832 -2.7815  0.8867
  183DOPC   H4S22466   5.506   5.292   3.935  0.2242  0.2683 -0.1880
  183DOPC   C2522467   5.563   5.111   4.029  0.7034  0.4585 -0.4213
  183DOPC   H5R22468   5.670   5.137   4.036  0.1708  2.7821  0.0303
  183DOPC   H5S22469   5.559   5.004   4.001 -2.3285  0.4473 -0.3537
  183DOPC   C2622470   5.489   5.140   4.164  0.5943  0.4638  0.3822
  183DOPC   H6R22471   5.379   5.131   4.155  0.4214  1.1259  1.5948
  183DOPC   H6S22472   5.502   5.245   4.196 -0.7679  0.7686  0.0152
  183DOPC   C2722473   5.532   5.044   4.279  0.8559 -0.9888 -0.1646
  183DOPC   H7R22474   5.639   5.066   4.298  1.3586 -2.7920 -0.6786
  183DOPC   H7S22475   5.536   4.941   4.238  2.4958  0.3654 -3.8847
  183DOPC   C2822476   5.444   5.043   4.406 -0.1461  0.7427  0.0660
  183DOPC   H8R22477   5.337   5.043   4.376 -0.2011 -0.4211  0.2205
  183DOPC   H8S22478   5.443   5.145   4.448 -1.1715  0.3657  0.9821
  183DOPC   C2922479   5.488   4.941   4.509  0.5264 -0.5064 -0.8994
  183DOPC   H9R22480   5.478   4.838   4.471 -0.9015 -0.7194 -0.0293
  183DOPC  C21022481   5.541   4.966   4.624 -0.3587  0.3218 -0.0028
  183DOPC  H10R22482   5.589   4.881   4.674 -2.1659 -0.0919  1.1024
  183DOPC  C21122483   5.585   5.099   4.672 -0.6944 -1.1353  0.3864
  183DOPC  H11R22484   5.586   5.183   4.598 -0.0287 -0.5754  1.0168
  183DOPC  H11S22485   5.691   5.091   4.705 -0.2245  1.2198 -0.3165
  183DOPC  C21222486   5.503   5.141   4.799 -0.2156  0.2171  0.1426
  183DOPC  H12R22487   5.397   5.124   4.769 -0.1290 -0.4633  0.2075
  183DOPC  H12S22488   5.523   5.246   4.828 -1.7927  0.2278  1.3709
  183DOPC  C21322489   5.534   5.057   4.924  0.7858  0.2949 -0.1673
  183DOPC  H13R22490   5.641   5.026   4.919  0.4894 -0.7588 -0.2043
  183DOPC  H13S22491   5.482   4.960   4.917  0.3905  0.5656 -1.1793
  183DOPC  C21422492   5.501   5.144   5.046  0.1453  0.1875 -0.1808
  183DOPC  H14R22493   5.401   5.191   5.030  0.7578  1.0681 -1.6867
  183DOPC  H14S22494   5.571   5.230   5.047  0.5946 -0.1038 -2.0213
  183DOPC  C21522495   5.506   5.068   5.181 -1.0148 -0.1867  0.2890
  183DOPC  H15R22496   5.616   5.058   5.194 -0.8088 -0.1097 -1.2025
  183DOPC  H15S22497   5.450   4.973   5.170 -2.6114  0.6687  0.7853
  183DOPC  C21622498   5.444   5.140   5.302  0.0455 -0.9433  0.6155
  183DOPC  H16R22499   5.345   5.180   5.273 -0.1135 -0.2028  2.0751
  183DOPC  H16S22500   5.512   5.223   5.331 -1.0417 -0.4894  1.9660
  183DOPC  C21722501   5.425   5.035   5.412  0.0754 -0.0155 -0.4969
  183DOPC  H17R22502   5.523   4.992   5.442  0.4141  1.7722  1.2054
  183DOPC  H17S22503   5.359   4.951   5.380 -0.8946 -0.3207  2.0602
  183DOPC  C21822504   5.363   5.088   5.545 -0.1722 -0.6002 -0.2410
  183DOPC  H18R22505   5.419   5.169   5.597 -0.7469  0.8144 -1.7282
  183DOPC  H18S22506   5.358   5.001   5.614  0.8648 -0.5332 -0.0673
  183DOPC  H18T22507   5.259   5.123   5.529 -0.2792 -0.9823 -0.3864
  183DOPC   C3322508   6.303   5.310   3.986  0.1239  0.5632  0.1987
  183DOPC   H3X22509   6.399   5.257   3.999 -0.0506  0.0271 -0.6861
  183DOPC   H3Y22510   6.228   5.236   4.021 -0.4124  0.8309 -0.3635
  183DOPC   C3422511   6.313   5.443   4.064 -0.1151 -0.3101  0.5177
  183DOPC   H4X22512   6.210   5.482   4.081 -0.5876 -0.5299 -1.5812
  183DOPC   H4Y22513   6.365   5.518   4.000  0.2051 -0.3049  0.7807
  183DOPC   C3522514   6.404   5.430   4.183 -0.0158 -0.4320  0.4587
  183DOPC   H5X22515   6.441   5.534   4.192 -0.8887 -0.0569 -0.1500
  183DOPC   H5Y22516   6.491   5.372   4.147  1.2002  1.3222  0.4543
  183DOPC   C3622517   6.342   5.379   4.311 -0.1437  0.7825  0.5145
  183DOPC   H6X22518   6.281   5.463   4.351 -0.0915  1.3132 -0.5086
  183DOPC   H6Y22519   6.282   5.289   4.283 -0.0495  0.7586  0.3882
  183DOPC   C3722520   6.441   5.349   4.421 -0.5202  0.1318 -0.2185
  183DOPC   H7X22521   6.383   5.338   4.515 -0.9718 -3.6218 -0.7701
  183DOPC   H7Y22522   6.498   5.254   4.409  2.1906  1.0978  3.2412
  183DOPC   C3822523   6.528   5.467   4.451 -0.2583 -0.3396  0.4082
  183DOPC   H8X22524   6.482   5.565   4.476  0.9818  0.6384 -0.9382
  183DOPC   H8Y22525   6.585   5.491   4.358  0.4272  0.3661  0.9874
  183DOPC   C3922526   6.630   5.433   4.557 -0.0591 -0.0662  0.5837
  183DOPC   H9X22527   6.697   5.352   4.523 -1.0380  0.5021 -3.2336
  183DOPC  C31022528   6.654   5.498   4.671 -0.3824  0.2786  0.4680
  183DOPC  H10X22529   6.748   5.469   4.721 -0.4869 -0.4142  0.2698
  183DOPC  C31122530   6.585   5.617   4.733 -0.0053  0.5239 -0.3987
  183DOPC  H11X22531   6.498   5.637   4.667  0.1755  0.9198 -0.5189
  183DOPC  H11Y22532   6.652   5.705   4.730  1.7593 -0.7486 -0.0623
  183DOPC  C31222533   6.529   5.596   4.874  0.0458 -0.0787  0.2243
  183DOPC  H12X22534   6.485   5.494   4.886 -0.8537  0.3064  0.3264
  183DOPC  H12Y22535   6.453   5.675   4.893 -1.0543 -0.7815 -1.0596
  183DOPC  C31322536   6.638   5.616   4.985  0.0782  0.1838 -0.8134
  183DOPC  H13X22537   6.708   5.531   4.975  0.6254  0.5002  0.2197
  183DOPC  H13Y22538   6.702   5.704   4.964 -0.9250  0.6035 -2.3309
  183DOPC  C31422539   6.580   5.627   5.132 -0.7869  0.0937  0.2029
  183DOPC  H14X22540   6.529   5.725   5.149 -0.6351  0.1329  0.4371
  183DOPC  H14Y22541   6.508   5.543   5.136  1.3614 -1.8270  0.4487
  183DOPC  C31522542   6.676   5.619   5.249 -0.0067 -0.4364 -0.1067
  183DOPC  H15X22543   6.748   5.703   5.244 -0.4379 -0.0236  0.5558
  183DOPC  H15Y22544   6.732   5.523   5.240 -2.1002 -1.6602 -0.8281
  183DOPC  C31622545   6.603   5.614   5.385  0.3372  0.7857 -0.3861
  183DOPC  H16X22546   6.687   5.611   5.457  2.1443 -1.5095 -2.4322
  183DOPC  H16Y22547   6.541   5.706   5.400  0.7436  1.0867 -0.5248
  183DOPC  C31722548   6.514   5.493   5.404 -0.6561 -0.2819  0.6031
  183DOPC  H17X22549   6.433   5.474   5.330 -0.7938 -1.1099  0.9579
  183DOPC  H17Y22550   6.584   5.408   5.393 -2.7054 -1.9008 -0.7394
  183DOPC  C31822551   6.443   5.507   5.543  0.0662  0.4524  0.4075
  183DOPC  H18X22552   6.352   5.443   5.544  0.2125  0.1627 -1.4992
  183DOPC  H18Y22553   6.501   5.473   5.632 -0.3497  1.8965  1.2634
  183DOPC  H18Z22554   6.416   5.614   5.552  0.0761  0.5226 -0.3677
  184DOPC     N22555   3.716   0.330   3.206  1.0010 -0.3458  0.1315
  184DOPC   C1222556   3.684   0.388   3.349  0.2398 -0.3830 -0.4046
  184DOPC  H12A22557   3.751   0.359   3.428 -1.4766  1.1108  1.7229
  184DOPC  H12B22558   3.591   0.345   3.383 -0.0480 -1.1519 -2.0704
  184DOPC   C1322559   3.642   0.422   3.108  0.6313  1.0509 -0.3033
  184DOPC  H13A22560   3.655   0.400   3.003  0.5325  2.0013 -0.5209
  184DOPC  H13B22561   3.534   0.421   3.117  0.2834  0.1520 -3.4183
  184DOPC  H13C22562   3.677   0.520   3.135  1.8272  0.0854  1.9736
  184DOPC   C1422563   3.647   0.193   3.210 -0.4673  0.0273  0.8180
  184DOPC  H14A22564   3.540   0.186   3.227 -0.9623  0.6848 -1.6594
  184DOPC  H14B22565   3.655   0.139   3.117  0.9423  0.2589  0.7796
  184DOPC  H14C22566   3.697   0.132   3.284  1.2545  0.6259  0.1903
  184DOPC   C1522567   3.858   0.321   3.176 -1.0307 -0.1030  0.3772
  184DOPC  H15A22568   3.911   0.271   3.256 -3.3999  0.6086  2.5059
  184DOPC  H15B22569   3.897   0.421   3.164 -1.6924 -0.0878 -2.1367
  184DOPC  H15C22570   3.873   0.266   3.085  3.1411  0.5581  0.4594
  184DOPC   C1122571   3.692   0.538   3.374 -0.0745 -0.7029 -0.4874
  184DOPC  H11A22572   3.608   0.591   3.323 -1.1785 -1.1055  0.8559
  184DOPC  H11B22573   3.662   0.550   3.480  0.6966 -0.7879 -0.2594
  184DOPC     P22574   3.940   0.573   3.429  0.2865 -0.1732  0.4437
  184DOPC   O1322575   3.972   0.706   3.487  0.5551  0.2654  0.0644
  184DOPC   O1422576   4.045   0.499   3.356  0.5090  0.2792  0.1282
  184DOPC   O1222577   3.820   0.593   3.341 -0.5713  0.0783  0.1965
  184DOPC   O1122578   3.882   0.470   3.538  0.1489 -0.0717 -0.5104
  184DOPC    C122579   3.812   0.514   3.654 -0.1579  0.1365  0.0988
  184DOPC    HA22580   3.711   0.469   3.662  0.0684 -0.2653  0.7326
  184DOPC    HB22581   3.798   0.624   3.661 -0.2363  0.1003  0.4972
  184DOPC    C222582   3.902   0.477   3.781 -0.1539 -0.1356 -0.0942
  184DOPC    HS22583   3.846   0.511   3.871 -2.0450 -0.3252 -1.1379
  184DOPC   O2122584   4.033   0.534   3.770  0.5530  0.0831  0.4831
  184DOPC   C2122585   4.033   0.661   3.794  0.1629  0.2417  0.0227
  184DOPC   O2222586   3.938   0.730   3.815 -0.2607 -1.0015  0.5399
  184DOPC   C2222587   4.172   0.714   3.775  0.4316 -0.6873  0.2948
  184DOPC   H2R22588   4.200   0.710   3.668 -0.5766 -1.9194  0.0577
  184DOPC   H2S22589   4.239   0.637   3.820 -0.6854 -0.0599  3.2483
  184DOPC    C322590   3.908   0.323   3.809 -0.2557  0.9003  0.1462
  184DOPC    HX22591   3.912   0.269   3.712 -1.8020 -0.1009  0.6021
  184DOPC    HY22592   3.807   0.297   3.846  0.2703 -1.5635 -0.0352
  184DOPC   O3122593   4.011   0.273   3.897  0.5376 -0.6126  0.0558
  184DOPC   C3122594   4.127   0.228   3.844 -0.1212  0.4971  0.0086
  184DOPC   O3222595   4.140   0.218   3.723 -0.2202  0.1766 -0.3672
  184DOPC   C3222596   4.232   0.215   3.949  0.6081 -0.2213 -0.1579
  184DOPC   H2X22597   4.183   0.169   4.038 -2.0473  1.0442 -0.8712
  184DOPC   H2Y22598   4.308   0.148   3.902  0.3968 -0.5355 -0.0553
  184DOPC   C2322599   4.193   0.851   3.844  0.1877  0.6092  0.3574
  184DOPC   H3R22600   4.117   0.914   3.793 -3.5143 -3.6969 -0.1999
  184DOPC   H3S22601   4.295   0.886   3.819  0.9077 -1.9450 -0.6968
  184DOPC   C2422602   4.186   0.838   3.994  0.3570 -0.0866 -0.2838
  184DOPC   H4R22603   4.111   0.760   4.019  0.1622 -0.7102 -2.6419
  184DOPC   H4S22604   4.167   0.935   4.046  1.3867  0.6646 -1.2570
  184DOPC   C2522605   4.316   0.784   4.049 -0.4690 -0.1209 -0.0209
  184DOPC   H5R22606   4.397   0.842   3.999  0.2877 -0.0785  1.2199
  184DOPC   H5S22607   4.328   0.679   4.013 -0.8845 -0.6093  1.2087
  184DOPC   C2622608   4.335   0.802   4.199 -0.2143  0.6397  0.1952
  184DOPC   H6R22609   4.327   0.912   4.217 -0.0166  0.6327  0.3321
  184DOPC   H6S22610   4.439   0.770   4.222  0.7532  1.9903 -1.8986
  184DOPC   C2722611   4.227   0.729   4.280 -0.5569 -0.7928  0.1715
  184DOPC   H7R22612   4.223   0.624   4.245 -0.9399 -1.0327  0.9233
  184DOPC   H7S22613   4.129   0.778   4.260 -0.3045 -0.4318 -0.2172
  184DOPC   C2822614   4.269   0.723   4.425  0.5347  0.2096 -0.5359
  184DOPC   H8R22615   4.273   0.820   4.479 -1.3545 -0.6438  1.3050
  184DOPC   H8S22616   4.372   0.681   4.423  1.3451  2.0625  0.3201
  184DOPC   C2922617   4.171   0.635   4.503  0.0335 -0.1068  0.5648
  184DOPC   H9R22618   4.205   0.530   4.506 -0.5023 -0.4035 -1.7415
  184DOPC  C21022619   4.073   0.673   4.574  0.1381 -0.5119 -0.4581
  184DOPC  H10R22620   4.003   0.593   4.602  2.5395 -2.5087  0.1336
  184DOPC  C21122621   4.035   0.818   4.583  0.6486  0.4658  0.1756
  184DOPC  H11R22622   3.924   0.826   4.586  0.4952 -0.7221 -1.2692
  184DOPC  H11S22623   4.061   0.881   4.495 -1.7886  0.0455 -0.9225
  184DOPC  C21222624   4.096   0.886   4.708  0.5170  0.3537  0.1124
  184DOPC  H12R22625   4.047   0.983   4.733  0.1783  0.1133  0.3949
  184DOPC  H12S22626   4.207   0.895   4.710  0.4203  1.9799 -0.3650
  184DOPC  C21322627   4.059   0.806   4.838  0.0486 -0.2535 -0.2139
  184DOPC  H13R22628   4.139   0.729   4.850  1.1988  0.8213 -0.8481
  184DOPC  H13S22629   3.955   0.769   4.824  0.4499 -1.3972 -0.2674
  184DOPC  C21422630   4.073   0.888   4.971  0.4308 -0.3285  0.1508
  184DOPC  H14R22631   4.042   0.993   4.947 -1.3321 -1.4190 -2.9125
  184DOPC  H14S22632   4.178   0.886   5.006  0.2916 -3.8385  0.7031
  184DOPC  C21522633   3.983   0.835   5.081  0.0361  0.2570 -0.2636
  184DOPC  H15R22634   4.003   0.727   5.096 -0.6323  0.2485  0.6819
  184DOPC  H15S22635   3.876   0.834   5.052  0.5586  0.2728 -2.3490
  184DOPC  C21622636   3.993   0.916   5.207  0.4624  0.3407 -0.8944
  184DOPC  H16R22637   3.951   0.869   5.299  0.1190  3.8272  0.8907
  184DOPC  H16S22638   3.931   1.007   5.200 -1.0687 -0.8192 -4.8981
  184DOPC  C21722639   4.135   0.955   5.259  0.4223 -0.7100 -0.0825
  184DOPC  H17R22640   4.171   1.044   5.205  1.8836 -1.8319 -1.0314
  184DOPC  H17S22641   4.194   0.869   5.221 -1.8755 -2.4609  0.0464
  184DOPC  C21822642   4.152   0.975   5.402 -0.3578  0.1463 -0.2011
  184DOPC  H18R22643   4.161   1.085   5.420  1.6768 -0.0381  0.1987
  184DOPC  H18S22644   4.247   0.928   5.434  1.5316  2.8506 -1.4247
  184DOPC  H18T22645   4.067   0.942   5.465  0.0412  1.0527  0.8599
  184DOPC   C3322646   4.291   0.356   3.990  0.3158  0.2587  0.0652
  184DOPC   H3X22647   4.220   0.407   4.057 -2.2011 -1.7385 -0.9188
  184DOPC   H3Y22648   4.312   0.413   3.897  0.1755 -0.3859 -0.3686
  184DOPC   C3422649   4.426   0.336   4.055  0.7407  0.8995 -0.7758
  184DOPC   H4X22650   4.479   0.433   4.047  0.3105  1.1261 -0.9430
  184DOPC   H4Y22651   4.491   0.253   4.021  2.0365  1.5969 -0.0674
  184DOPC   C3522652   4.391   0.314   4.203 -0.6243  0.2047 -0.4819
  184DOPC   H5X22653   4.357   0.208   4.209  0.4085 -0.1899 -1.3995
  184DOPC   H5Y22654   4.307   0.375   4.243  0.3882  0.8354  0.7850
  184DOPC   C3622655   4.499   0.343   4.307 -1.2104  0.4782 -0.2879
  184DOPC   H6X22656   4.594   0.298   4.270 -1.0264  0.2747  0.4107
  184DOPC   H6Y22657   4.528   0.450   4.305  2.2745 -0.3308 -1.1360
  184DOPC   C3722658   4.446   0.284   4.440  0.0202 -0.3570  0.2245
  184DOPC   H7X22659   4.352   0.343   4.451  0.5412  0.7168 -0.8520
  184DOPC   H7Y22660   4.424   0.175   4.432 -2.6384 -0.0000  1.4552
  184DOPC   C3822661   4.538   0.310   4.565 -0.4266 -0.0725 -0.0928
  184DOPC   H8X22662   4.530   0.420   4.582  0.7108  0.6095 -3.3318
  184DOPC   H8Y22663   4.644   0.284   4.545 -0.2755 -0.6926  1.3497
  184DOPC   C3922664   4.506   0.219   4.680  0.6354  0.6330  0.2667
  184DOPC   H9X22665   4.505   0.112   4.654  4.1030  0.4767  0.4012
  184DOPC  C31022666   4.457   0.256   4.796 -0.2107  0.4389 -1.2252
  184DOPC  H10X22667   4.434   0.173   4.864 -0.2883  1.3860 -0.0738
  184DOPC  C31122668   4.423   0.389   4.856  0.0734 -0.1324 -0.2222
  184DOPC  H11X22669   4.340   0.381   4.929 -0.2012  0.4756 -0.4702
  184DOPC  H11Y22670   4.378   0.452   4.777 -2.0575  0.4599  1.3645
  184DOPC  C31222671   4.555   0.459   4.898  0.5285  0.6940  0.5101
  184DOPC  H12X22672   4.534   0.567   4.913 -1.8619  0.2014  1.0671
  184DOPC  H12Y22673   4.625   0.447   4.813  0.1268  0.3598  0.2225
  184DOPC  C31322674   4.622   0.413   5.026 -0.2092 -0.2505  0.5708
  184DOPC  H13X22675   4.628   0.302   5.035 -3.4772 -0.5061  0.8798
  184DOPC  H13Y22676   4.718   0.469   5.019 -0.1345 -0.6002 -2.3125
  184DOPC  C31422677   4.551   0.476   5.146  0.2544 -0.5820  0.2063
  184DOPC  H14X22678   4.562   0.586   5.147 -0.3612 -0.4713 -1.3878
  184DOPC  H14Y22679   4.442   0.457   5.139  0.1003 -1.2303  3.1591
  184DOPC  C31522680   4.587   0.433   5.289 -0.3894 -0.5274  0.4152
  184DOPC  H15X22681   4.698   0.426   5.298 -0.1399  2.5848  1.0108
  184DOPC  H15Y22682   4.552   0.328   5.299  2.2831 -1.4537  0.8538
  184DOPC  C31622683   4.526   0.527   5.400 -0.8790 -0.1343  0.0582
  184DOPC  H16X22684   4.416   0.535   5.389 -1.0489  0.4834  1.7988
  184DOPC  H16Y22685   4.546   0.464   5.490  0.2711 -1.3775 -1.0201
  184DOPC  C31722686   4.586   0.674   5.405 -0.3627  0.8819  0.2924
  184DOPC  H17X22687   4.630   0.690   5.505  0.0812  0.7163  0.1273
  184DOPC  H17Y22688   4.665   0.690   5.328  0.2434  1.5567  1.0492
  184DOPC  C31822689   4.478   0.778   5.382 -0.0692  0.4107  0.9446
  184DOPC  H18X22690   4.386   0.744   5.435 -0.1914  0.9911  1.1167
  184DOPC  H18Y22691   4.504   0.876   5.428 -1.0025  1.7010 -1.1130
  184DOPC  H18Z22692   4.462   0.796   5.274  0.6836  1.0013  0.9234
  185DOPC     N22693   5.182   5.711   3.543  0.1141  0.4433 -0.1278
  185DOPC   C1222694   5.208   5.685   3.690  0.1645 -0.1635 -0.0304
  185DOPC  H12A22695   5.314   5.681   3.712  0.6568  0.1678 -2.1224
  185DOPC  H12B22696   5.162   5.590   3.714  2.0333 -0.6521  1.9788
  185DOPC   C1322697   5.035   5.748   3.518  0.0244 -1.3136  0.0165
  185DOPC  H13A22698   5.010   5.757   3.413  0.8392  0.6309 -0.0460
  185DOPC  H13B22699   4.964   5.678   3.560 -1.7743 -0.2609 -1.1240
  185DOPC  H13C22700   5.027   5.844   3.566  1.2557 -1.1054 -0.1584
  185DOPC   C1422701   5.212   5.587   3.473 -0.1800  0.8031  0.8913
  185DOPC  H14A22702   5.319   5.575   3.474 -0.2420  0.0308 -0.1737
  185DOPC  H14B22703   5.152   5.508   3.515 -0.0058  0.4067  0.4009
  185DOPC  H14C22704   5.188   5.587   3.367 -0.8364  0.3776  1.0350
  185DOPC   C1522705   5.261   5.823   3.491 -0.2581  0.5306  0.2848
  185DOPC  H15A22706   5.210   5.874   3.411 -0.0299 -1.3426 -1.1301
  185DOPC  H15B22707   5.356   5.792   3.450 -1.1215  0.3193 -1.6508
  185DOPC  H15C22708   5.281   5.897   3.567 -3.2962  1.5307  0.2319
  185DOPC   C1122709   5.160   5.799   3.786  0.3998  0.6132  0.0606
  185DOPC  H11A22710   5.052   5.817   3.770  0.3213 -1.8164 -3.2967
  185DOPC  H11B22711   5.189   5.767   3.888  1.6970 -0.6939 -0.6785
  185DOPC     P22712   5.386   5.927   3.793 -0.2821 -0.4209  0.2092
  185DOPC   O1322713   5.441   6.056   3.756 -0.3109  0.3259  0.0377
  185DOPC   O1422714   5.461   5.817   3.735  0.1472  0.3237 -0.1215
  185DOPC   O1222715   5.232   5.918   3.762  0.6760  0.1273 -0.0711
  185DOPC   O1122716   5.383   5.916   3.951  0.1957 -0.4185  0.4990
  185DOPC    C122717   5.478   5.995   4.030  0.6974 -0.2773 -0.9040
  185DOPC    HA22718   5.430   5.994   4.130  0.4994 -0.3603 -0.9992
  185DOPC    HB22719   5.481   6.102   4.001  1.6676  0.4554  1.6013
  185DOPC    C222720   5.622   5.937   4.029  0.1819  0.7388 -0.0854
  185DOPC    HS22721   5.661   5.948   3.925 -0.0781  0.4142 -0.2195
  185DOPC   O2122722   5.615   5.802   4.063 -0.3991  0.4044  0.6061
  185DOPC   C2122723   5.707   5.719   4.011 -0.0217  1.3485 -0.2762
  185DOPC   O2222724   5.808   5.752   3.951 -0.4828  0.2015 -0.4864
  185DOPC   C2222725   5.678   5.577   4.057  0.2003 -0.0843 -0.1465
  185DOPC   H2R22726   5.582   5.554   4.005  0.3052  1.5507 -1.1111
  185DOPC   H2S22727   5.662   5.584   4.167  0.2143 -2.2934  0.0546
  185DOPC    C322728   5.714   6.010   4.125  0.2533 -0.5223  0.2499
  185DOPC    HX22729   5.704   6.119   4.101  0.3575 -0.9553 -1.9770
  185DOPC    HY22730   5.823   5.994   4.120  0.8320  2.6057  0.6239
  185DOPC   O3122731   5.672   6.000   4.260 -0.1987 -0.5584 -0.1383
  185DOPC   C3122732   5.716   5.902   4.337  0.1097  0.6139  0.0996
  185DOPC   O3222733   5.794   5.813   4.306  0.2222  0.0503  0.2066
  185DOPC   C3222734   5.651   5.913   4.474  0.1450  0.5113  0.4412
  185DOPC   H2X22735   5.637   6.020   4.500 -1.3384  1.0584 -2.2201
  185DOPC   H2Y22736   5.552   5.866   4.450  0.9051 -0.1063 -1.7638
  185DOPC   C2322737   5.797   5.490   4.028  0.3115 -0.2453  0.2481
  185DOPC   H3R22738   5.814   5.499   3.919 -1.5828  1.3364  0.0254
  185DOPC   H3S22739   5.766   5.384   4.038 -0.4308  0.0349  1.0624
  185DOPC   C2422740   5.921   5.502   4.111 -0.1537 -0.6463 -0.4155
  185DOPC   H4R22741   5.980   5.584   4.066 -0.5385  0.1091  0.4250
  185DOPC   H4S22742   5.983   5.412   4.092  2.1849  1.0522 -1.2951
  185DOPC   C2522743   5.910   5.514   4.270  0.3401  0.0184 -0.2017
  185DOPC   H5R22744   5.838   5.594   4.298  0.5589 -0.4020  1.6818
  185DOPC   H5S22745   6.007   5.551   4.310  1.0617 -1.4941 -0.4804
  185DOPC   C2622746   5.860   5.390   4.351 -0.5565 -0.4472  0.8758
  185DOPC   H6R22747   5.934   5.308   4.333 -0.8336 -0.7116  0.9341
  185DOPC   H6S22748   5.765   5.352   4.307  1.0410 -0.2964 -3.1662
  185DOPC   C2722749   5.851   5.419   4.506 -0.6877  0.2180  0.3409
  185DOPC   H7R22750   5.845   5.323   4.561  0.8819 -0.0927  0.0118
  185DOPC   H7S22751   5.757   5.477   4.520 -1.0273 -0.5452  1.2671
  185DOPC   C2822752   5.959   5.512   4.569 -0.5280 -0.0449 -0.2224
  185DOPC   H8R22753   5.922   5.555   4.664 -1.6938  2.4199 -1.6851
  185DOPC   H8S22754   5.966   5.609   4.514 -0.1278  0.8458  1.3317
  185DOPC   C2922755   6.086   5.442   4.599 -0.3298 -0.6076 -0.1171
  185DOPC   H9R22756   6.101   5.363   4.524  2.2745 -0.5499  0.2651
  185DOPC  C21022757   6.171   5.436   4.701  0.6667 -0.1196  0.9378
  185DOPC  H10R22758   6.246   5.356   4.700  2.6287  1.6197  0.4253
  185DOPC  C21122759   6.162   5.521   4.817 -0.1075  0.4609 -0.3486
  185DOPC  H11R22760   6.067   5.578   4.828  0.2092  0.4991  3.6538
  185DOPC  H11S22761   6.242   5.598   4.814  1.4074 -0.8524  2.3352
  185DOPC  C21222762   6.174   5.455   4.955  0.3458  0.2481  0.3467
  185DOPC  H12R22763   6.275   5.410   4.969 -0.3464 -1.6595 -0.4729
  185DOPC  H12S22764   6.105   5.367   4.958 -1.0703  1.3400  1.1600
  185DOPC  C21322765   6.146   5.551   5.071 -0.1047 -0.0841 -0.3771
  185DOPC  H13R22766   6.068   5.624   5.039 -0.2386 -0.8871 -1.9972
  185DOPC  H13S22767   6.232   5.618   5.091 -1.3072  1.8240 -1.2813
  185DOPC  C21422768   6.121   5.483   5.199  0.6675  0.3045 -0.2411
  185DOPC  H14R22769   6.195   5.406   5.229  0.1985  0.7090  2.2034
  185DOPC  H14S22770   6.023   5.433   5.194  1.7075 -2.0095  0.8072
  185DOPC  C21522771   6.115   5.591   5.308  0.4573 -0.3176 -0.2025
  185DOPC  H15R22772   6.042   5.670   5.281 -0.0963  0.2005  2.4887
  185DOPC  H15S22773   6.213   5.642   5.320 -0.1763  0.4186  2.9265
  185DOPC  C21622774   6.069   5.537   5.445  0.8874  0.3033  0.0693
  185DOPC  H16R22775   6.145   5.457   5.451  1.6206  1.0335  1.0200
  185DOPC  H16S22776   5.971   5.486   5.445  1.2238 -0.3947  1.3739
  185DOPC  C21722777   6.094   5.630   5.564  0.6763  0.1966  0.7009
  185DOPC  H17R22778   6.019   5.712   5.560 -1.0118 -1.2695  1.0947
  185DOPC  H17S22779   6.195   5.673   5.552 -0.4490  2.6039 -0.7723
  185DOPC  C21822780   6.100   5.568   5.702  0.3332 -0.3378  0.2072
  185DOPC  H18R22781   6.166   5.627   5.769  2.6072 -1.3827 -0.9921
  185DOPC  H18S22782   6.141   5.466   5.687 -1.2291 -0.6532 -2.8923
  185DOPC  H18T22783   5.998   5.556   5.745 -0.1873 -0.0124 -0.8971
  185DOPC   C3322784   5.724   5.834   4.582  0.4893 -0.7946 -0.4422
  185DOPC   H3X22785   5.826   5.877   4.592  0.6797 -1.3484  0.0495
  185DOPC   H3Y22786   5.733   5.735   4.532  1.7217 -0.3268 -1.2172
  185DOPC   C3422787   5.651   5.819   4.711  0.2994 -0.1079 -0.0355
  185DOPC   H4X22788   5.560   5.758   4.694  0.2729 -0.2266  0.5286
  185DOPC   H4Y22789   5.623   5.914   4.762 -1.5518 -1.3673  1.4564
  185DOPC   C3522790   5.731   5.733   4.799 -0.2199 -0.4234 -0.1491
  185DOPC   H5X22791   5.835   5.772   4.804 -0.2729 -0.1191 -1.3164
  185DOPC   H5Y22792   5.751   5.631   4.761  4.1727 -0.4973  1.7697
  185DOPC   C3622793   5.670   5.719   4.945  0.2545  1.1361  0.1304
  185DOPC   H6X22794   5.694   5.801   5.016 -0.8466  2.9447 -1.4855
  185DOPC   H6Y22795   5.562   5.695   4.944  0.4663 -0.4536 -3.6749
  185DOPC   C3722796   5.731   5.594   5.013  0.3503 -0.1268  0.0854
  185DOPC   H7X22797   5.702   5.514   4.941  1.3193 -0.2757 -0.1515
  185DOPC   H7Y22798   5.842   5.597   5.011  0.3489 -0.2065 -0.9656
  185DOPC   C3822799   5.665   5.550   5.142  0.1602 -0.0237  0.9002
  185DOPC   H8X22800   5.661   5.439   5.143 -1.9415 -0.0200 -0.7979
  185DOPC   H8Y22801   5.559   5.581   5.136  0.1228 -0.4237 -1.4040
  185DOPC   C3922802   5.730   5.618   5.258  0.0812 -0.5803 -0.1084
  185DOPC   H9X22803   5.822   5.670   5.228 -0.2465 -0.6916 -1.3590
  185DOPC  C31022804   5.696   5.615   5.389  0.5073  0.5478 -0.0537
  185DOPC  H10X22805   5.754   5.677   5.459  2.0159  0.0725 -0.8436
  185DOPC  C31122806   5.571   5.549   5.445  0.5646 -0.2781  0.3992
  185DOPC  H11X22807   5.491   5.556   5.368  1.3253  0.9427 -0.3185
  185DOPC  H11Y22808   5.533   5.609   5.530  1.4227 -0.3811  0.8738
  185DOPC  C31222809   5.594   5.401   5.507  0.1818  0.1245  0.8398
  185DOPC  H12X22810   5.656   5.338   5.440 -0.9382  0.7851 -0.8815
  185DOPC  H12Y22811   5.500   5.345   5.525  1.0182 -1.5427  0.1942
  185DOPC  C31322812   5.671   5.401   5.639 -0.4023 -0.1840  0.8575
  185DOPC  H13X22813   5.770   5.450   5.625 -0.0299 -1.4740 -1.7787
  185DOPC  H13Y22814   5.612   5.455   5.716  0.7956 -0.4014  1.9538
  185DOPC  C31422815   5.691   5.268   5.714 -0.0158 -0.0286  0.6741
  185DOPC  H14X22816   5.600   5.223   5.759  0.8585 -3.1680 -0.4518
  185DOPC  H14Y22817   5.727   5.192   5.642 -0.7832  1.5302 -1.4741
  185DOPC  C31522818   5.790   5.274   5.835  0.5866 -0.4525  0.1703
  185DOPC  H15X22819   5.746   5.282   5.937  0.2821  0.1435  0.0003
  185DOPC  H15Y22820   5.864   5.356   5.823  0.5691 -0.3304  0.8298
  185DOPC  C31622821   5.868   5.145   5.844  0.8414 -0.7599  0.2779
  185DOPC  H16X22822   5.789   5.068   5.861 -0.9883  1.0274  0.2118
  185DOPC  H16Y22823   5.917   5.122   5.747 -1.4336 -2.2403 -0.6178
  185DOPC  C31722824   5.983   5.139   5.945  0.7003 -0.1885  0.5344
  185DOPC  H17X22825   6.039   5.046   5.921 -0.9076 -1.7177  2.3345
  185DOPC  H17Y22826   6.046   5.230   5.948  1.0036 -0.3401 -0.6134
  185DOPC  C31822827   5.929   5.125   6.087 -1.0444 -0.4735 -0.0653
  185DOPC  H18X22828   5.865   5.207   6.125 -0.4168 -0.4740  1.0302
  185DOPC  H18Y22829   5.860   5.038   6.097 -0.4428 -0.7373  2.1824
  185DOPC  H18Z22830   6.005   5.107   6.166 -1.1552  1.8573  0.6381
  186DOPC     N22831   6.338   2.574   3.510 -0.2098 -0.1794 -0.1160
  186DOPC   C1222832   6.466   2.647   3.545 -0.7510 -0.7654  0.5371
  186DOPC  H12A22833   6.499   2.723   3.476 -1.7797  1.2962  2.1975
  186DOPC  H12B22834   6.546   2.573   3.543  0.0489  0.0757  0.7940
  186DOPC   C1322835   6.302   2.481   3.619  0.1851 -0.5385 -0.0061
  186DOPC  H13A22836   6.300   2.535   3.712 -1.0277 -0.8243  0.1567
  186DOPC  H13B22837   6.201   2.445   3.603  0.2024 -0.7684  0.3985
  186DOPC  H13C22838   6.368   2.396   3.631  1.2836  0.1860 -0.7320
  186DOPC   C1422839   6.343   2.504   3.379 -0.5472  0.1972 -0.1489
  186DOPC  H14A22840   6.256   2.443   3.361  0.4599 -0.8294 -1.8295
  186DOPC  H14B22841   6.343   2.565   3.290 -1.7677  0.5237  0.0461
  186DOPC  H14C22842   6.422   2.431   3.385 -0.1881  0.6849  1.7499
  186DOPC   C1522843   6.221   2.672   3.497 -0.2959 -0.7884 -0.0094
  186DOPC  H15A22844   6.208   2.739   3.580 -0.6998  0.0777 -0.7513
  186DOPC  H15B22845   6.132   2.612   3.488  0.4741 -1.8555 -0.7644
  186DOPC  H15C22846   6.224   2.724   3.402  2.3617 -2.0138 -0.6852
  186DOPC   C1122847   6.465   2.715   3.682  0.7184 -0.4630 -0.1143
  186DOPC  H11A22848   6.549   2.788   3.690  0.2043  0.1455 -0.2188
  186DOPC  H11B22849   6.374   2.778   3.688  0.8420 -0.2741 -0.1824
  186DOPC     P22850   6.584   2.552   3.833  0.2023 -0.0133 -0.1527
  186DOPC   O1322851   6.697   2.649   3.841  0.4680 -0.2564  0.0800
  186DOPC   O1422852   6.598   2.437   3.739  1.0323  0.1602 -0.0246
  186DOPC   O1222853   6.454   2.631   3.796 -0.1360 -0.1462  0.4690
  186DOPC   O1122854   6.545   2.496   3.980  0.1491 -0.7013  1.0874
  186DOPC    C122855   6.408   2.486   4.025  0.3495 -1.1613 -0.0343
  186DOPC    HA22856   6.393   2.400   4.094  0.4958 -1.9604 -0.9757
  186DOPC    HB22857   6.340   2.459   3.942 -1.4118 -0.6972  1.2017
  186DOPC    C222858   6.359   2.600   4.126  0.3037  0.5949  0.8523
  186DOPC    HS22859   6.270   2.554   4.174  0.3446 -1.1928 -0.6813
  186DOPC   O2122860   6.311   2.712   4.046 -0.1020  0.5985  0.1005
  186DOPC   C2122861   6.196   2.694   3.988 -0.1636  0.1600  0.0235
  186DOPC   O2222862   6.118   2.596   4.000  0.2260 -0.0395  0.1620
  186DOPC   C2222863   6.166   2.825   3.908  0.5132  0.1095 -0.0607
  186DOPC   H2R22864   6.134   2.793   3.807  1.4747 -0.9864 -0.0325
  186DOPC   H2S22865   6.258   2.887   3.900  0.5919  0.1184  0.7703
  186DOPC    C322866   6.475   2.637   4.227  0.1425  0.4277  0.0121
  186DOPC    HX22867   6.445   2.727   4.284 -1.6617 -0.1675  0.0458
  186DOPC    HY22868   6.562   2.662   4.163  1.2926 -1.8470  0.5629
  186DOPC   O3122869   6.500   2.516   4.304  0.3115  0.2701 -0.5195
  186DOPC   C3122870   6.448   2.514   4.430  0.7193 -0.0514 -0.2352
  186DOPC   O3222871   6.380   2.601   4.475  0.3638 -0.0615 -0.3376
  186DOPC   C3222872   6.497   2.392   4.507  0.0911 -0.0474  0.0390
  186DOPC   H2X22873   6.480   2.314   4.430  0.4347  0.1844 -0.2736
  186DOPC   H2Y22874   6.608   2.395   4.512  0.1147 -1.6495  2.0546
  186DOPC   C2322875   6.058   2.912   3.987  0.2256 -1.1152  0.2023
  186DOPC   H3R22876   5.960   2.859   3.991  0.6007 -1.7978  0.6621
  186DOPC   H3S22877   6.045   3.003   3.925  2.0317 -0.4919  0.6673
  186DOPC   C2422878   6.097   2.960   4.126 -0.1386  0.1873 -0.0571
  186DOPC   H4R22879   6.183   3.030   4.115 -0.6076  0.4444 -2.9156
  186DOPC   H4S22880   6.121   2.872   4.190 -1.3926  0.9297  1.5028
  186DOPC   C2522881   5.977   3.038   4.191  0.2516 -0.0636  0.4698
  186DOPC   H5R22882   5.891   2.969   4.195 -0.6429  0.9831 -0.0860
  186DOPC   H5S22883   5.955   3.122   4.122 -1.6879 -0.3897  0.6507
  186DOPC   C2622884   5.995   3.090   4.339  0.7326 -0.7893 -1.2817
  186DOPC   H6R22885   6.090   3.147   4.340  0.6433 -0.6458 -0.2983
  186DOPC   H6S22886   6.010   2.997   4.397  0.0187 -0.6763 -0.9068
  186DOPC   C2722887   5.883   3.175   4.388 -0.3593 -0.3929  0.5233
  186DOPC   H7R22888   5.789   3.137   4.343 -1.2614  0.5947  1.5064
  186DOPC   H7S22889   5.902   3.279   4.354  2.2852 -0.4214  1.6731
  186DOPC   C2822890   5.865   3.164   4.540 -0.5770 -0.4319 -0.6334
  186DOPC   H8R22891   5.955   3.221   4.569  0.2826 -1.0697 -1.9568
  186DOPC   H8S22892   5.850   3.062   4.582 -2.9720  0.0010 -0.3058
  186DOPC   C2922893   5.751   3.249   4.577 -0.5421 -0.2692  0.1553
  186DOPC   H9R22894   5.716   3.312   4.494 -1.9251 -0.0424  0.8762
  186DOPC  C21022895   5.702   3.270   4.695 -0.0314  0.4308 -0.7469
  186DOPC  H10R22896   5.620   3.342   4.707 -0.5864  0.0624 -2.1428
  186DOPC  C21122897   5.733   3.198   4.821  0.2319  0.3072 -0.3991
  186DOPC  H11R22898   5.840   3.167   4.825 -0.1642 -1.0544 -0.1058
  186DOPC  H11S22899   5.682   3.102   4.842  0.7070  0.4029  1.4086
  186DOPC  C21222900   5.698   3.281   4.941 -0.8753  0.4047 -0.2834
  186DOPC  H12R22901   5.589   3.302   4.939 -1.1592 -0.6221  1.7615
  186DOPC  H12S22902   5.745   3.381   4.934 -0.6776  0.2332 -1.9699
  186DOPC  C21322903   5.725   3.207   5.075 -0.1563  0.7047 -0.7002
  186DOPC  H13R22904   5.836   3.198   5.086 -0.3501 -0.6492  0.5457
  186DOPC  H13S22905   5.676   3.108   5.075 -1.1283  1.1198  1.5781
  186DOPC  C21422906   5.663   3.271   5.200  0.8818  0.1294  0.9569
  186DOPC  H14R22907   5.558   3.302   5.180 -0.0355 -2.1815  1.9050
  186DOPC  H14S22908   5.730   3.358   5.219  1.8901  0.4676 -3.1603
  186DOPC  C21522909   5.660   3.173   5.315  0.3786 -0.6233  0.3303
  186DOPC  H15R22910   5.765   3.151   5.345  0.0344 -3.7466 -0.4605
  186DOPC  H15S22911   5.606   3.082   5.282 -0.7858  0.5669 -1.1802
  186DOPC  C21622912   5.584   3.243   5.430 -0.0295  0.9876 -0.1720
  186DOPC  H16R22913   5.480   3.262   5.395  0.1598  1.6133 -0.4056
  186DOPC  H16S22914   5.635   3.336   5.462 -0.7012  1.0235  0.8334
  186DOPC  C21722915   5.581   3.141   5.545 -0.0825  0.6456  0.4039
  186DOPC  H17R22916   5.671   3.078   5.558 -1.3417 -1.6139 -1.0334
  186DOPC  H17S22917   5.504   3.064   5.521  0.6725 -0.5540  1.6632
  186DOPC  C21822918   5.539   3.196   5.676  0.4677 -0.4238 -0.6154
  186DOPC  H18R22919   5.600   3.288   5.684 -0.8038  0.4354 -0.4511
  186DOPC  H18S22920   5.538   3.129   5.764  1.1985 -0.4142 -0.5956
  186DOPC  H18T22921   5.439   3.246   5.673  1.4654  1.7311 -0.0315
  186DOPC   C3322922   6.431   2.363   4.641  0.5890 -0.1083 -0.0182
  186DOPC   H3X22923   6.322   2.369   4.622  0.5714 -1.4710 -0.4816
  186DOPC   H3Y22924   6.466   2.441   4.712 -1.4903  1.2341 -0.3989
  186DOPC   C3422925   6.453   2.225   4.700 -0.2815  0.0314  0.3200
  186DOPC   H4X22926   6.558   2.213   4.736 -1.0729 -1.3184  2.3033
  186DOPC   H4Y22927   6.451   2.156   4.613  3.3894  1.8668 -1.4522
  186DOPC   C3522928   6.345   2.182   4.798  0.0872 -0.2006  0.0910
  186DOPC   H5X22929   6.358   2.073   4.813  1.6063 -0.1134 -0.3987
  186DOPC   H5Y22930   6.240   2.197   4.767 -0.1253  0.3230  1.0279
  186DOPC   C3622931   6.371   2.249   4.933 -1.0012  0.2715  0.0054
  186DOPC   H6X22932   6.478   2.241   4.962 -0.6621  1.6302 -0.7627
  186DOPC   H6Y22933   6.351   2.358   4.919  0.6148  0.2716 -3.0870
  186DOPC   C3722934   6.275   2.195   5.039  0.1806  0.2062  0.2607
  186DOPC   H7X22935   6.171   2.217   5.006 -0.3193 -1.7238  0.4733
  186DOPC   H7Y22936   6.291   2.086   5.040  1.1478  0.3415  0.2095
  186DOPC   C3822937   6.296   2.250   5.183  0.1261  0.2100  0.2971
  186DOPC   H8X22938   6.259   2.355   5.184 -1.5282 -0.3375 -0.5186
  186DOPC   H8Y22939   6.404   2.247   5.209 -0.0212  0.1808  0.9336
  186DOPC   C3922940   6.204   2.165   5.273 -0.0887 -0.3452 -0.1086
  186DOPC   H9X22941   6.125   2.100   5.232 -0.7598 -1.1283  2.2610
  186DOPC  C31022942   6.234   2.148   5.402 -0.6083 -1.1305  0.2194
  186DOPC  H10X22943   6.167   2.069   5.440  1.2386 -3.6288 -1.3384
  186DOPC  C31122944   6.341   2.211   5.486 -0.4353 -0.5405 -0.3442
  186DOPC  H11X22945   6.295   2.297   5.539  0.1253 -0.6172  0.2885
  186DOPC  H11Y22946   6.427   2.242   5.423 -0.9725  1.3670 -0.1899
  186DOPC  C31222947   6.381   2.117   5.598  0.1387  0.5804 -0.1302
  186DOPC  H12X22948   6.470   2.162   5.647  0.7567  0.4873 -1.1522
  186DOPC  H12Y22949   6.401   2.014   5.561  0.0621  0.2213  0.8057
  186DOPC  C31322950   6.285   2.103   5.721  0.4178  0.0544  0.2419
  186DOPC  H13X22951   6.189   2.070   5.677  0.5095  2.2854 -1.8022
  186DOPC  H13Y22952   6.332   2.014   5.769 -1.1590 -1.8547 -1.5422
  186DOPC  C31422953   6.271   2.228   5.816 -0.3064 -0.1754  0.1602
  186DOPC  H14X22954   6.372   2.272   5.830 -1.0810  1.9293 -0.5248
  186DOPC  H14Y22955   6.220   2.304   5.753 -0.0493  0.1759  0.3733
  186DOPC  C31522956   6.208   2.208   5.956  0.6981  0.0108  0.0234
  186DOPC  H15X22957   6.114   2.152   5.938  1.1401 -0.6712 -0.2043
  186DOPC  H15Y22958   6.185   2.309   5.998  0.7174 -0.0076  0.0776
  186DOPC  C31622959   6.295   2.132   6.055 -0.2289  0.4419  0.1690
  186DOPC  H16X22960   6.221   2.097   6.130 -0.7279  0.5405 -0.2671
  186DOPC  H16Y22961   6.334   2.036   6.017 -0.2611  0.5817 -0.2187
  186DOPC  C31722962   6.396   2.220   6.117 -0.0757 -0.1789 -0.1319
  186DOPC  H17X22963   6.468   2.256   6.040 -1.2346  0.6716 -0.8544
  186DOPC  H17Y22964   6.355   2.317   6.150 -0.4336 -1.1633  2.5197
  186DOPC  C31822965   6.454   2.167   6.248  0.0673  0.2535  0.0786
  186DOPC  H18X22966   6.398   2.087   6.301  1.1750  1.2104  2.8676
  186DOPC  H18Y22967   6.557   2.130   6.230  1.0005  1.8123  1.8708
  186DOPC  H18Z22968   6.475   2.253   6.315  0.6003  0.8801 -0.8638
  187DOPC     N22969   6.030   1.160   3.776 -0.5476 -0.8120  0.0076
  187DOPC   C1222970   5.920   1.063   3.727 -0.2283 -0.5190  0.4174
  187DOPC  H12A22971   5.879   1.096   3.633 -1.9842 -0.3049  1.2272
  187DOPC  H12B22972   5.842   1.076   3.801  1.3197 -0.1849  2.0825
  187DOPC   C1322973   6.095   1.112   3.896 -0.7048  0.5453  0.2969
  187DOPC  H13A22974   6.134   1.014   3.873 -0.9555  0.6574 -0.6390
  187DOPC  H13B22975   6.171   1.170   3.946 -0.4392 -1.2991  2.1638
  187DOPC  H13C22976   6.018   1.092   3.968 -0.1101 -0.0264  0.7869
  187DOPC   C1422977   5.980   1.298   3.795  0.3706 -0.7744  0.4298
  187DOPC  H14A22978   5.900   1.308   3.866  0.4531  1.6982  0.2577
  187DOPC  H14B22979   6.061   1.362   3.825 -0.5781  1.0872 -0.7406
  187DOPC  H14C22980   5.941   1.341   3.704  0.2010  1.5755  1.5332
  187DOPC   C1522981   6.137   1.166   3.665  0.3490  0.2704  0.9899
  187DOPC  H15A22982   6.158   1.064   3.634  0.2765  0.5780 -0.1184
  187DOPC  H15B22983   6.232   1.211   3.691  2.3664 -2.6012 -0.7611
  187DOPC  H15C22984   6.097   1.207   3.574  1.0303 -0.3888  0.3709
  187DOPC   C1122985   5.957   0.909   3.732 -0.1528 -0.0557  0.4778
  187DOPC  H11A22986   5.887   0.865   3.658  0.3246  1.5142 -0.9820
  187DOPC  H11B22987   6.060   0.899   3.690  0.4574 -0.7302  2.0714
  187DOPC     P22988   5.808   0.825   3.927 -0.4611  0.1697 -0.1932
  187DOPC   O1322989   5.764   0.686   3.898 -0.1583 -0.1447 -0.2962
  187DOPC   O1422990   5.721   0.940   3.895  0.4124 -0.0387 -0.4468
  187DOPC   O1222991   5.952   0.839   3.863 -0.5658 -0.4615  0.6599
  187DOPC   O1122992   5.842   0.830   4.081 -0.2506 -0.2515  0.0785
  187DOPC    C122993   5.890   0.705   4.146 -0.2736  0.1922  0.7187
  187DOPC    HA22994   5.966   0.653   4.084 -0.5094  2.0246 -1.2272
  187DOPC    HB22995   5.809   0.635   4.176 -1.6166  0.1018 -2.7104
  187DOPC    C222996   5.958   0.752   4.279  0.7418  0.1771  0.5418
  187DOPC    HS22997   5.991   0.655   4.323 -0.3265 -0.1593  0.6282
  187DOPC   O2122998   5.874   0.823   4.366  0.3386 -0.4288  0.5470
  187DOPC   C2122999   5.777   0.740   4.418  0.1888  0.0878  0.2053
  187DOPC   O2223000   5.767   0.623   4.395 -0.2898  0.1326  0.1676
  187DOPC   C2223001   5.700   0.820   4.520  0.2095 -0.2002 -0.1311
  187DOPC   H2R23002   5.684   0.923   4.482  0.7920  0.4914  1.4376
  187DOPC   H2S23003   5.765   0.832   4.609 -2.3137 -2.6306  2.1925
  187DOPC    C323004   6.081   0.843   4.261  0.4320 -0.1339  0.1749
  187DOPC    HX23005   6.062   0.925   4.188 -0.2362 -0.7959 -0.4193
  187DOPC    HY23006   6.159   0.796   4.198 -0.4297 -1.2426 -0.0918
  187DOPC   O3123007   6.154   0.884   4.382  0.5712  0.2371  0.1476
  187DOPC   C3123008   6.107   0.997   4.428  0.2573 -0.4195 -0.2142
  187DOPC   O3223009   6.048   1.078   4.359  0.0004  0.1343  0.3656
  187DOPC   C3223010   6.130   1.010   4.574  0.3218  0.0765  0.3838
  187DOPC   H2X23011   6.126   0.904   4.609  0.4451  0.5527  1.9522
  187DOPC   H2Y23012   6.230   1.054   4.592  0.1700  0.4171  0.3990
  187DOPC   C2323013   5.578   0.755   4.584  0.0489 -0.7806  0.3463
  187DOPC   H3R23014   5.598   0.653   4.624 -0.1430 -0.2259  1.9237
  187DOPC   H3S23015   5.490   0.739   4.518  0.1630  0.4702 -0.1351
  187DOPC   C2423016   5.522   0.832   4.709 -0.0176  0.0344 -0.2131
  187DOPC   H4R23017   5.429   0.784   4.746  0.4928  0.2506  1.4289
  187DOPC   H4S23018   5.502   0.930   4.661  2.5027  0.9643  0.4701
  187DOPC   C2523019   5.618   0.843   4.823  0.0801 -0.3402 -0.2127
  187DOPC   H5R23020   5.696   0.918   4.799 -2.5040  2.3447 -0.7282
  187DOPC   H5S23021   5.661   0.742   4.841 -1.8573 -1.0791  0.5956
  187DOPC   C2623022   5.549   0.880   4.954  0.3283  0.3742  0.4059
  187DOPC   H6R23023   5.470   0.815   4.998 -0.7864 -0.2779 -2.2828
  187DOPC   H6S23024   5.494   0.973   4.925 -0.0010 -0.0954 -0.5412
  187DOPC   C2723025   5.656   0.921   5.055 -0.2724 -0.3212  0.1163
  187DOPC   H7R23026   5.714   1.009   5.020 -0.0269  0.1876  1.7336
  187DOPC   H7S23027   5.725   0.834   5.057  0.6277  0.3851  0.4238
  187DOPC   C2823028   5.604   0.953   5.195  0.2010  0.2865  0.6057
  187DOPC   H8R23029   5.518   0.888   5.224 -1.7378  1.4073 -2.2145
  187DOPC   H8S23030   5.564   1.056   5.191 -0.2592  0.0631 -2.0517
  187DOPC   C2923031   5.714   0.934   5.301  0.4359  1.1239 -0.0746
  187DOPC   H9R23032   5.807   0.978   5.261 -1.1481  1.6916 -3.4738
  187DOPC  C21023033   5.707   0.854   5.412  0.6744  0.4343  0.2100
  187DOPC  H10R23034   5.796   0.841   5.475  0.7538 -0.0518  0.0022
  187DOPC  C21123035   5.590   0.783   5.480 -0.0805 -0.5323  0.4147
  187DOPC  H11R23036   5.605   0.674   5.463  2.2745 -0.4854  1.8013
  187DOPC  H11S23037   5.489   0.812   5.442 -0.8734 -2.9420  0.4993
  187DOPC  C21223038   5.570   0.796   5.630 -0.2923 -1.1195 -0.1399
  187DOPC  H12R23039   5.665   0.790   5.688  0.4004  1.8377 -0.7832
  187DOPC  H12S23040   5.504   0.718   5.672 -1.7152  1.0956  1.9957
  187DOPC  C21323041   5.495   0.923   5.672 -0.0531  0.5347  0.3973
  187DOPC  H13R23042   5.391   0.916   5.635  0.7386 -2.1792 -1.6042
  187DOPC  H13S23043   5.545   1.009   5.623 -0.3664 -0.2589 -1.3622
  187DOPC  C21423044   5.488   0.941   5.829 -0.1769  0.2962  0.0680
  187DOPC  H14R23045   5.589   0.915   5.869 -1.1220  0.3118  2.5781
  187DOPC  H14S23046   5.410   0.866   5.852  0.3789 -1.6898 -3.6600
  187DOPC  C21523047   5.450   1.082   5.883  0.3034  0.0040 -0.3113
  187DOPC  H15R23048   5.345   1.107   5.858  0.7565 -0.1453 -2.5410
  187DOPC  H15S23049   5.513   1.164   5.843 -1.2265  1.3349 -0.0936
  187DOPC  C21623050   5.443   1.091   6.040  0.4278 -0.0093 -0.5912
  187DOPC  H16R23051   5.544   1.076   6.083 -0.3019  2.1608  2.1803
  187DOPC  H16S23052   5.375   1.005   6.059 -0.4961  1.0241  0.9531
  187DOPC  C21723053   5.396   1.226   6.092 -0.3513  0.1141  0.2561
  187DOPC  H17R23054   5.409   1.309   6.019 -3.1113  0.6510  0.2625
  187DOPC  H17S23055   5.468   1.261   6.169 -1.7619  0.1941  1.5898
  187DOPC  C21823056   5.253   1.232   6.153 -0.0969 -0.0869 -0.6125
  187DOPC  H18R23057   5.226   1.340   6.145 -0.8244 -0.2961 -1.0646
  187DOPC  H18S23058   5.255   1.201   6.260  0.1873  0.7217 -0.3742
  187DOPC  H18T23059   5.184   1.168   6.094  1.5101 -1.2607 -1.2806
  187DOPC   C3323060   6.020   1.088   4.645 -0.4639  0.5609  0.4598
  187DOPC   H3X23061   5.919   1.042   4.638  0.3082 -1.3450  1.1658
  187DOPC   H3Y23062   6.013   1.191   4.603  0.3148  0.1766 -0.6455
  187DOPC   C3423063   6.064   1.103   4.793 -0.0941 -0.3950  0.3310
  187DOPC   H4X23064   6.159   1.160   4.785 -1.0568  1.0061 -3.6489
  187DOPC   H4Y23065   6.088   1.005   4.840  2.5490  0.8568  1.7947
  187DOPC   C3523066   5.963   1.175   4.882 -0.1524 -0.1087  0.1733
  187DOPC   H5X23067   5.869   1.115   4.884 -0.8835  0.8654 -1.5912
  187DOPC   H5Y23068   5.952   1.273   4.831 -0.1687  0.0793  0.5411
  187DOPC   C3623069   6.020   1.207   5.020  0.5443  0.2767  0.4634
  187DOPC   H6X23070   6.128   1.235   5.024  0.6179  0.2586 -0.9134
  187DOPC   H6Y23071   5.952   1.281   5.066  0.0612 -0.4025  0.8598
  187DOPC   C3723072   6.016   1.076   5.107 -0.6654 -0.6378  0.5467
  187DOPC   H7X23073   5.926   1.023   5.067  0.5387 -0.3844 -2.7445
  187DOPC   H7Y23074   6.106   1.020   5.074 -0.6646  0.1239 -0.8222
  187DOPC   C3823075   6.023   1.094   5.263 -0.7341  0.1368 -0.2440
  187DOPC   H8X23076   6.022   1.004   5.328  0.8305 -0.4742 -1.0174
  187DOPC   H8Y23077   5.929   1.146   5.293 -0.3457  0.6962  0.0105
  187DOPC   C3923078   6.148   1.178   5.287 -0.2271  0.2818 -0.1364
  187DOPC   H9X23079   6.226   1.153   5.214 -1.3425 -1.7691 -0.6989
  187DOPC  C31023080   6.166   1.268   5.383 -0.2941 -0.3688 -0.8652
  187DOPC  H10X23081   6.248   1.340   5.372  0.1886 -0.9336 -0.9961
  187DOPC  C31123082   6.057   1.308   5.482 -0.0580 -0.2694 -0.1122
  187DOPC  H11X23083   5.952   1.293   5.448 -0.1571 -1.3101  0.6290
  187DOPC  H11Y23084   6.062   1.419   5.480  3.3106 -0.3124 -0.2560
  187DOPC  C31223085   6.086   1.249   5.623 -0.0864 -0.1473  0.2992
  187DOPC  H12X23086   6.184   1.287   5.657 -0.5074 -0.8368  2.3931
  187DOPC  H12Y23087   6.092   1.138   5.624 -1.7501 -0.2777 -0.1839
  187DOPC  C31323088   5.983   1.289   5.718  0.0677  0.2504 -0.4042
  187DOPC  H13X23089   5.992   1.398   5.733  4.8985 -0.3070  3.9120
  187DOPC  H13Y23090   5.887   1.280   5.664  0.2797 -1.3374 -0.5735
  187DOPC  C31423091   5.978   1.209   5.849 -1.0567 -0.8663 -0.6919
  187DOPC  H14X23092   5.925   1.111   5.841  0.3473 -1.7334  0.1520
  187DOPC  H14Y23093   6.079   1.182   5.887 -0.9066 -0.0788 -0.5066
  187DOPC  C31523094   5.913   1.295   5.958 -0.0883 -0.2127  0.2230
  187DOPC  H15X23095   5.816   1.335   5.921 -0.5242 -1.5316 -0.1199
  187DOPC  H15Y23096   5.984   1.374   5.992 -1.1637  1.8176 -1.9308
  187DOPC  C31623097   5.875   1.222   6.096  0.1282 -0.1872 -0.3665
  187DOPC  H16X23098   5.816   1.134   6.061  0.2500  0.4249 -2.2792
  187DOPC  H16Y23099   5.963   1.195   6.157  0.2819  3.0607  1.0466
  187DOPC  C31723100   5.765   1.295   6.181  0.3597  0.1597 -0.1042
  187DOPC  H17X23101   5.811   1.392   6.207 -0.6565  0.2769  1.3712
  187DOPC  H17Y23102   5.678   1.314   6.115  0.1102 -1.1136 -0.1719
  187DOPC  C31823103   5.730   1.211   6.305  0.1331  0.0358 -0.0070
  187DOPC  H18X23104   5.651   1.265   6.362 -1.4349  0.6345 -2.5875
  187DOPC  H18Y23105   5.684   1.115   6.276 -2.7467  1.0412  0.8638
  187DOPC  H18Z23106   5.819   1.202   6.371 -0.6420  1.6459  1.3286
  188DOPC     N23107   2.063   0.455   3.564  0.0125  0.0478 -0.0295
  188DOPC   C1223108   2.012   0.422   3.709 -0.0423 -0.4088  0.1491
  188DOPC  H12A23109   1.914   0.465   3.725  0.8649  1.3580  1.1461
  188DOPC  H12B23110   2.058   0.485   3.783  3.0795 -0.3987 -1.6402
  188DOPC   C1323111   2.019   0.594   3.532 -0.6736  0.8384 -0.5611
  188DOPC  H13A23112   2.052   0.661   3.609 -0.0650  0.4938 -0.5116
  188DOPC  H13B23113   2.080   0.634   3.452  2.4439  0.3485  1.4053
  188DOPC  H13C23114   1.913   0.587   3.512 -0.1950 -0.9974 -3.0729
  188DOPC   C1423115   1.996   0.363   3.459 -0.3241 -0.1654 -0.6883
  188DOPC  H14A23116   2.032   0.382   3.359  1.1408 -2.2551 -0.6308
  188DOPC  H14B23117   2.009   0.257   3.474 -2.5825 -0.2111  1.7546
  188DOPC  H14C23118   1.889   0.359   3.474 -0.0230 -2.0706  1.6608
  188DOPC   C1523119   2.209   0.440   3.554  0.7341  0.1656  0.4516
  188DOPC  H15A23120   2.243   0.453   3.453  0.8794  1.2030  0.6245
  188DOPC  H15B23121   2.241   0.338   3.573 -0.8256 -0.2809  0.8337
  188DOPC  H15C23122   2.277   0.507   3.604  0.2519  2.4718 -1.8091
  188DOPC   C1123123   2.033   0.286   3.778  0.2813 -0.0002  0.5025
  188DOPC  H11A23124   1.971   0.284   3.870  3.0311 -0.2939  2.4733
  188DOPC  H11B23125   1.999   0.208   3.707 -2.3319 -0.2127  1.8771
  188DOPC     P23126   2.223   0.130   3.877 -0.2476 -0.1416 -0.0628
  188DOPC   O1323127   2.355   0.150   3.942 -0.4571  0.4026  0.2360
  188DOPC   O1423128   2.202   0.026   3.773  0.7152 -0.2541  0.2074
  188DOPC   O1223129   2.169   0.268   3.816  0.2476 -0.7814  0.2231
  188DOPC   O1123130   2.116   0.103   3.990  0.2223  0.6561  0.5242
  188DOPC    C123131   2.079   0.203   4.085  0.3973 -0.0214 -0.0221
  188DOPC    HA23132   1.968   0.201   4.085  0.3501  1.3617 -0.3674
  188DOPC    HB23133   2.116   0.306   4.063  0.3040  0.2615  1.0921
  188DOPC    C223134   2.116   0.162   4.233 -0.2912  0.5018  0.0517
  188DOPC    HS23135   2.226   0.143   4.232 -0.5392 -1.3331  1.5801
  188DOPC   O2123136   2.045   0.037   4.263  0.2147  0.0622 -0.1964
  188DOPC   C2123137   2.107  -0.037   4.353  0.2523  0.5558  0.2297
  188DOPC   O2223138   2.222  -0.026   4.392  0.4061  0.3025  0.2242
  188DOPC   C2223139   2.011  -0.149   4.405  0.2116  0.1339  0.0474
  188DOPC   H2R23140   2.045  -0.248   4.369 -1.0544  0.0935 -1.1438
  188DOPC   H2S23141   1.910  -0.125   4.364  1.0144  2.3698 -0.7674
  188DOPC    C323142   2.071   0.266   4.343 -0.2604  0.3652 -0.2999
  188DOPC    HX23143   1.961   0.262   4.328 -0.1638 -0.4259 -0.8422
  188DOPC    HY23144   2.091   0.373   4.320 -1.3690  0.7344  0.3671
  188DOPC   O3123145   2.101   0.227   4.479  0.1726 -0.2559  0.6135
  188DOPC   C3123146   2.213   0.268   4.536 -0.1598 -0.2052  0.9416
  188DOPC   O3223147   2.297   0.344   4.492  0.0308  0.4245 -0.0253
  188DOPC   C3223148   2.217   0.217   4.687  0.6225 -0.1274  0.8827
  188DOPC   H2X23149   2.109   0.210   4.710  0.5888 -0.1952  0.7078
  188DOPC   H2Y23150   2.269   0.119   4.678 -2.2088 -1.6269 -0.2788
  188DOPC   C2323151   2.013  -0.164   4.557 -0.4656  0.4741 -0.1173
  188DOPC   H3R23152   2.120  -0.169   4.588 -0.3219 -2.7409 -0.8412
  188DOPC   H3S23153   1.966  -0.255   4.599  0.6714  1.2009  2.9967
  188DOPC   C2423154   1.945  -0.043   4.630  0.1222 -0.5342  0.6071
  188DOPC   H4R23155   1.839  -0.046   4.595 -0.0619  1.1550  0.9162
  188DOPC   H4S23156   1.998   0.041   4.579  1.3030 -0.0216  2.5593
  188DOPC   C2523157   1.961  -0.041   4.784 -0.4779  0.0113  0.3921
  188DOPC   H5R23158   1.920   0.054   4.823 -0.8256  1.1113 -2.4263
  188DOPC   H5S23159   2.070  -0.045   4.806 -0.9152 -2.6451  2.6214
  188DOPC   C2623160   1.902  -0.162   4.854  0.2348 -0.6602  0.1011
  188DOPC   H6R23161   1.941  -0.261   4.820 -0.4586 -0.5687 -1.0040
  188DOPC   H6S23162   1.791  -0.164   4.854  0.2262 -2.6140  0.8107
  188DOPC   C2723163   1.950  -0.166   5.004 -0.2430 -0.2780 -0.5487
  188DOPC   H7R23164   2.058  -0.192   5.006 -0.3930 -1.1855 -2.3017
  188DOPC   H7S23165   1.901  -0.254   5.051  1.2826 -1.2594 -0.7040
  188DOPC   C2823166   1.917  -0.038   5.085  0.5141  0.0236  0.2028
  188DOPC   H8R23167   1.945   0.058   5.036 -2.7377  0.5603 -0.8176
  188DOPC   H8S23168   1.992  -0.044   5.167 -0.5945  0.0808  1.2438
  188DOPC   C2923169   1.777  -0.025   5.137  0.3603 -0.5065 -1.1154
  188DOPC   H9R23170   1.699   0.020   5.074 -1.1377  0.2358  1.1471
  188DOPC  C21023171   1.735  -0.075   5.259 -0.0337 -0.1323  0.0191
  188DOPC  H10R23172   1.629  -0.061   5.283 -0.3167 -0.7918 -0.7819
  188DOPC  C21123173   1.820  -0.141   5.366 -0.2749  0.2699  0.4810
  188DOPC  H11R23174   1.925  -0.105   5.359 -0.2079 -0.2471 -2.9640
  188DOPC  H11S23175   1.820  -0.251   5.353 -3.0379  0.1859  0.6401
  188DOPC  C21223176   1.766  -0.112   5.513 -0.2080  0.1621 -0.3484
  188DOPC  H12R23177   1.822  -0.187   5.573 -1.0289  0.6824  1.1308
  188DOPC  H12S23178   1.659  -0.142   5.517 -0.2001  0.0787  3.5726
  188DOPC  C21323179   1.776   0.028   5.559  0.1480 -0.3134  0.4695
  188DOPC  H13R23180   1.733   0.090   5.477  0.4770 -3.2509 -2.0807
  188DOPC  H13S23181   1.886   0.045   5.563  0.3420 -1.5004  0.5410
  188DOPC  C21423182   1.707   0.057   5.692 -0.6477 -0.6309  0.1033
  188DOPC  H14R23183   1.708  -0.031   5.761 -1.8980 -0.5107  0.2997
  188DOPC  H14S23184   1.598   0.075   5.677 -0.0530  2.2751 -1.5145
  188DOPC  C21523185   1.757   0.181   5.761 -0.2567 -0.8771 -0.6739
  188DOPC  H15R23186   1.734   0.258   5.685  1.1696 -0.6689 -0.9345
  188DOPC  H15S23187   1.868   0.184   5.768 -0.3217 -0.9309  0.6665
  188DOPC  C21623188   1.694   0.199   5.896  0.4062  0.4679  0.2888
  188DOPC  H16R23189   1.719   0.104   5.947  0.2800 -0.6699 -1.6802
  188DOPC  H16S23190   1.583   0.208   5.893  0.3471 -0.3257  0.0986
  188DOPC  C21723191   1.747   0.322   5.979 -0.3553  0.0144  0.6648
  188DOPC  H17R23192   1.733   0.420   5.928 -0.7151 -0.5585 -0.3742
  188DOPC  H17S23193   1.854   0.299   5.995 -1.0094 -2.5074  1.9873
  188DOPC  C21823194   1.686   0.323   6.119  0.5560  0.1250  0.5616
  188DOPC  H18R23195   1.745   0.389   6.187 -0.4193 -0.3556  1.8894
  188DOPC  H18S23196   1.692   0.218   6.153 -0.3857 -0.0599  0.1632
  188DOPC  H18T23197   1.579   0.350   6.119 -0.0181 -1.9542 -0.8311
  188DOPC   C3323198   2.282   0.313   4.779 -0.0700  0.1954 -0.0661
  188DOPC   H3X23199   2.247   0.419   4.784 -0.6206 -0.0514  2.2803
  188DOPC   H3Y23200   2.391   0.304   4.756 -0.1138 -0.6939  0.0556
  188DOPC   C3423201   2.273   0.261   4.923 -0.3879  0.1024  0.6161
  188DOPC   H4X23202   2.305   0.155   4.935 -0.6302  0.0582  0.8916
  188DOPC   H4Y23203   2.166   0.262   4.951 -0.8763 -0.4451 -1.1083
  188DOPC   C3523204   2.348   0.341   5.028 -0.3730  0.0908  0.1112
  188DOPC   H5X23205   2.357   0.446   4.994  0.1555 -0.4194 -1.3933
  188DOPC   H5Y23206   2.450   0.298   5.041  0.5215  2.2593  0.8147
  188DOPC   C3623207   2.289   0.351   5.173  0.0163  0.1753  1.0027
  188DOPC   H6X23208   2.349   0.420   5.236  0.5914  0.7886 -0.1742
  188DOPC   H6Y23209   2.187   0.390   5.155  0.0673  0.6438  1.7073
  188DOPC   C3723210   2.283   0.218   5.251  0.2765 -0.5407  0.7752
  188DOPC   H7X23211   2.257   0.135   5.182  0.8212 -0.1821  0.1241
  188DOPC   H7Y23212   2.384   0.199   5.294  0.7780  0.1028 -0.0858
  188DOPC   C3823213   2.187   0.224   5.371 -0.0604  0.0338 -0.2045
  188DOPC   H8X23214   2.181   0.126   5.423 -3.0706 -0.5431 -1.4010
  188DOPC   H8Y23215   2.084   0.251   5.337 -0.7968 -0.1995  1.7032
  188DOPC   C3923216   2.227   0.335   5.466  0.0426 -0.6323 -0.1252
  188DOPC   H9X23217   2.222   0.435   5.422 -2.7743 -0.0363  1.2850
  188DOPC  C31023218   2.272   0.313   5.593  0.2340  0.4794 -0.8309
  188DOPC  H10X23219   2.312   0.393   5.657  2.5385 -1.7396  0.6628
  188DOPC  C31123220   2.283   0.184   5.669 -0.3153  0.4019  0.3660
  188DOPC  H11X23221   2.388   0.169   5.703 -0.4473  0.4430  0.8036
  188DOPC  H11Y23222   2.284   0.105   5.591  2.4134  0.0441  0.6818
  188DOPC  C31223223   2.172   0.136   5.761  0.2743  0.0898 -0.0222
  188DOPC  H12X23224   2.178   0.028   5.785 -3.6133  0.0496  1.3798
  188DOPC  H12Y23225   2.078   0.140   5.702 -0.6068 -0.4416  1.2961
  188DOPC  C31323226   2.152   0.218   5.892 -0.3779  0.8341 -0.2755
  188DOPC  H13X23227   2.147   0.321   5.850 -0.3022  0.9411 -0.0207
  188DOPC  H13Y23228   2.059   0.183   5.942  1.1570 -1.1904  1.3502
  188DOPC  C31423229   2.271   0.214   5.987  0.7848 -0.9128 -0.4540
  188DOPC  H14X23230   2.272   0.111   6.030  1.2036 -2.3672 -3.6988
  188DOPC  H14Y23231   2.363   0.234   5.928  0.0995 -0.4198 -1.3796
  188DOPC  C31523232   2.281   0.318   6.100  0.1998  0.3165 -0.4835
  188DOPC  H15X23233   2.357   0.285   6.174 -1.8558  0.3680  1.7824
  188DOPC  H15Y23234   2.187   0.326   6.159 -0.2644 -0.1991 -1.1450
  188DOPC  C31623235   2.324   0.459   6.057 -0.2043  0.0300  0.3117
  188DOPC  H16X23236   2.426   0.454   6.015 -0.0266  1.5288  0.5277
  188DOPC  H16Y23237   2.264   0.495   5.971  1.4739  1.3274 -0.3622
  188DOPC  C31723238   2.317   0.560   6.169  0.1734  0.4368 -0.6881
  188DOPC  H17X23239   2.216   0.556   6.215  0.5649  0.2330  0.1734
  188DOPC  H17Y23240   2.383   0.538   6.256 -0.0892  0.9770 -0.3445
  188DOPC  C31823241   2.340   0.705   6.118  0.0319 -0.3650 -0.1243
  188DOPC  H18X23242   2.316   0.778   6.199 -0.2085  2.0390 -2.2476
  188DOPC  H18Y23243   2.447   0.727   6.099 -0.2910  2.3700  0.7065
  188DOPC  H18Z23244   2.278   0.738   6.032  0.3337  0.6698  0.0370
  189DOPC     N23245   2.696   0.599   4.070  0.5826  0.7547  0.5216
  189DOPC   C1223246   2.748   0.464   4.022 -0.1781 -0.1604 -0.4868
  189DOPC  H12A23247   2.673   0.399   4.063 -0.8344  0.4866 -0.6267
  189DOPC  H12B23248   2.835   0.437   4.079 -1.8185 -0.1433  2.1816
  189DOPC   C1323249   2.577   0.642   3.985 -0.0316 -0.4188  0.2957
  189DOPC  H13A23250   2.597   0.686   3.888 -1.5420 -0.4775 -0.0570
  189DOPC  H13B23251   2.515   0.560   3.954  0.0653 -0.2402 -0.3966
  189DOPC  H13C23252   2.515   0.715   4.034  1.1079 -0.6165  2.1064
  189DOPC   C1423253   2.795   0.707   4.063 -0.3215  0.0328 -0.1844
  189DOPC  H14A23254   2.739   0.799   4.054 -1.2778 -0.2812  1.8634
  189DOPC  H14B23255   2.856   0.708   4.152 -0.3716  2.2368 -0.1107
  189DOPC  H14C23256   2.852   0.678   3.976  0.7097  0.3415  0.3703
  189DOPC   C1523257   2.658   0.592   4.213 -0.1970  0.4574 -0.4791
  189DOPC  H15A23258   2.581   0.517   4.217 -1.7916  2.0043 -0.8475
  189DOPC  H15B23259   2.622   0.690   4.241  0.7376  0.3595  1.2346
  189DOPC  H15C23260   2.746   0.578   4.274 -0.0247  3.3846  0.1174
  189DOPC   C1123261   2.802   0.450   3.876  0.1536  0.5231  0.1778
  189DOPC  H11A23262   2.828   0.346   3.849 -0.7540  0.6806 -1.4068
  189DOPC  H11B23263   2.720   0.478   3.807 -0.8108  1.4102  1.6301
  189DOPC     P23264   3.042   0.488   3.909  0.1397 -0.2583 -0.4462
  189DOPC   O1323265   3.143   0.594   3.922 -0.6303 -0.5816 -0.8504
  189DOPC   O1423266   3.080   0.376   3.819  0.2249 -0.4372 -0.0512
  189DOPC   O1223267   2.904   0.552   3.866 -0.0626  0.0335  0.4664
  189DOPC   O1123268   3.017   0.428   4.051  0.2030  0.0352 -0.0780
  189DOPC    C123269   3.047   0.293   4.080 -0.6702 -0.0046  0.2777
  189DOPC    HA23270   3.154   0.274   4.059 -0.9263  0.2537 -1.3946
  189DOPC    HB23271   2.987   0.225   4.017 -0.3979 -1.9971  2.0478
  189DOPC    C223272   3.038   0.261   4.234  0.0833  0.2752 -0.0605
  189DOPC    HS23273   2.930   0.263   4.260  0.2358  0.9785  0.5340
  189DOPC   O2123274   3.121   0.357   4.303  0.4547 -0.0968  0.3150
  189DOPC   C2123275   3.054   0.421   4.400  0.8030 -0.1068  0.1399
  189DOPC   O2223276   2.938   0.410   4.424  0.5038 -0.0253  0.0567
  189DOPC   C2223277   3.148   0.514   4.477  0.4444 -0.6394 -0.5616
  189DOPC   H2R23278   3.219   0.573   4.415  0.8486  1.3976  1.7282
  189DOPC   H2S23279   3.216   0.440   4.524  3.0570  2.8717  1.6541
  189DOPC    C323280   3.093   0.116   4.247 -0.2783  0.9293 -0.1021
  189DOPC    HX23281   3.194   0.119   4.200  0.3727 -2.0500  0.8224
  189DOPC    HY23282   3.032   0.044   4.188 -0.4128 -0.1004  1.2326
  189DOPC   O3123283   3.102   0.078   4.385 -0.3953  0.3284 -0.1953
  189DOPC   C3123284   3.177  -0.029   4.405 -0.0661  0.5043  0.1216
  189DOPC   O3223285   3.245  -0.086   4.320 -0.5946 -0.1689 -0.1948
  189DOPC   C3223286   3.164  -0.081   4.551  0.1298 -0.0111 -0.1009
  189DOPC   H2X23287   3.101  -0.172   4.540 -0.4936  0.6268 -2.3270
  189DOPC   H2Y23288   3.264  -0.113   4.588 -0.1942 -0.2166  0.6093
  189DOPC   C2323289   3.071   0.584   4.590 -0.1401  0.7473 -0.4577
  189DOPC   H3R23290   3.018   0.509   4.653 -0.4489  1.7231  0.4634
  189DOPC   H3S23291   2.993   0.649   4.545 -1.7118 -1.7799 -1.6012
  189DOPC   C2423292   3.158   0.667   4.685 -0.4557  0.1213  0.1054
  189DOPC   H4R23293   3.216   0.744   4.630  0.1466 -1.0198 -0.9125
  189DOPC   H4S23294   3.236   0.600   4.728  0.6938  1.6037  0.3937
  189DOPC   C2523295   3.081   0.715   4.803  0.1511  0.6233 -0.0676
  189DOPC   H5R23296   3.041   0.634   4.867 -3.1546  2.9030  1.0197
  189DOPC   H5S23297   2.992   0.776   4.775 -0.4350 -0.1895  0.0189
  189DOPC   C2623298   3.168   0.803   4.900  0.2160  0.2161  0.3681
  189DOPC   H6R23299   3.184   0.902   4.853  2.0464  1.6194  3.6277
  189DOPC   H6S23300   3.266   0.752   4.902 -0.6156 -1.5105 -0.4636
  189DOPC   C2723301   3.125   0.813   5.042  0.5658 -0.3252 -0.4821
  189DOPC   H7R23302   3.104   0.717   5.094 -0.1046  0.8331  1.4780
  189DOPC   H7S23303   3.021   0.852   5.048  1.0554  0.8078  1.6370
  189DOPC   C2823304   3.211   0.902   5.136 -0.4223  0.1688 -0.0944
  189DOPC   H8R23305   3.143   0.947   5.211 -1.8361 -0.1294 -1.1736
  189DOPC   H8S23306   3.243   0.984   5.069  0.9849 -1.7279 -1.8734
  189DOPC   C2923307   3.339   0.840   5.201 -0.5216 -0.4419 -0.1323
  189DOPC   H9R23308   3.421   0.810   5.135 -0.1134 -2.2347  1.1308
  189DOPC  C21023309   3.352   0.816   5.332  0.4053 -0.4144 -0.2440
  189DOPC  H10R23310   3.440   0.755   5.358 -0.9611 -2.2260  0.3843
  189DOPC  C21123311   3.252   0.844   5.443  0.0494 -0.0203 -0.2726
  189DOPC  H11R23312   3.187   0.760   5.475 -0.3204  0.6605  0.7802
  189DOPC  H11S23313   3.190   0.930   5.410 -1.0424 -0.3233  0.9435
  189DOPC  C21223314   3.330   0.903   5.563  0.2948  0.1296  0.8395
  189DOPC  H12R23315   3.379   0.998   5.531  3.6743 -1.5921  0.3864
  189DOPC  H12S23316   3.421   0.843   5.587  0.8950  0.0708 -1.3869
  189DOPC  C21323317   3.228   0.940   5.677 -0.3357 -0.7653 -0.3784
  189DOPC  H13R23318   3.200   0.849   5.734  0.7567 -0.8731  0.0052
  189DOPC  H13S23319   3.135   0.991   5.642 -1.4299 -0.5409  2.5375
  189DOPC  C21423320   3.289   1.038   5.772 -0.0504 -0.3194  0.2017
  189DOPC  H14R23321   3.312   1.130   5.715  0.1056 -0.5868 -0.1741
  189DOPC  H14S23322   3.382   0.993   5.814  0.0250 -0.5163 -0.1659
  189DOPC  C21523323   3.201   1.077   5.899  0.1475 -1.0572 -0.2103
  189DOPC  H15R23324   3.098   1.113   5.880  0.3753 -0.3966 -0.2220
  189DOPC  H15S23325   3.265   1.152   5.951 -0.6966 -1.5134  1.5792
  189DOPC  C21623326   3.190   0.955   5.984 -0.3445  0.1050  0.2871
  189DOPC  H16R23327   3.277   0.888   5.966 -0.6826 -0.6979  1.4969
  189DOPC  H16S23328   3.101   0.906   5.939 -0.5065  2.7164 -2.5862
  189DOPC  C21723329   3.163   0.998   6.135  0.5784  0.3237  0.6401
  189DOPC  H17R23330   3.062   1.040   6.116  0.4028 -1.0063 -1.6412
  189DOPC  H17S23331   3.239   1.066   6.178 -0.4107  0.9372  1.4758
  189DOPC  C21823332   3.146   0.876   6.238 -0.3862  0.2986  0.5822
  189DOPC  H18R23333   3.124   0.911   6.340 -1.0935 -4.0067  2.1313
  189DOPC  H18S23334   3.243   0.824   6.252 -0.4123  0.0826  0.0024
  189DOPC  H18T23335   3.073   0.793   6.224 -1.2250  1.1155 -0.0175
  189DOPC   C3323336   3.095   0.014   4.655  0.1067  0.4223 -0.0415
  189DOPC   H3X23337   3.076  -0.057   4.738  0.4104  2.4758  1.8613
  189DOPC   H3Y23338   3.003   0.067   4.623 -0.2565 -0.2072 -0.0724
  189DOPC   C3423339   3.200   0.113   4.708 -0.0351 -0.3072 -0.8702
  189DOPC   H4X23340   3.229   0.188   4.631 -1.2120 -0.1286 -1.1629
  189DOPC   H4Y23341   3.286   0.051   4.739 -1.4898 -2.8458 -1.6059
  189DOPC   C3523342   3.148   0.195   4.826  0.3850 -0.0743 -0.5067
  189DOPC   H5X23343   3.108   0.130   4.907 -1.1778  2.1671  0.6288
  189DOPC   H5Y23344   3.062   0.253   4.786  0.2313 -0.9118 -1.4349
  189DOPC   C3623345   3.242   0.290   4.896 -0.4128 -0.4619 -0.3933
  189DOPC   H6X23346   3.322   0.231   4.944 -2.6891 -2.0644  1.7026
  189DOPC   H6Y23347   3.298   0.356   4.826 -0.6427 -1.0067 -1.1020
  189DOPC   C3723348   3.172   0.384   5.002  0.0575  0.4446  0.7820
  189DOPC   H7X23349   3.099   0.450   4.951 -0.8989  0.3453  1.9903
  189DOPC   H7Y23350   3.119   0.319   5.075 -3.4621  0.2370 -1.7090
  189DOPC   C3823351   3.270   0.485   5.074  0.6838 -0.5020 -0.4525
  189DOPC   H8X23352   3.194   0.539   5.135  0.3540  0.9625 -2.0621
  189DOPC   H8Y23353   3.316   0.555   5.001  1.2873  1.6799  1.8964
  189DOPC   C3923354   3.378   0.419   5.158 -0.0515 -0.2414  0.2220
  189DOPC   H9X23355   3.469   0.404   5.098 -0.2162  0.9110 -0.3397
  189DOPC  C31023356   3.372   0.379   5.287 -0.1594 -1.0135 -0.4419
  189DOPC  H10X23357   3.462   0.342   5.337 -0.3892 -0.6176  0.2806
  189DOPC  C31123358   3.251   0.407   5.373 -0.2476 -0.4067 -0.7542
  189DOPC  H11X23359   3.182   0.323   5.353 -2.9746  1.6489 -0.6581
  189DOPC  H11Y23360   3.196   0.500   5.345  0.8206  0.1140 -1.1816
  189DOPC  C31223361   3.276   0.413   5.524  0.5573 -0.3702 -0.2737
  189DOPC  H12X23362   3.342   0.499   5.549 -0.6993  0.2242  1.1887
  189DOPC  H12Y23363   3.328   0.322   5.561 -1.1006 -1.6635 -0.9540
  189DOPC  C31323364   3.140   0.433   5.604  0.0719 -0.6186  0.0667
  189DOPC  H13X23365   3.075   0.499   5.543  0.9865  1.5218  1.2706
  189DOPC  H13Y23366   3.088   0.336   5.616  1.3113 -1.1339  1.7478
  189DOPC  C31423367   3.151   0.520   5.731 -0.1482  0.2557  0.4313
  189DOPC  H14X23368   3.171   0.626   5.707 -0.8244  0.8809  2.3994
  189DOPC  H14Y23369   3.050   0.510   5.776 -0.9772  1.4407 -1.1220
  189DOPC  C31523370   3.257   0.460   5.824 -0.1811 -0.0092  0.7449
  189DOPC  H15X23371   3.354   0.478   5.774  0.2234 -1.9232  0.7504
  189DOPC  H15Y23372   3.250   0.350   5.841  1.9035 -0.0450  1.7974
  189DOPC  C31623373   3.255   0.533   5.961  0.2583 -0.1034  0.2554
  189DOPC  H16X23374   3.276   0.642   5.950  0.2903 -0.2309 -1.1039
  189DOPC  H16Y23375   3.157   0.510   6.007  0.3604 -0.5535  0.2513
  189DOPC  C31723376   3.358   0.479   6.057  0.1774 -0.1727 -0.7583
  189DOPC  H17X23377   3.369   0.369   6.068 -0.6676 -0.2799 -0.9155
  189DOPC  H17Y23378   3.457   0.510   6.018 -0.2231  1.4730 -0.5393
  189DOPC  C31823379   3.325   0.544   6.195 -0.0541 -0.3070  0.0517
  189DOPC  H18X23380   3.225   0.513   6.233  0.9078 -3.5215  0.2526
  189DOPC  H18Y23381   3.393   0.516   6.278 -0.1786 -1.2792 -0.1623
  189DOPC  H18Z23382   3.320   0.654   6.179  1.5363  0.0554  1.7922
  190DOPC     N23383   2.457   6.295   3.885  0.1612  0.9797  0.4157
  190DOPC   C1223384   2.487   6.413   3.975  0.0386  1.1864 -0.0090
  190DOPC  H12A23385   2.416   6.493   3.961 -0.0816  0.9911 -0.5191
  190DOPC  H12B23386   2.580   6.456   3.943  0.1702 -0.9623 -2.9259
  190DOPC   C1323387   2.552   6.180   3.917 -0.5294 -0.3048  0.2168
  190DOPC  H13A23388   2.653   6.203   3.885 -1.0531  0.5052 -0.9300
  190DOPC  H13B23389   2.558   6.160   4.023  1.1885 -2.9837 -0.2978
  190DOPC  H13C23390   2.527   6.088   3.867 -0.3210  0.5768 -1.5998
  190DOPC   C1423391   2.468   6.329   3.738 -0.3086 -0.2638 -0.1934
  190DOPC  H14A23392   2.429   6.247   3.680 -2.5587 -1.5723  2.9267
  190DOPC  H14B23393   2.421   6.424   3.717 -0.9791 -1.0472 -2.5040
  190DOPC  H14C23394   2.573   6.346   3.716 -0.0956 -1.5881 -0.2565
  190DOPC   C1523395   2.328   6.233   3.911  0.7765  0.4003  0.7199
  190DOPC  H15A23396   2.247   6.300   3.888 -0.5905 -0.7611  1.9571
  190DOPC  H15B23397   2.321   6.209   4.017  2.5912 -0.8983  0.5983
  190DOPC  H15C23398   2.318   6.140   3.857  2.0279  0.3207  0.5899
  190DOPC   C1123399   2.495   6.383   4.128 -0.1436 -0.2243 -0.2542
  190DOPC  H11A23400   2.566   6.301   4.154  0.6154  0.1710 -1.0204
  190DOPC  H11B23401   2.535   6.476   4.173  0.7912 -0.3480 -0.8034
  190DOPC     P23402   2.251   6.451   4.214 -0.4775  0.2047 -0.0757
  190DOPC   O1323403   2.118   6.396   4.190  0.3864 -0.1531 -0.2403
  190DOPC   O1423404   2.273   6.578   4.151 -0.4024  0.0778  0.1033
  190DOPC   O1223405   2.366   6.350   4.174  0.2929 -0.0566 -0.4208
  190DOPC   O1123406   2.279   6.466   4.377 -0.1952  0.7035  0.1866
  190DOPC    C123407   2.271   6.339   4.444 -0.0350 -0.7180 -0.0219
  190DOPC    HA23408   2.357   6.270   4.429  0.9338 -0.0110  1.9659
  190DOPC    HB23409   2.181   6.285   4.406 -0.0125 -0.0728 -1.0177
  190DOPC    C223410   2.240   6.355   4.594  0.3813  0.8844 -0.4676
  190DOPC    HS23411   2.144   6.411   4.595 -0.0968  0.0782  0.1914
  190DOPC   O2123412   2.350   6.419   4.665 -0.4260  0.1259 -0.2832
  190DOPC   C2123413   2.300   6.498   4.759  0.8201  0.2935  0.0338
  190DOPC   O2223414   2.189   6.486   4.806 -0.0268  0.2642  0.4453
  190DOPC   C2223415   2.426   6.578   4.811  0.3241  0.5123  0.0974
  190DOPC   H2R23416   2.453   6.643   4.725  0.1113  0.5822  0.0818
  190DOPC   H2S23417   2.510   6.508   4.830 -1.0249 -1.5398 -1.0772
  190DOPC    C323418   2.212   6.208   4.658  0.2170 -0.2435 -0.6254
  190DOPC    HX23419   2.316   6.169   4.657  0.1187 -0.5050 -1.5359
  190DOPC    HY23420   2.143   6.145   4.599 -1.9427  0.9785  0.4649
  190DOPC   O3123421   2.163   6.204   4.794  0.1206  0.0804 -0.1493
  190DOPC   C3123422   2.038   6.243   4.811 -0.4185 -0.0839  0.0601
  190DOPC   O3223423   1.956   6.261   4.721 -0.2362  0.7352  0.2003
  190DOPC   C3223424   2.012   6.263   4.963 -0.1264 -0.6349  0.4514
  190DOPC   H2X23425   2.087   6.330   5.011  0.3112  0.0555 -1.1257
  190DOPC   H2Y23426   1.916   6.316   4.978  0.1530 -0.5743  2.2683
  190DOPC   C2323427   2.383   6.656   4.937  0.1389  0.4525  0.2482
  190DOPC   H3R23428   2.295   6.722   4.921 -0.2186  0.9048  3.5037
  190DOPC   H3S23429   2.474   6.716   4.959  1.5728 -1.8001  0.8333
  190DOPC   C2423430   2.373   6.564   5.060  0.7541  0.6605 -0.0374
  190DOPC   H4R23431   2.444   6.478   5.061 -0.7724 -0.6590  1.2011
  190DOPC   H4S23432   2.266   6.534   5.055  1.2839 -1.2396 -0.8687
  190DOPC   C2523433   2.381   6.646   5.191 -1.0073 -0.2118 -0.1866
  190DOPC   H5R23434   2.324   6.739   5.174  0.3079  0.5128 -0.7399
  190DOPC   H5S23435   2.491   6.658   5.203 -1.0458 -1.7684  2.8790
  190DOPC   C2623436   2.327   6.568   5.313 -0.3088  0.1594  0.3553
  190DOPC   H6R23437   2.381   6.472   5.298  0.8080  0.8067  0.1057
  190DOPC   H6S23438   2.217   6.557   5.299 -0.2424 -3.0141  1.5337
  190DOPC   C2723439   2.341   6.642   5.449  0.8550  0.1943 -0.4468
  190DOPC   H7R23440   2.274   6.586   5.518  0.9653  0.0382 -0.4647
  190DOPC   H7S23441   2.307   6.746   5.437  0.2246  0.1593  0.8497
  190DOPC   C2823442   2.488   6.645   5.495  0.1580  0.1417 -0.4600
  190DOPC   H8R23443   2.493   6.721   5.575  0.8810  0.5235 -0.8512
  190DOPC   H8S23444   2.554   6.673   5.409 -0.7822 -0.1186 -1.2792
  190DOPC   C2923445   2.544   6.518   5.543  0.2667  0.3251 -0.0154
  190DOPC   H9R23446   2.558   6.440   5.467 -1.6969 -1.8926  1.7278
  190DOPC  C21023447   2.593   6.494   5.667  0.0119 -0.2036  0.1687
  190DOPC  H10R23448   2.627   6.390   5.683  2.9067  0.7808  1.1315
  190DOPC  C21123449   2.599   6.579   5.793 -0.7341 -1.0737 -0.6096
  190DOPC  H11R23450   2.636   6.682   5.775 -4.0598  0.6133  1.1076
  190DOPC  H11S23451   2.662   6.529   5.870 -1.8880 -2.4526 -0.5156
  190DOPC  C21223452   2.458   6.581   5.849  0.0997  0.3741 -0.2090
  190DOPC  H12R23453   2.425   6.478   5.874  2.3355 -0.7688 -1.5641
  190DOPC  H12S23454   2.380   6.610   5.774 -1.3421  0.6579  1.3460
  190DOPC  C21323455   2.432   6.681   5.960 -0.2019 -0.6236 -0.3268
  190DOPC  H13R23456   2.325   6.682   5.989  0.0110 -1.4126  0.5293
  190DOPC  H13S23457   2.453   6.780   5.915 -0.3554 -1.2753 -1.8941
  190DOPC  C21423458   2.523   6.651   6.082  0.4038 -0.2596  1.3857
  190DOPC  H14R23459   2.533   6.747   6.137 -0.3040  1.0220 -0.6259
  190DOPC  H14S23460   2.626   6.618   6.057  0.2121 -0.1221  0.4023
  190DOPC  C21523461   2.479   6.526   6.161  0.7421  0.4876  0.5170
  190DOPC  H15R23462   2.472   6.437   6.095 -0.6077  0.2566  0.9391
  190DOPC  H15S23463   2.373   6.535   6.195  0.7143 -1.3200  0.9989
  190DOPC  C21623464   2.565   6.488   6.283 -0.0155  0.1980  0.5446
  190DOPC  H16R23465   2.502   6.438   6.360 -1.0239  0.5104 -0.0659
  190DOPC  H16S23466   2.595   6.584   6.329  0.5551  1.1359 -1.6557
  190DOPC  C21723467   2.678   6.398   6.229 -0.1540 -0.6255 -0.8966
  190DOPC  H17R23468   2.729   6.454   6.147 -0.7938  0.9812 -0.2471
  190DOPC  H17S23469   2.630   6.309   6.183  0.2283 -1.3754  0.1263
  190DOPC  C21823470   2.789   6.368   6.327  0.1646 -0.0606 -0.1220
  190DOPC  H18R23471   2.828   6.464   6.367  0.3810  0.3579 -1.2841
  190DOPC  H18S23472   2.875   6.320   6.274  0.9643  0.0908  1.0043
  190DOPC  H18T23473   2.753   6.299   6.406  0.7087 -1.7710 -1.2926
  190DOPC   C3323474   2.007   6.137   5.041  0.3715 -0.2634 -0.2468
  190DOPC   H3X23475   2.111   6.100   5.041  1.4927  2.6241 -1.2112
  190DOPC   H3Y23476   1.943   6.061   4.991 -0.5552  0.5038 -0.2642
  190DOPC   C3423477   1.956   6.159   5.186 -0.2448 -0.2628  0.1947
  190DOPC   H4X23478   1.959   6.061   5.238  2.2721 -0.4806 -0.2480
  190DOPC   H4Y23479   1.848   6.181   5.168 -0.2487  1.5824  2.1614
  190DOPC   C3523480   2.017   6.278   5.260 -0.4850  0.1653  0.0089
  190DOPC   H5X23481   1.970   6.375   5.231 -1.1349  0.6592  2.5159
  190DOPC   H5Y23482   2.128   6.292   5.258 -0.4964  0.2278 -0.2572
  190DOPC   C3623483   1.991   6.263   5.413  0.2333  0.3838  0.3317
  190DOPC   H6X23484   1.881   6.265   5.424  0.1667 -2.2227  0.7795
  190DOPC   H6Y23485   2.033   6.166   5.448  2.1960  0.9130 -0.4076
  190DOPC   C3723486   2.061   6.372   5.493  0.4622 -0.0952  0.7201
  190DOPC   H7X23487   2.168   6.385   5.465 -0.2327  1.8609 -1.2815
  190DOPC   H7Y23488   2.015   6.466   5.457  2.5420  0.1409 -1.5535
  190DOPC   C3823489   2.046   6.359   5.648 -0.4551 -0.2788 -1.0442
  190DOPC   H8X23490   2.080   6.456   5.689  0.4890 -0.8020 -0.5575
  190DOPC   H8Y23491   2.124   6.287   5.682  0.7932  1.7198  0.5169
  190DOPC   C3923492   1.898   6.328   5.688 -0.4273 -0.2698  1.1164
  190DOPC   H9X23493   1.862   6.239   5.634  0.0080 -0.1141  0.5604
  190DOPC  C31023494   1.828   6.394   5.786 -0.6028  0.4593 -0.0669
  190DOPC  H10X23495   1.720   6.378   5.797 -0.8417  1.9708 -0.1177
  190DOPC  C31123496   1.871   6.508   5.876  0.2309 -0.3184 -0.2282
  190DOPC  H11X23497   1.810   6.599   5.859 -0.6705 -1.2360 -2.2569
  190DOPC  H11Y23498   1.978   6.527   5.852  0.1888  0.4280  0.1472
  190DOPC  C31223499   1.873   6.482   6.031 -0.1633 -0.0145  0.1383
  190DOPC  H12X23500   1.892   6.578   6.084 -1.7962 -0.2824  1.2824
  190DOPC  H12Y23501   1.967   6.427   6.056 -0.3479  0.2314  1.4304
  190DOPC  C31323502   1.759   6.406   6.089 -0.3088  0.5284 -0.5491
  190DOPC  H13X23503   1.661   6.452   6.067  0.6478  2.9150 -0.1498
  190DOPC  H13Y23504   1.758   6.305   6.043  1.7285 -0.1983  0.8633
  190DOPC  C31423505   1.775   6.398   6.241  0.6380  0.1833 -0.3163
  190DOPC  H14X23506   1.885   6.387   6.256  0.9664  0.7461 -2.1099
  190DOPC  H14Y23507   1.757   6.499   6.285  0.1167 -1.3703  3.4209
  190DOPC  C31523508   1.702   6.279   6.309  0.2691 -0.1280  0.1444
  190DOPC  H15X23509   1.734   6.271   6.415  2.6555 -0.9823 -0.5799
  190DOPC  H15Y23510   1.728   6.179   6.269 -0.4133 -0.8272  1.3938
  190DOPC  C31623511   1.550   6.307   6.304 -0.0668  1.4017 -0.4650
  190DOPC  H16X23512   1.534   6.391   6.375 -1.6227 -0.5967  1.7203
  190DOPC  H16Y23513   1.525   6.343   6.202  0.7831 -1.2051 -1.6750
  190DOPC  C31723514   1.462   6.179   6.330 -0.0114  0.0618 -0.0965
  190DOPC  H17X23515   1.513   6.092   6.283  1.8497  0.9986  0.1174
  190DOPC  H17Y23516   1.464   6.164   6.440  0.0730 -0.3709 -0.1523
  190DOPC  C31823517   1.316   6.196   6.284  0.4044 -0.2878 -0.1638
  190DOPC  H18X23518   1.259   6.102   6.301  0.5683 -0.2705  0.4710
  190DOPC  H18Y23519   1.258   6.272   6.340  2.9999  0.9979  0.9192
  190DOPC  H18Z23520   1.313   6.214   6.174 -1.3444  1.1444  0.0649
  191DOPC     N23521   3.854   6.577   3.063 -0.2562 -0.2068 -0.4982
  191DOPC   C1223522   3.943   6.532   3.184 -0.4694  0.0322 -0.3453
  191DOPC  H12A23523   4.041   6.577   3.187 -1.2266  1.6859  0.9888
  191DOPC  H12B23524   3.958   6.426   3.174 -1.4238  0.0055 -1.7697
  191DOPC   C1323525   3.728   6.492   3.070  0.0792 -0.7402 -0.5810
  191DOPC  H13A23526   3.674   6.527   3.157 -0.2054 -2.7928  0.1197
  191DOPC  H13B23527   3.659   6.509   2.989 -1.2706  2.3044  1.0426
  191DOPC  H13C23528   3.747   6.386   3.078 -1.8154 -1.0274  0.6886
  191DOPC   C1423529   3.925   6.550   2.933  0.0752  0.1364  0.3800
  191DOPC  H14A23530   3.970   6.452   2.927  3.3931  1.4732  0.8306
  191DOPC  H14B23531   3.866   6.547   2.843 -0.1645 -0.2232  0.5502
  191DOPC  H14C23532   4.004   6.623   2.920  2.3406 -2.4434 -1.6518
  191DOPC   C1523533   3.817   6.726   3.065 -0.1394 -0.6786 -0.3211
  191DOPC  H15A23534   3.773   6.741   3.162 -2.2646 -4.0531 -0.5978
  191DOPC  H15B23535   3.743   6.750   2.991 -2.0641 -0.6180  1.5371
  191DOPC  H15C23536   3.909   6.783   3.060  1.4194 -2.3624  4.0584
  191DOPC   C1123537   3.889   6.547   3.327 -0.0279  0.2789 -0.8666
  191DOPC  H11A23538   3.799   6.487   3.351  0.0422  0.5718  0.1815
  191DOPC  H11B23539   3.966   6.504   3.394 -0.2106  0.4205 -0.5607
  191DOPC     P23540   3.761   6.743   3.444 -0.0721  0.1870 -0.2475
  191DOPC   O1323541   3.646   6.660   3.404 -0.1456  0.3613 -0.1944
  191DOPC   O1423542   3.745   6.891   3.437  0.6717  0.2542  0.2701
  191DOPC   O1223543   3.874   6.692   3.345 -0.2699 -0.3183  0.4159
  191DOPC   O1123544   3.806   6.698   3.591 -0.1363  0.7929  0.0436
  191DOPC    C123545   3.945   6.713   3.624 -0.2052  0.1952  0.0285
  191DOPC    HA23546   3.976   6.818   3.603 -0.8663  0.8410  2.0729
  191DOPC    HB23547   4.011   6.637   3.576  0.0645  0.6776 -0.3735
  191DOPC    C223548   3.979   6.695   3.779 -0.4940  0.6371 -0.6251
  191DOPC    HS23549   3.955   6.589   3.803 -1.4948  1.0280  0.1861
  191DOPC   O2123550   3.887   6.779   3.861  0.1511 -0.0887  0.6751
  191DOPC   C2123551   3.775   6.725   3.900 -0.3823  0.5009 -0.1146
  191DOPC   O2223552   3.730   6.620   3.868 -0.4193 -0.5645  0.1681
  191DOPC   C2223553   3.705   6.819   4.000 -0.2794  1.0635 -0.1393
  191DOPC   H2R23554   3.614   6.863   3.954 -0.0091 -0.1362 -1.9397
  191DOPC   H2S23555   3.773   6.904   4.022  0.7499 -0.0544  1.1641
  191DOPC    C323556   4.130   6.709   3.814 -0.0782 -0.3499  0.2889
  191DOPC    HX23557   4.176   6.793   3.757 -0.3879  0.8918  1.7903
  191DOPC    HY23558   4.183   6.620   3.774  0.4084  0.9435 -2.1492
  191DOPC   O3123559   4.166   6.747   3.954  0.0670 -0.0459  0.0302
  191DOPC   C3123560   4.162   6.655   4.042 -0.6104 -0.2019 -0.7735
  191DOPC   O3223561   4.134   6.539   4.021  0.1429  0.2702  0.1093
  191DOPC   C3223562   4.196   6.719   4.179 -0.3662 -0.3537 -0.1398
  191DOPC   H2X23563   4.301   6.755   4.187 -1.1555  1.7266  3.3855
  191DOPC   H2Y23564   4.142   6.815   4.190 -0.1841 -0.3778  1.1320
  191DOPC   C2323565   3.669   6.736   4.122 -0.4150  0.3037 -0.2647
  191DOPC   H3R23566   3.623   6.637   4.103 -1.2963  0.7778 -0.6628
  191DOPC   H3S23567   3.591   6.792   4.178  1.5359 -0.3737  3.4387
  191DOPC   C2423568   3.793   6.725   4.203 -0.5232 -0.7664 -0.2293
  191DOPC   H4R23569   3.824   6.826   4.237  2.6615 -1.1720 -1.5170
  191DOPC   H4S23570   3.882   6.676   4.159  1.7325  0.9149  2.1289
  191DOPC   C2523571   3.767   6.658   4.336 -0.0298 -0.1564 -0.1386
  191DOPC   H5R23572   3.863   6.628   4.384  0.0250 -0.8646 -0.6591
  191DOPC   H5S23573   3.715   6.564   4.307 -0.5116 -0.5370  1.8251
  191DOPC   C2623574   3.672   6.732   4.426 -0.0069  0.0922 -0.2404
  191DOPC   H6R23575   3.569   6.739   4.385  0.2375 -3.4376 -1.8280
  191DOPC   H6S23576   3.705   6.834   4.454 -0.1206 -0.3096  1.4981
  191DOPC   C2723577   3.666   6.659   4.568 -0.2793 -0.1367  0.3855
  191DOPC   H7R23578   3.650   6.550   4.554 -2.6479  0.2856 -0.9162
  191DOPC   H7S23579   3.569   6.698   4.607 -0.5403  1.0712 -1.3579
  191DOPC   C2823580   3.779   6.704   4.665  0.5512  0.9446  0.5651
  191DOPC   H8R23581   3.782   6.814   4.673  2.1043  1.2817 -2.6936
  191DOPC   H8S23582   3.873   6.673   4.614  0.7297  0.5840  1.1046
  191DOPC   C2923583   3.756   6.626   4.794 -0.3936  0.3106  1.0325
  191DOPC   H9R23584   3.683   6.544   4.789  1.1232 -0.9974 -2.1695
  191DOPC  C21023585   3.796   6.673   4.914  0.0936  0.1504  0.8648
  191DOPC  H10R23586   3.776   6.614   5.005  0.0488  1.9864  2.0963
  191DOPC  C21123587   3.892   6.793   4.938 -0.3490 -0.5212  0.0066
  191DOPC  H11R23588   3.946   6.827   4.847  3.2150 -0.1124  2.0758
  191DOPC  H11S23589   3.967   6.752   5.008  0.3201  0.2774 -0.2237
  191DOPC  C21223590   3.831   6.915   5.008 -0.1593  0.7401 -0.4487
  191DOPC  H12R23591   3.747   6.953   4.946  0.2492 -0.4704 -1.7771
  191DOPC  H12S23592   3.905   6.997   5.022 -2.2916  2.7387 -0.2100
  191DOPC  C21323593   3.779   6.876   5.146  0.0547 -0.2989 -0.1903
  191DOPC  H13R23594   3.859   6.838   5.213  0.3081  0.9365  0.2289
  191DOPC  H13S23595   3.698   6.802   5.129 -0.4413 -0.0433  0.9483
  191DOPC  C21423596   3.712   6.991   5.220  0.5450 -0.2354  0.7036
  191DOPC  H14R23597   3.617   7.019   5.169  1.8062  4.1004  0.3551
  191DOPC  H14S23598   3.775   7.080   5.197 -2.3052  2.2285  1.7753
  191DOPC  C21523599   3.707   6.967   5.373  0.6191 -0.3173 -0.2785
  191DOPC  H15R23600   3.677   6.864   5.401 -1.4490  0.3726  0.1778
  191DOPC  H15S23601   3.632   7.042   5.405  0.7324  0.2442 -1.2984
  191DOPC  C21623602   3.847   6.997   5.433  0.3005  0.0581 -0.0851
  191DOPC  H16R23603   3.869   7.102   5.405 -0.3441  0.2570  0.1553
  191DOPC  H16S23604   3.925   6.927   5.395  0.7333 -0.7628  2.1713
  191DOPC  C21723605   3.863   6.988   5.590 -0.2492 -0.4808 -0.3130
  191DOPC  H17R23606   3.770   7.034   5.628  0.2768 -0.2282  0.6963
  191DOPC  H17S23607   3.956   7.046   5.608 -1.3503  1.9849 -1.9945
  191DOPC  C21823608   3.875   6.840   5.635  0.3155  0.8564  0.1980
  191DOPC  H18R23609   3.773   6.803   5.612 -0.5416  3.1164  0.1310
  191DOPC  H18S23610   3.893   6.844   5.745  2.6996 -1.0443 -0.0570
  191DOPC  H18T23611   3.952   6.777   5.587  0.6909  2.2825 -1.1687
  191DOPC   C3323612   4.184   6.636   4.309  0.2567 -0.6197  0.0045
  191DOPC   H3X23613   4.209   6.530   4.285 -0.0832 -1.2608  2.2950
  191DOPC   H3Y23614   4.075   6.634   4.333  0.0738  0.9151 -0.6125
  191DOPC   C3423615   4.266   6.686   4.426 -1.0158 -0.7250  0.9810
  191DOPC   H4X23616   4.289   6.795   4.428  0.8494 -1.0168 -1.3300
  191DOPC   H4Y23617   4.365   6.635   4.428 -0.4341  0.3885  1.6802
  191DOPC   C3523618   4.209   6.656   4.564  0.6732 -0.2204 -0.6719
  191DOPC   H5X23619   4.183   6.548   4.575 -1.0470  0.1255 -0.9696
  191DOPC   H5Y23620   4.108   6.703   4.570  0.8887  0.5839 -2.6032
  191DOPC   C3623621   4.296   6.702   4.681  0.4767  0.0601  0.4433
  191DOPC   H6X23622   4.397   6.659   4.665  0.3786 -0.1637  0.4244
  191DOPC   H6Y23623   4.312   6.811   4.692 -0.9260  0.3608 -0.3413
  191DOPC   C3723624   4.256   6.638   4.818 -0.7304 -0.4678 -0.1259
  191DOPC   H7X23625   4.171   6.688   4.870  1.1408 -0.0422  2.6974
  191DOPC   H7Y23626   4.228   6.532   4.798  2.1526 -1.3241 -0.0755
  191DOPC   C3823627   4.374   6.640   4.919  0.3075  0.3735 -0.1401
  191DOPC   H8X23628   4.418   6.742   4.919  4.3144 -1.1647 -0.5364
  191DOPC   H8Y23629   4.461   6.576   4.892  0.1211  1.3959 -3.5629
  191DOPC   C3923630   4.331   6.617   5.060  0.5423 -0.4972 -0.2932
  191DOPC   H9X23631   4.325   6.514   5.098  2.7900  0.3295  2.6747
  191DOPC  C31023632   4.294   6.713   5.151  0.1033  0.2199  0.1480
  191DOPC  H10X23633   4.263   6.689   5.254 -2.6260  0.6286 -0.4792
  191DOPC  C31123634   4.292   6.859   5.113 -0.3548  0.9855  0.1775
  191DOPC  H11X23635   4.216   6.877   5.034 -0.3361 -0.4186 -0.1785
  191DOPC  H11Y23636   4.389   6.888   5.066  0.7369  0.7319  2.1456
  191DOPC  C31223637   4.276   6.938   5.240 -0.0509 -0.1086 -0.1961
  191DOPC  H12X23638   4.370   6.936   5.299 -0.2161  0.6550  0.1055
  191DOPC  H12Y23639   4.194   6.890   5.297 -1.0483 -1.5155 -2.6320
  191DOPC  C31323640   4.253   7.088   5.223 -0.1431 -0.2233  0.2636
  191DOPC  H13X23641   4.340   7.136   5.172 -0.7570 -0.0024 -0.5975
  191DOPC  H13Y23642   4.170   7.102   5.151 -0.2448  3.4065  0.8863
  191DOPC  C31423643   4.214   7.161   5.352  0.8774  0.3084  0.4130
  191DOPC  H14X23644   4.137   7.097   5.399  0.9626 -0.5951 -0.6493
  191DOPC  H14Y23645   4.295   7.165   5.429 -0.7252 -1.4652  2.3057
  191DOPC  C31523646   4.153   7.302   5.342  0.0947 -0.0305 -0.3720
  191DOPC  H15X23647   4.051   7.290   5.299  0.2087 -1.2950 -0.3343
  191DOPC  H15Y23648   4.214   7.363   5.273 -5.0230  2.3221 -3.4086
  191DOPC  C31623649   4.151   7.357   5.487 -0.1798  0.1602 -0.1161
  191DOPC  H16X23650   4.079   7.298   5.547 -1.5865  2.9256  1.1155
  191DOPC  H16Y23651   4.250   7.356   5.537  0.4336  1.2433 -1.2303
  191DOPC  C31723652   4.094   7.500   5.494  0.3794  0.2911  0.3868
  191DOPC  H17X23653   4.150   7.564   5.422 -3.0511  0.9112 -1.9979
  191DOPC  H17Y23654   3.998   7.496   5.438 -0.0864  0.5085  1.1453
  191DOPC  C31823655   4.079   7.549   5.633 -0.0646 -0.6940 -0.4315
  191DOPC  H18X23656   4.175   7.568   5.685 -0.2848  0.3583 -0.3949
  191DOPC  H18Y23657   4.016   7.641   5.638  1.8635  0.7007 -0.6685
  191DOPC  H18Z23658   4.040   7.467   5.696 -0.1269 -0.3579 -0.0295
  192DOPC     N23659   0.460   4.602   3.298 -0.2148  0.2706  0.1868
  192DOPC   C1223660   0.412   4.750   3.319  0.4448 -0.1475 -0.5996
  192DOPC  H12A23661   0.304   4.755   3.309  0.1843 -0.7545  1.4391
  192DOPC  H12B23662   0.450   4.805   3.234  2.2542 -1.3377 -0.6206
  192DOPC   C1323663   0.604   4.576   3.329 -0.6657  0.4328 -0.7725
  192DOPC  H13A23664   0.620   4.586   3.435  0.5906  0.6729 -0.9727
  192DOPC  H13B23665   0.631   4.473   3.310  0.4277  1.1373 -3.4789
  192DOPC  H13C23666   0.672   4.637   3.273  0.6056 -0.1816  0.0609
  192DOPC   C1423667   0.440   4.559   3.157 -0.3555 -0.1472  0.0498
  192DOPC  H14A23668   0.498   4.625   3.094 -1.0512 -1.6545 -2.3296
  192DOPC  H14B23669   0.467   4.457   3.134 -0.4177 -0.0009 -0.7087
  192DOPC  H14C23670   0.337   4.554   3.126 -0.6030  1.3421  0.5617
  192DOPC   C1523671   0.383   4.509   3.381  0.7798  0.1106  0.4044
  192DOPC  H15A23672   0.403   4.405   3.360  1.8569  0.5288 -0.7585
  192DOPC  H15B23673   0.279   4.521   3.357  1.0157  0.8090 -0.2941
  192DOPC  H15C23674   0.401   4.523   3.487  0.0393  1.8425  0.3301
  192DOPC   C1123675   0.464   4.818   3.455  0.5164 -0.1262  0.6446
  192DOPC  H11A23676   0.575   4.813   3.454  0.5632  0.7565  0.2287
  192DOPC  H11B23677   0.429   4.923   3.450  1.6819  0.2581  0.0790
  192DOPC     P23678   0.267   4.771   3.618 -0.0267  0.0668  0.1931
  192DOPC   O1323679   0.200   4.639   3.612  0.1576  0.3062  0.5590
  192DOPC   O1423680   0.201   4.877   3.534 -0.3297 -0.4330  0.1099
  192DOPC   O1223681   0.417   4.757   3.575 -0.3889  0.0939 -0.8677
  192DOPC   O1123682   0.272   4.825   3.768 -0.1935  0.0361 -0.4680
  192DOPC    C123683   0.241   4.737   3.877 -0.3243 -0.2476 -0.1331
  192DOPC    HA23684   0.286   4.773   3.972 -2.1356  1.1891  0.2301
  192DOPC    HB23685   0.276   4.633   3.858 -0.9894 -0.2284 -1.6451
  192DOPC    C223686   0.088   4.711   3.913  0.1495 -0.0114 -0.3937
  192DOPC    HS23687   0.033   4.687   3.819  1.4843  2.0540 -1.7786
  192DOPC   O2123688   0.042   4.832   3.978 -0.1488  0.5563  0.2317
  192DOPC   C2123689  -0.093   4.837   3.987 -0.2386 -0.8042  0.0175
  192DOPC   O2223690  -0.173   4.763   3.932 -0.6273 -0.3843 -0.5340
  192DOPC   C2223691  -0.120   4.924   4.104  0.8426  0.0498 -0.9396
  192DOPC   H2R23692  -0.098   5.028   4.071  3.1827 -0.2358 -0.4987
  192DOPC   H2S23693  -0.052   4.891   4.185 -0.9663 -0.3615  0.4603
  192DOPC    C323694   0.081   4.590   4.009 -0.0261  0.3278  0.5874
  192DOPC    HX23695   0.103   4.507   3.939 -1.5906 -0.2810  0.7832
  192DOPC    HY23696  -0.023   4.579   4.047 -1.0095 -1.2884 -2.3118
  192DOPC   O3123697   0.174   4.601   4.117 -0.7696 -0.5189  0.1027
  192DOPC   C3123698   0.185   4.483   4.182  0.4517  0.1941 -0.5769
  192DOPC   O3223699   0.119   4.381   4.162  0.3543  0.0831  0.7852
  192DOPC   C3223700   0.286   4.499   4.293 -0.5955 -0.3172 -0.3494
  192DOPC   H2X23701   0.281   4.406   4.354  0.6185 -0.6442 -0.7377
  192DOPC   H2Y23702   0.387   4.513   4.251 -0.9878  0.4574 -1.0669
  192DOPC   C2323703  -0.264   4.913   4.161  0.1684 -0.2247  0.8816
  192DOPC   H3R23704  -0.293   4.807   4.179 -0.4495  0.1663  2.3113
  192DOPC   H3S23705  -0.337   4.953   4.087  0.3627  0.7219  1.1859
  192DOPC   C2423706  -0.279   4.998   4.288 -0.7663 -0.1806  0.2409
  192DOPC   H4R23707  -0.388   5.022   4.291 -0.8849 -0.7244  0.5326
  192DOPC   H4S23708  -0.235   5.098   4.269  2.0767 -1.5507 -0.9620
  192DOPC   C2523709  -0.244   4.924   4.419  0.9340  0.0533 -0.4116
  192DOPC   H5R23710  -0.137   4.897   4.420  1.3517  1.6035 -0.8052
  192DOPC   H5S23711  -0.318   4.842   4.427 -0.8920  1.6408 -0.2981
  192DOPC   C2623712  -0.260   5.026   4.529 -0.0695 -0.0146  0.3722
  192DOPC   H6R23713  -0.367   5.056   4.531  0.8997  4.2650 -1.1455
  192DOPC   H6S23714  -0.195   5.116   4.522 -0.8681  0.5762  0.4048
  192DOPC   C2723715  -0.227   4.962   4.662 -0.3059  0.1898 -0.1178
  192DOPC   H7R23716  -0.118   4.943   4.663 -0.6738 -2.3129  0.4149
  192DOPC   H7S23717  -0.271   4.860   4.671  0.0172 -0.0295 -0.9468
  192DOPC   C2823718  -0.271   5.045   4.782  0.3021  0.2574 -0.1824
  192DOPC   H8R23719  -0.378   5.073   4.793  0.4319  0.0608  1.9014
  192DOPC   H8S23720  -0.215   5.141   4.777 -0.6328  0.8313  0.1219
  192DOPC   C2923721  -0.228   4.977   4.908 -0.2561 -0.1122  0.1876
  192DOPC   H9R23722  -0.130   4.929   4.919  0.1383  0.2125 -1.5744
  192DOPC  C21023723  -0.298   4.981   5.024  0.3003  0.1210  0.0675
  192DOPC  H10R23724  -0.262   4.914   5.102  0.0412 -0.3750 -0.2345
  192DOPC  C21123725  -0.427   5.051   5.049 -0.4647  0.0800 -0.3621
  192DOPC  H11R23726  -0.507   4.975   5.040 -0.7015  0.3161 -0.2393
  192DOPC  H11S23727  -0.437   5.133   4.975  0.6805 -1.3205 -2.1553
  192DOPC  C21223728  -0.418   5.124   5.188  0.2631  0.4009 -0.0239
  192DOPC  H12R23729  -0.505   5.193   5.196  0.3646  0.5929 -0.5472
  192DOPC  H12S23730  -0.321   5.175   5.206  1.0518 -0.8197 -0.7469
  192DOPC  C21323731  -0.436   5.027   5.305 -0.3023 -0.0062 -0.0025
  192DOPC  H13R23732  -0.349   4.959   5.295  0.1101  0.6700 -1.2863
  192DOPC  H13S23733  -0.529   4.966   5.298  0.5097 -1.4982  1.6116
  192DOPC  C21423734  -0.444   5.091   5.442  0.2573 -0.2467 -0.8101
  192DOPC  H14R23735  -0.540   5.143   5.458  0.9347  0.2395  2.2261
  192DOPC  H14S23736  -0.358   5.161   5.455 -1.4300  2.1364 -1.6615
  192DOPC  C21523737  -0.426   5.000   5.563 -0.2417  0.1693  0.2098
  192DOPC  H15R23738  -0.338   4.933   5.556 -0.3014 -0.0290  1.2206
  192DOPC  H15S23739  -0.512   4.930   5.569  0.4585 -0.6030  1.9684
  192DOPC  C21623740  -0.399   5.073   5.703 -0.2558 -0.1368  0.1556
  192DOPC  H16R23741  -0.302   5.125   5.687 -0.9082  0.1237 -4.7984
  192DOPC  H16S23742  -0.387   4.998   5.783 -2.7969 -1.6363 -0.7308
  192DOPC  C21723743  -0.505   5.173   5.744  0.1129 -0.3994 -0.1041
  192DOPC  H17R23744  -0.588   5.118   5.794 -1.0957  1.2784 -0.1796
  192DOPC  H17S23745  -0.548   5.240   5.667 -0.5741  1.0242  1.4717
  192DOPC  C21823746  -0.455   5.275   5.849 -0.1753  0.2015 -0.7297
  192DOPC  H18R23747  -0.539   5.328   5.900 -0.0547  0.6306 -0.9735
  192DOPC  H18S23748  -0.377   5.344   5.810  1.1899 -1.2057 -0.5947
  192DOPC  H18T23749  -0.409   5.220   5.934 -0.3940 -0.0875 -0.7983
  192DOPC   C3323750   0.254   4.618   4.385 -0.5964  0.4032  0.0684
  192DOPC   H3X23751   0.247   4.710   4.322 -1.9880 -0.5210 -1.1869
  192DOPC   H3Y23752   0.339   4.628   4.456 -1.2908  1.0805  0.8280
  192DOPC   C3423753   0.125   4.590   4.458  0.2560 -0.3063 -0.0963
  192DOPC   H4X23754   0.128   4.490   4.506 -0.4836  0.4089  1.5429
  192DOPC   H4Y23755   0.034   4.584   4.394 -0.6837 -0.3876  1.2089
  192DOPC   C3523756   0.098   4.699   4.563  0.3074  0.2033  0.6162
  192DOPC   H5X23757   0.088   4.789   4.499  0.1879  0.1103  0.5037
  192DOPC   H5Y23758   0.187   4.720   4.626 -0.1093  1.2474  0.8668
  192DOPC   C3623759  -0.020   4.671   4.658  0.5750  0.2046  0.3917
  192DOPC   H6X23760  -0.027   4.755   4.730 -0.6192  2.3957 -2.1163
  192DOPC   H6Y23761  -0.117   4.674   4.605  1.1481 -0.4624 -0.7452
  192DOPC   C3723762   0.005   4.548   4.750 -0.6482  0.2528  0.4906
  192DOPC   H7X23763   0.062   4.471   4.693  0.1534 -0.4818  2.2052
  192DOPC   H7Y23764   0.073   4.576   4.833 -0.6946  1.5951  0.0930
  192DOPC   C3823765  -0.125   4.482   4.801  0.0552  0.1791 -0.4405
  192DOPC   H8X23766  -0.084   4.398   4.860  1.4561  0.7845 -0.4958
  192DOPC   H8Y23767  -0.188   4.448   4.717 -0.5923 -1.9440  0.8426
  192DOPC   C3923768  -0.209   4.574   4.884 -0.0463 -0.3731  0.2792
  192DOPC   H9X23769  -0.253   4.657   4.826  0.3661  0.5860  1.2953
  192DOPC  C31023770  -0.210   4.583   5.017  0.1432 -0.6804  0.0229
  192DOPC  H10X23771  -0.278   4.659   5.057 -1.6223 -0.6196 -2.8173
  192DOPC  C31123772  -0.125   4.516   5.119 -0.3923  0.0709 -0.0040
  192DOPC  H11X23773  -0.067   4.587   5.182 -0.4642  1.4119 -1.3747
  192DOPC  H11Y23774  -0.049   4.448   5.076  1.0237 -1.3786  4.2621
  192DOPC  C31223775  -0.196   4.418   5.215 -0.4009  0.4414 -0.2579
  192DOPC  H12X23776  -0.121   4.365   5.277 -3.0473 -1.7524  1.3079
  192DOPC  H12Y23777  -0.247   4.336   5.161  1.8631 -1.0465 -0.2842
  192DOPC  C31323778  -0.297   4.478   5.319 -0.3257  0.5914 -0.5903
  192DOPC  H13X23779  -0.282   4.584   5.348  2.2993 -0.5546  3.0062
  192DOPC  H13Y23780  -0.395   4.472   5.268 -0.8228 -4.4328  0.4308
  192DOPC  C31423781  -0.311   4.380   5.438  0.2437  0.0865 -0.4996
  192DOPC  H14X23782  -0.299   4.275   5.403 -0.3258 -0.3607  0.5753
  192DOPC  H14Y23783  -0.229   4.387   5.512  0.5807 -1.3458 -0.7006
  192DOPC  C31523784  -0.445   4.387   5.509  0.3505  0.5884 -0.3954
  192DOPC  H15X23785  -0.520   4.350   5.436  0.9889 -2.5795  0.4245
  192DOPC  H15Y23786  -0.456   4.496   5.527 -1.3966  0.5310 -0.8873
  192DOPC  C31623787  -0.458   4.300   5.638 -0.4677  0.2921 -0.1548
  192DOPC  H16X23788  -0.463   4.196   5.598  0.9288 -0.3672  1.2554
  192DOPC  H16Y23789  -0.372   4.313   5.707 -0.1327 -0.3648 -0.4388
  192DOPC  C31723790  -0.584   4.340   5.719 -0.7883 -0.0454  0.5582
  192DOPC  H17X23791  -0.577   4.449   5.738  0.3561 -0.5316  3.3715
  192DOPC  H17Y23792  -0.672   4.310   5.658 -0.3121 -3.0693  1.2085
  192DOPC  C31823793  -0.588   4.274   5.860  0.1541 -0.4691  0.8486
  192DOPC  H18X23794  -0.584   4.164   5.848  0.6720 -0.3536 -0.2393
  192DOPC  H18Y23795  -0.495   4.302   5.915  1.6343 -0.2948 -1.5523
  192DOPC  H18Z23796  -0.674   4.313   5.917  1.4941  3.3572  0.5598
  193DOPC     N23797   6.565   0.945   3.853 -0.2207 -0.8135  0.3497
  193DOPC   C1223798   6.695   1.029   3.860 -0.9035  0.5190 -0.0472
  193DOPC  H12A23799   6.764   0.989   3.787 -0.1398  3.6636 -1.2342
  193DOPC  H12B23800   6.740   1.006   3.956  0.9066  0.7338 -0.7989
  193DOPC   C1323801   6.487   0.975   3.973  0.1378 -0.1960  0.2442
  193DOPC  H13A23802   6.401   0.911   3.976 -1.7783  2.0630 -2.3771
  193DOPC  H13B23803   6.548   0.966   4.063 -0.8933 -2.0632  0.8138
  193DOPC  H13C23804   6.452   1.077   3.963  1.4042  0.2907  0.4935
  193DOPC   C1423805   6.592   0.800   3.845 -0.0268 -0.2934  0.2378
  193DOPC  H14A23806   6.639   0.768   3.937 -0.8544 -0.7650  0.5026
  193DOPC  H14B23807   6.498   0.748   3.840  0.6529 -1.5884  0.4422
  193DOPC  H14C23808   6.648   0.773   3.757  0.7310  3.1097 -0.4964
  193DOPC   C1523809   6.488   0.983   3.729 -0.0201  0.5895 -0.0494
  193DOPC  H15A23810   6.461   1.087   3.724 -0.3468  0.5109  0.0594
  193DOPC  H15B23811   6.405   0.914   3.722  0.6566 -0.4795  1.8186
  193DOPC  H15C23812   6.560   0.968   3.649 -0.7325  0.4751 -0.6822
  193DOPC   C1123813   6.700   1.177   3.852  0.1913 -0.0632 -0.4782
  193DOPC  H11A23814   6.803   1.218   3.857 -0.2785  1.2352 -1.0291
  193DOPC  H11B23815   6.666   1.218   3.754 -0.5089 -0.8956 -0.5986
  193DOPC     P23816   6.671   1.300   4.084 -0.6752 -0.4714  0.8649
  193DOPC   O1323817   6.555   1.356   4.158 -0.4975  0.2407  0.0673
  193DOPC   O1423818   6.770   1.403   4.037 -0.5495  0.3941 -0.5204
  193DOPC   O1223819   6.621   1.230   3.958  0.3580 -0.1080 -0.5102
  193DOPC   O1123820   6.739   1.180   4.165  0.1042  0.0833 -0.0760
  193DOPC    C123821   6.659   1.092   4.245 -0.6486 -0.0147  0.0938
  193DOPC    HA23822   6.694   0.989   4.225 -1.3143 -0.5289  1.4295
  193DOPC    HB23823   6.549   1.097   4.226 -1.1437 -1.0615  2.3334
  193DOPC    C223824   6.695   1.111   4.399 -0.3794 -0.0798 -0.3363
  193DOPC    HS23825   6.665   1.018   4.451  1.1217 -1.0059 -1.0410
  193DOPC   O2123826   6.628   1.220   4.456 -0.0422 -0.9358 -0.0086
  193DOPC   C2123827   6.495   1.199   4.478 -0.0840 -0.6502 -0.2280
  193DOPC   O2223828   6.447   1.085   4.473  0.0238 -0.0154 -0.2390
  193DOPC   C2223829   6.418   1.330   4.507 -0.4460  0.2130  0.0523
  193DOPC   H2R23830   6.332   1.333   4.438 -0.7682  0.9378  0.4792
  193DOPC   H2S23831   6.481   1.417   4.478  0.2332 -0.8618 -1.8682
  193DOPC    C323832   6.849   1.141   4.414  0.0272 -0.0950  0.3703
  193DOPC    HX23833   6.861   1.252   4.410 -1.0414 -0.0050 -0.8843
  193DOPC    HY23834   6.914   1.098   4.335 -0.4639  0.9089 -0.6086
  193DOPC   O3123835   6.892   1.075   4.538 -0.3058 -0.4220  0.9005
  193DOPC   C3123836   7.000   1.130   4.588  0.1368 -0.8404  0.1503
  193DOPC   O3223837   7.069   1.218   4.534 -0.1006  0.0766  0.2611
  193DOPC   C3223838   7.028   1.077   4.734  0.2180 -0.2593 -0.2534
  193DOPC   H2X23839   7.025   0.967   4.722 -2.3544 -0.6540  2.7221
  193DOPC   H2Y23840   7.130   1.112   4.762 -0.4664  0.4376  1.4971
  193DOPC   C2323841   6.355   1.336   4.645  0.1195  0.2728 -0.7234
  193DOPC   H3R23842   6.291   1.245   4.653 -0.3835  0.7842  2.7786
  193DOPC   H3S23843   6.290   1.423   4.665 -0.7581 -0.9444  2.2600
  193DOPC   C2423844   6.451   1.309   4.759 -0.3440 -0.2180  0.5836
  193DOPC   H4R23845   6.520   1.395   4.770 -0.8382 -0.0162  2.5336
  193DOPC   H4S23846   6.521   1.225   4.741 -0.4978 -0.5831  1.6120
  193DOPC   C2523847   6.391   1.303   4.899 -0.1222  0.0939 -0.7741
  193DOPC   H5R23848   6.332   1.212   4.923  0.5469 -0.2678 -0.4686
  193DOPC   H5S23849   6.330   1.394   4.919 -0.0321  0.6310 -2.7591
  193DOPC   C2623850   6.509   1.304   5.007 -0.3732  0.5799 -0.1046
  193DOPC   H6R23851   6.600   1.357   4.969 -0.0139 -0.4089 -0.6493
  193DOPC   H6S23852   6.547   1.203   5.031 -2.7182  0.0037  1.4347
  193DOPC   C2723853   6.466   1.378   5.134 -0.1418 -0.1985  0.4500
  193DOPC   H7R23854   6.370   1.333   5.169 -0.3085  0.9415  1.5246
  193DOPC   H7S23855   6.450   1.485   5.111  0.9961  0.2855  1.7760
  193DOPC   C2823856   6.581   1.363   5.235  0.2854 -0.5821 -0.5654
  193DOPC   H8R23857   6.671   1.390   5.177 -1.6340 -0.4241 -3.7148
  193DOPC   H8S23858   6.600   1.259   5.270  0.0042  0.0872  1.7216
  193DOPC   C2923859   6.562   1.451   5.354 -0.9247 -0.6285  0.3569
  193DOPC   H9R23860   6.569   1.555   5.319 -2.4585 -1.1776 -1.7923
  193DOPC  C21023861   6.512   1.419   5.476 -0.9417 -0.4841  0.3763
  193DOPC  H10R23862   6.482   1.499   5.546 -2.9209 -1.6654  0.9771
  193DOPC  C21123863   6.497   1.277   5.528  0.3543 -0.1866  0.3703
  193DOPC  H11R23864   6.522   1.206   5.446  1.4415 -2.0204  2.1759
  193DOPC  H11S23865   6.396   1.249   5.566  0.5037 -1.4506 -0.1083
  193DOPC  C21223866   6.608   1.254   5.638  0.3873 -0.1248 -0.4371
  193DOPC  H12R23867   6.703   1.307   5.617  0.1625 -0.0181 -1.2238
  193DOPC  H12S23868   6.621   1.145   5.657 -2.2676  0.1330  4.1488
  193DOPC  C21323869   6.559   1.299   5.777  0.0275 -0.0390 -0.3541
  193DOPC  H13R23870   6.459   1.265   5.812 -1.0327  2.4047 -0.7223
  193DOPC  H13S23871   6.548   1.408   5.759  3.1288  0.1584 -1.5831
  193DOPC  C21423872   6.662   1.280   5.889 -0.2478  0.2004  0.3728
  193DOPC  H14R23873   6.759   1.312   5.844 -0.5388 -0.6453 -0.9230
  193DOPC  H14S23874   6.668   1.173   5.921 -0.6984  0.2383  0.5818
  193DOPC  C21523875   6.641   1.368   6.018 -0.6173 -0.1643  0.3829
  193DOPC  H15R23876   6.548   1.340   6.073  0.0933  2.1292  3.0037
  193DOPC  H15S23877   6.622   1.473   5.990 -0.0278 -0.4834 -1.2911
  193DOPC  C21623878   6.745   1.339   6.130 -0.2063  0.4849  0.4906
  193DOPC  H16R23879   6.840   1.392   6.107  0.0370 -0.2468 -0.2336
  193DOPC  H16S23880   6.774   1.235   6.153  0.3477  0.4626 -0.2809
  193DOPC  C21723881   6.691   1.393   6.259  0.6719 -1.0632  0.4152
  193DOPC  H17R23882   6.596   1.338   6.277  0.3546 -0.1799  1.5097
  193DOPC  H17S23883   6.649   1.496   6.256 -0.6842 -1.4951  2.7624
  193DOPC  C21823884   6.767   1.377   6.394  0.0404 -0.6751  0.2480
  193DOPC  H18R23885   6.806   1.273   6.386 -0.3204 -0.7860 -0.0774
  193DOPC  H18S23886   6.712   1.384   6.490  0.7138  1.4923  0.5349
  193DOPC  H18T23887   6.852   1.449   6.397 -1.6129  1.4599 -1.2818
  193DOPC   C3323888   6.920   1.112   4.842  0.4349 -0.0718  0.6584
  193DOPC   H3X23889   6.820   1.067   4.825 -0.0788  1.4775 -0.6928
  193DOPC   H3Y23890   6.905   1.222   4.832 -0.7442 -0.3311 -0.8413
  193DOPC   C3423891   6.969   1.070   4.982  0.1756 -0.6121  0.3828
  193DOPC   H4X23892   7.061   1.129   5.001 -0.0625 -0.0931 -0.0398
  193DOPC   H4Y23893   6.990   0.961   4.988  1.1292 -0.6127 -1.9740
  193DOPC   C3523894   6.864   1.085   5.097 -0.5153  0.2807  0.2006
  193DOPC   H5X23895   6.770   1.034   5.068  0.2419 -0.1383 -1.6312
  193DOPC   H5Y23896   6.839   1.192   5.113 -2.5062 -0.1078 -0.1220
  193DOPC   C3623897   6.927   1.035   5.230  0.9923 -0.2640  0.5956
  193DOPC   H6X23898   6.936   0.926   5.207  1.7934  0.2229 -1.6972
  193DOPC   H6Y23899   7.029   1.076   5.242  0.6484  0.8247 -0.0845
  193DOPC   C3723900   6.838   1.041   5.353 -0.5187 -0.4628 -0.5271
  193DOPC   H7X23901   6.807   1.146   5.374  0.3971 -0.3381  0.2586
  193DOPC   H7Y23902   6.746   0.987   5.324 -3.1058  2.4912  1.4285
  193DOPC   C3823903   6.894   0.983   5.478  0.7342  0.8252  0.6041
  193DOPC   H8X23904   6.922   0.878   5.456  1.6312  0.7230  2.0953
  193DOPC   H8Y23905   6.817   0.987   5.559 -0.8589  0.6433 -0.8481
  193DOPC   C3923906   7.016   1.048   5.527  0.5488  0.8877  0.2688
  193DOPC   H9X23907   7.091   1.074   5.451  1.0996 -2.5135 -0.5129
  193DOPC  C31023908   7.046   1.072   5.658  0.1302  0.2846 -0.0216
  193DOPC  H10X23909   7.147   1.109   5.676 -0.7289  2.4457  0.7056
  193DOPC  C31123910   6.974   1.016   5.779 -0.3246  0.6427 -0.1515
  193DOPC  H11X23911   6.911   0.926   5.761 -1.8051  0.9228  2.9030
  193DOPC  H11Y23912   6.905   1.098   5.805  0.4893  0.7746  1.7425
  193DOPC  C31223913   7.059   0.992   5.903 -0.1414  0.3330  0.0367
  193DOPC  H12X23914   7.131   0.911   5.878 -0.8590  0.3246 -2.1898
  193DOPC  H12Y23915   6.999   0.947   5.985  2.0736  0.5556  1.8865
  193DOPC  C31323916   7.125   1.113   5.969 -0.3372 -0.1263 -0.3053
  193DOPC  H13X23917   7.202   1.154   5.900 -0.3762 -2.5888 -1.9068
  193DOPC  H13Y23918   7.046   1.192   5.975  0.7538  1.1919 -2.2022
  193DOPC  C31423919   7.169   1.087   6.115  0.9933  0.2737 -0.9761
  193DOPC  H14X23920   7.250   1.012   6.105 -1.0150 -1.9103 -1.6468
  193DOPC  H14Y23921   7.211   1.183   6.152  1.5017 -0.5341  0.6391
  193DOPC  C31523922   7.060   1.031   6.216  0.0797 -0.2383  0.5206
  193DOPC  H15X23923   7.043   0.923   6.196 -1.2985 -0.3055  1.9008
  193DOPC  H15Y23924   6.966   1.087   6.198  0.6742  0.2077 -1.4739
  193DOPC  C31623925   7.089   1.057   6.364 -0.1525 -0.3514 -0.4497
  193DOPC  H16X23926   7.197   1.033   6.378  0.4714  1.3141 -1.9758
  193DOPC  H16Y23927   7.073   1.167   6.373 -1.0355 -0.4840 -0.2755
  193DOPC  C31723928   6.996   0.993   6.465 -0.3410 -0.5636 -0.5509
  193DOPC  H17X23929   6.890   1.026   6.460 -0.1992  0.5783  2.3364
  193DOPC  H17Y23930   6.991   0.883   6.446  2.0167 -0.5067 -1.9505
  193DOPC  C31823931   7.052   1.020   6.611 -0.0743  0.1045 -0.4091
  193DOPC  H18X23932   7.074   1.127   6.631 -0.4168  0.2985 -1.0206
  193DOPC  H18Y23933   6.987   0.986   6.694 -1.2946 -0.4311 -1.5418
  193DOPC  H18Z23934   7.148   0.968   6.631  0.3912  1.3765  0.8277
  194DOPC     N23935   1.093   6.543   3.836 -0.4345 -0.0989  0.3038
  194DOPC   C1223936   1.056   6.482   3.969 -0.2906  0.4180  0.1902
  194DOPC  H12A23937   1.130   6.409   3.999 -1.4392 -0.6686  0.5050
  194DOPC  H12B23938   0.969   6.417   3.972  1.7577 -2.5314 -0.2019
  194DOPC   C1323939   0.997   6.653   3.804 -0.8470 -0.2562  0.3026
  194DOPC  H13A23940   1.020   6.696   3.708  0.1261  1.1859  1.1308
  194DOPC  H13B23941   0.896   6.615   3.801 -0.2133 -2.1852  1.7570
  194DOPC  H13C23942   1.001   6.726   3.884  0.6538  0.1144 -0.0824
  194DOPC   C1423943   1.090   6.444   3.720  0.3312 -0.6950 -0.2336
  194DOPC  H14A23944   0.989   6.406   3.723 -1.3027  3.0920 -1.1843
  194DOPC  H14B23945   1.099   6.493   3.624 -1.9716 -1.1841 -0.7762
  194DOPC  H14C23946   1.168   6.371   3.726  1.8965  0.8316 -1.1923
  194DOPC   C1523947   1.231   6.600   3.835  0.0992 -0.2236 -0.3081
  194DOPC  H15A23948   1.243   6.668   3.753 -0.9343  2.1817  1.4386
  194DOPC  H15B23949   1.303   6.520   3.829  1.0551  0.6926 -1.4000
  194DOPC  H15C23950   1.240   6.656   3.926 -1.3456 -0.6547  0.1353
  194DOPC   C1123951   1.049   6.568   4.098 -1.0629 -0.1703 -0.2580
  194DOPC  H11A23952   0.976   6.651   4.089  1.1988  1.9577 -0.1121
  194DOPC  H11B23953   1.014   6.509   4.186  0.2718  0.5590  0.8092
  194DOPC     P23954   1.295   6.557   4.183  0.0331  0.6784  0.1506
  194DOPC   O1323955   1.417   6.628   4.146  0.3796 -0.1886  0.0378
  194DOPC   O1423956   1.286   6.413   4.141 -0.1953  0.3931 -0.1081
  194DOPC   O1223957   1.173   6.635   4.127  0.4129 -0.5372 -0.1523
  194DOPC   O1123958   1.270   6.561   4.338  0.4791 -0.3143  0.5067
  194DOPC    C123959   1.272   6.683   4.402 -0.4295 -0.0662  0.6540
  194DOPC    HA23960   1.191   6.675   4.477 -0.2727 -3.1893  0.6123
  194DOPC    HB23961   1.261   6.771   4.335  0.4537  0.4528  1.1707
  194DOPC    C223962   1.405   6.698   4.486 -0.4476  0.5015  0.1906
  194DOPC    HS23963   1.486   6.675   4.414  0.0672  0.4230  0.7838
  194DOPC   O2123964   1.400   6.605   4.593 -0.0563  0.3447  0.2388
  194DOPC   C2123965   1.515   6.556   4.638 -0.6104  1.0725  0.0833
  194DOPC   O2223966   1.625   6.573   4.586  0.7165  0.0026  0.3859
  194DOPC   C2223967   1.491   6.462   4.749  0.1239  0.3308 -0.0621
  194DOPC   H2R23968   1.518   6.358   4.722 -2.5910 -0.7648  1.0966
  194DOPC   H2S23969   1.381   6.468   4.764 -0.1607  0.0525 -1.8769
  194DOPC    C323970   1.427   6.845   4.538 -0.6730  0.0870 -0.7371
  194DOPC    HX23971   1.410   6.899   4.443  1.8625  0.5309 -0.9985
  194DOPC    HY23972   1.533   6.855   4.570  0.2791 -0.7387 -3.4198
  194DOPC   O3123973   1.333   6.896   4.638 -0.2097 -0.1787 -0.0050
  194DOPC   C3123974   1.381   6.878   4.766 -0.2452 -0.1110  0.3230
  194DOPC   O3223975   1.489   6.841   4.805  0.3454 -0.6980  0.0668
  194DOPC   C3223976   1.265   6.914   4.857  0.0789 -0.2571 -0.0848
  194DOPC   H2X23977   1.250   7.024   4.849 -1.1449 -0.4645 -0.8334
  194DOPC   H2Y23978   1.181   6.847   4.831  0.2051 -1.1024  1.5425
  194DOPC   C2323979   1.576   6.499   4.876 -0.1650 -0.5529  0.4954
  194DOPC   H3R23980   1.553   6.605   4.901  0.1201  0.2841 -2.4196
  194DOPC   H3S23981   1.683   6.515   4.850 -0.1313 -0.8780  0.4405
  194DOPC   C2423982   1.554   6.401   4.993  0.5325 -0.6872 -0.2770
  194DOPC   H4R23983   1.579   6.296   4.966  1.0605 -0.5796 -0.2243
  194DOPC   H4S23984   1.445   6.409   5.012  0.5173  0.3068 -0.7382
  194DOPC   C2523985   1.629   6.442   5.119 -0.8331 -0.2649  0.8482
  194DOPC   H5R23986   1.636   6.553   5.111  1.2906 -0.4635 -0.9841
  194DOPC   H5S23987   1.734   6.409   5.103 -0.0251  2.3876  0.1810
  194DOPC   C2623988   1.588   6.401   5.263 -0.2810 -0.2270 -0.8746
  194DOPC   H6R23989   1.648   6.456   5.339 -3.1794  0.7465  0.8481
  194DOPC   H6S23990   1.600   6.291   5.261 -1.0434 -0.3580  0.5349
  194DOPC   C2723991   1.445   6.428   5.292  0.0042 -1.0121 -0.3871
  194DOPC   H7R23992   1.373   6.354   5.249 -2.9138  0.5602  1.4821
  194DOPC   H7S23993   1.420   6.531   5.258  2.2676 -0.8693 -1.8440
  194DOPC   C2823994   1.415   6.418   5.442  0.5455 -0.0052  0.3104
  194DOPC   H8R23995   1.314   6.460   5.459  0.0255 -0.5040 -1.3443
  194DOPC   H8S23996   1.496   6.476   5.490  0.5676  0.7525 -0.6011
  194DOPC   C2923997   1.416   6.276   5.489  0.6287  0.3477 -0.0119
  194DOPC   H9R23998   1.463   6.201   5.424  0.3933 -0.0941  0.3220
  194DOPC  C21023999   1.353   6.232   5.599  0.5723  0.4227 -0.8368
  194DOPC  H10R24000   1.357   6.125   5.625 -1.3374  1.1479  3.2715
  194DOPC  C21124001   1.280   6.317   5.703 -0.3320  0.4983  0.1673
  194DOPC  H11R24002   1.329   6.416   5.690  0.2547 -0.1917 -4.7747
  194DOPC  H11S24003   1.324   6.274   5.796  0.6443  1.2267  0.0522
  194DOPC  C21224004   1.133   6.336   5.699  0.2890  0.3576  0.2809
  194DOPC  H12R24005   1.075   6.242   5.696 -2.3241  1.8627  0.5242
  194DOPC  H12S24006   1.108   6.403   5.614 -0.2551  0.3971  0.4668
  194DOPC  C21324007   1.082   6.402   5.826  0.3420  0.7649  0.0085
  194DOPC  H13R24008   1.005   6.479   5.803  1.2291  0.9126 -2.8378
  194DOPC  H13S24009   1.167   6.454   5.875  2.1324 -2.0609  0.1224
  194DOPC  C21424010   1.037   6.291   5.925 -0.6138 -0.4746 -1.1348
  194DOPC  H14R24011   1.126   6.226   5.939 -0.0086  0.8000  1.5527
  194DOPC  H14S24012   0.955   6.231   5.882 -2.1060  0.0301  0.8798
  194DOPC  C21524013   0.994   6.355   6.054 -0.1431 -0.0766 -0.0289
  194DOPC  H15R24014   0.907   6.422   6.037  1.6454  1.9895 -1.7458
  194DOPC  H15S24015   1.073   6.425   6.089 -0.7488  0.0313  1.1408
  194DOPC  C21624016   0.976   6.261   6.171 -0.4041  0.2143 -0.1221
  194DOPC  H16R24017   0.975   6.306   6.273 -1.1524 -0.1100  0.0282
  194DOPC  H16S24018   1.067   6.198   6.160 -0.0056  0.6094  0.8011
  194DOPC  C21724019   0.849   6.174   6.169  1.0614  0.6064 -0.3764
  194DOPC  H17R24020   0.830   6.120   6.073 -0.1906 -0.9153  0.6698
  194DOPC  H17S24021   0.769   6.244   6.200 -1.3108 -2.0651 -0.0844
  194DOPC  C21824022   0.857   6.062   6.273 -0.2795  0.3511  0.1064
  194DOPC  H18R24023   0.770   5.995   6.292  0.8485 -0.7084  1.8851
  194DOPC  H18S24024   0.888   6.097   6.374 -0.9422 -1.9165  1.1794
  194DOPC  H18T24025   0.935   5.988   6.242  0.0718 -0.2935  2.3316
  194DOPC   C3324026   1.280   6.888   5.006  0.2748  0.4469  0.5831
  194DOPC   H3X24027   1.372   6.946   5.026 -0.2135  1.2043  0.6727
  194DOPC   H3Y24028   1.301   6.782   5.030  0.6966 -0.0817 -1.8109
  194DOPC   C3424029   1.162   6.928   5.098 -0.3671  0.2174  0.4239
  194DOPC   H4X24030   1.071   6.875   5.061  0.3187 -0.1293 -0.7954
  194DOPC   H4Y24031   1.140   7.037   5.103 -3.1144 -0.2230 -0.1663
  194DOPC   C3524032   1.203   6.889   5.240  0.3305 -0.1240  0.7518
  194DOPC   H5X24033   1.268   6.964   5.289 -0.4144  0.5045  0.8059
  194DOPC   H5Y24034   1.254   6.791   5.232 -0.2884 -0.4424  0.6348
  194DOPC   C3624035   1.086   6.859   5.339  0.6562  0.3580  0.4660
  194DOPC   H6X24036   1.025   6.951   5.348  0.1326  0.4516 -2.7978
  194DOPC   H6Y24037   1.020   6.785   5.288  1.8886  0.1725 -0.9050
  194DOPC   C3724038   1.129   6.818   5.479  0.2665  0.1344  0.2227
  194DOPC   H7X24039   1.201   6.733   5.473  0.1820  0.0203  0.7486
  194DOPC   H7Y24040   1.166   6.910   5.528 -2.3304  0.6062  1.4715
  194DOPC   C3824041   1.010   6.782   5.565  1.0047 -0.2053  0.3339
  194DOPC   H8X24042   0.957   6.698   5.515  2.3506 -2.2205  2.0908
  194DOPC   H8Y24043   0.942   6.870   5.561 -0.7985 -1.5802 -1.3884
  194DOPC   C3924044   1.049   6.735   5.702  0.0327 -0.5037 -1.1394
  194DOPC   H9X24045   1.121   6.652   5.694  2.3007  1.3183 -0.7996
  194DOPC  C31024046   1.018   6.794   5.819  0.4629  0.0532  0.0745
  194DOPC  H10X24047   1.042   6.737   5.910  0.8074 -0.2322 -0.1925
  194DOPC  C31124048   0.922   6.910   5.846 -0.4634 -0.2520  0.6196
  194DOPC  H11X24049   0.867   6.936   5.753 -1.7456  0.7418  1.6188
  194DOPC  H11Y24050   0.975   7.003   5.875 -1.7279  0.2285  1.4875
  194DOPC  C31224051   0.815   6.886   5.959 -0.8349  0.2226 -0.2969
  194DOPC  H12X24052   0.761   6.790   5.945  0.8844 -0.7201 -0.7998
  194DOPC  H12Y24053   0.735   6.962   5.947 -0.3615  0.6422 -0.8659
  194DOPC  C31324054   0.881   6.903   6.099  0.4346 -0.0892  0.1630
  194DOPC  H13X24055   0.960   6.827   6.119  0.4888  0.2970  1.4583
  194DOPC  H13Y24056   0.935   7.000   6.095  1.4200 -0.6570 -1.7575
  194DOPC  C31424057   0.787   6.918   6.222  0.1313 -0.1201  0.2614
  194DOPC  H14X24058   0.720   7.005   6.205  0.8714  0.0109 -2.4879
  194DOPC  H14Y24059   0.720   6.830   6.226 -1.8453  1.3645  2.5767
  194DOPC  C31524060   0.855   6.953   6.362  0.2838 -0.0472  0.3840
  194DOPC  H15X24061   0.949   6.898   6.385  0.1963 -0.9976 -1.3792
  194DOPC  H15Y24062   0.783   6.920   6.440  0.6863 -0.9042  0.4057
  194DOPC  C31624063   0.873   7.104   6.382  0.2326  1.0436 -0.2475
  194DOPC  H16X24064   0.941   7.146   6.304  0.8092 -1.5623 -1.2276
  194DOPC  H16Y24065   0.778   7.157   6.362 -0.0348  0.0794 -1.6710
  194DOPC  C31724066   0.926   7.134   6.520 -0.3555  0.1136 -0.9482
  194DOPC  H17X24067   0.850   7.096   6.592  0.4708 -1.6538 -0.9542
  194DOPC  H17Y24068   1.021   7.083   6.544  0.4682  2.1426  0.3491
  194DOPC  C31824069   0.944   7.284   6.536 -0.0463 -0.0590  0.3757
  194DOPC  H18X24070   1.002   7.302   6.629  0.7857 -2.9892  0.5403
  194DOPC  H18Y24071   1.004   7.325   6.451 -0.2915 -0.4466  0.0085
  194DOPC  H18Z24072   0.848   7.333   6.510  0.2931 -0.2183 -1.3168
  195DOPC     N24073   4.570   0.245   3.424  0.7690  0.8749  0.0988
  195DOPC   C1224074   4.479   0.260   3.544 -0.0751 -0.4382  0.0479
  195DOPC  H12A24075   4.399   0.188   3.541 -0.7669  0.3520 -2.2417
  195DOPC  H12B24076   4.434   0.358   3.541  0.6682  0.0636  2.7177
  195DOPC   C1324077   4.693   0.327   3.460  0.0596  0.0067  0.3965
  195DOPC  H13A24078   4.755   0.334   3.372 -0.7722  3.0842 -0.0679
  195DOPC  H13B24079   4.676   0.431   3.487 -1.7172  0.3353 -1.6972
  195DOPC  H13C24080   4.746   0.276   3.539  0.8234  1.7895  1.0863
  195DOPC   C1424081   4.504   0.283   3.290 -0.4642  1.1285  0.5038
  195DOPC  H14A24082   4.467   0.385   3.286  1.0768  1.6744 -1.5255
  195DOPC  H14B24083   4.577   0.288   3.211 -1.0381  1.4052 -0.0254
  195DOPC  H14C24084   4.430   0.213   3.255 -0.7260  1.4003  0.5026
  195DOPC   C1524085   4.605   0.101   3.400  0.1791 -0.3342  0.0214
  195DOPC  H15A24086   4.690   0.104   3.333  1.3799 -0.1581  1.5004
  195DOPC  H15B24087   4.524   0.044   3.356 -1.9497  2.9679 -0.7392
  195DOPC  H15C24088   4.611   0.050   3.495  0.0333 -1.3436 -0.5004
  195DOPC   C1124089   4.548   0.242   3.684  0.2683 -0.0582 -0.8058
  195DOPC  H11A24090   4.617   0.326   3.706  2.8052 -1.9225 -1.2030
  195DOPC  H11B24091   4.473   0.248   3.766  0.3345 -1.8766 -0.5722
  195DOPC     P24092   4.564  -0.015   3.771  0.0709 -0.3185  0.4644
  195DOPC   O1324093   4.666  -0.116   3.740  0.1620  0.2914 -0.0698
  195DOPC   O1424094   4.428  -0.041   3.721  0.1748  0.4227 -0.5719
  195DOPC   O1224095   4.616   0.113   3.705 -0.4341 -0.1887  0.1132
  195DOPC   O1124096   4.570   0.026   3.921  0.3582  0.5095 -0.1770
  195DOPC    C124097   4.499  -0.061   4.017 -0.7063 -0.6948 -0.7243
  195DOPC    HA24098   4.401  -0.094   3.977 -1.7000 -2.1332  2.5592
  195DOPC    HB24099   4.475  -0.004   4.109 -2.1815 -3.2663  0.5956
  195DOPC    C224100   4.578  -0.187   4.056 -0.3140  0.2176 -0.2785
  195DOPC    HS24101   4.638  -0.214   3.966  0.3839 -0.4335  0.3666
  195DOPC   O2124102   4.486  -0.295   4.080  0.6789  0.5642  1.1550
  195DOPC   C2124103   4.535  -0.408   4.118 -0.8996  0.0339 -0.5081
  195DOPC   O2224104   4.653  -0.441   4.125 -0.0813 -0.2403 -0.3500
  195DOPC   C2224105   4.420  -0.496   4.156  0.0965  0.0588 -0.3428
  195DOPC   H2R24106   4.403  -0.566   4.071  0.4544 -1.2869  0.6784
  195DOPC   H2S24107   4.335  -0.429   4.181 -2.1563 -2.5201 -0.6108
  195DOPC    C324108   4.679  -0.143   4.166 -0.1883 -0.0743 -0.0270
  195DOPC    HX24109   4.726  -0.047   4.132 -1.1967  1.8227  3.4825
  195DOPC    HY24110   4.767  -0.211   4.162 -0.4614 -0.3870 -1.1787
  195DOPC   O3124111   4.618  -0.132   4.296 -0.2699  0.2568 -0.2714
  195DOPC   C3124112   4.707  -0.070   4.385  0.3976 -0.0054 -0.2265
  195DOPC   O3224113   4.801  -0.013   4.340  0.1521  0.1410 -0.3684
  195DOPC   C3224114   4.670  -0.090   4.533 -0.0961  1.2022  0.0937
  195DOPC   H2X24115   4.563  -0.063   4.545 -0.6025  0.7741 -2.6613
  195DOPC   H2Y24116   4.671  -0.200   4.547  0.5769  1.3156  1.0479
  195DOPC   C2324117   4.451  -0.571   4.286  0.2404 -0.1715 -0.8635
  195DOPC   H3R24118   4.537  -0.638   4.269 -0.1264 -0.3896 -1.9417
  195DOPC   H3S24119   4.363  -0.638   4.290  0.2624 -0.3810 -3.0014
  195DOPC   C2424120   4.465  -0.489   4.418  1.0943  0.0194 -0.4666
  195DOPC   H4R24121   4.376  -0.423   4.428  1.8491  0.7037  2.4787
  195DOPC   H4S24122   4.552  -0.421   4.414  0.6875  0.6240  0.5783
  195DOPC   C2524123   4.471  -0.590   4.538  0.2222  0.2765  0.3718
  195DOPC   H5R24124   4.572  -0.633   4.522  0.6243  1.9294 -1.9370
  195DOPC   H5S24125   4.397  -0.670   4.516  0.3158  0.7643 -1.9413
  195DOPC   C2624126   4.467  -0.543   4.680  0.4795 -0.2597  0.0593
  195DOPC   H6R24127   4.371  -0.493   4.705  1.0455  1.2526 -0.6068
  195DOPC   H6S24128   4.540  -0.459   4.683 -1.4703  1.5555 -0.6801
  195DOPC   C2724129   4.499  -0.650   4.795  0.4571  0.0516  0.1016
  195DOPC   H7R24130   4.608  -0.668   4.788 -0.0179 -3.1016 -0.5535
  195DOPC   H7S24131   4.448  -0.740   4.755  0.3927  1.4066 -3.1959
  195DOPC   C2824132   4.459  -0.601   4.935  0.5141 -1.2266 -0.4754
  195DOPC   H8R24133   4.447  -0.692   4.998 -2.4989  0.4941  1.7430
  195DOPC   H8S24134   4.356  -0.559   4.943  0.9645 -0.2713  0.5980
  195DOPC   C2924135   4.570  -0.507   4.980 -0.1243  0.1528 -0.4488
  195DOPC   H9R24136   4.616  -0.439   4.907  0.6094 -0.8097 -0.9047
  195DOPC  C21024137   4.611  -0.498   5.109 -0.4232 -0.2460 -0.5398
  195DOPC  H10R24138   4.706  -0.449   5.135 -0.4257  0.0682 -1.0996
  195DOPC  C21124139   4.558  -0.571   5.230 -0.5740 -0.1529 -0.2345
  195DOPC  H11R24140   4.587  -0.677   5.212  1.7696  0.5859 -1.1396
  195DOPC  H11S24141   4.452  -0.546   5.250  0.1888  3.4880 -0.0886
  195DOPC  C21224142   4.630  -0.546   5.366  0.7131 -0.4866  0.1333
  195DOPC  H12R24143   4.741  -0.550   5.365  0.8194  1.4189 -0.0480
  195DOPC  H12S24144   4.586  -0.623   5.432 -1.0058 -0.5801 -1.0458
  195DOPC  C21324145   4.595  -0.410   5.427 -0.1011  0.8890  0.2255
  195DOPC  H13R24146   4.487  -0.389   5.411 -0.4401 -1.5754 -1.1074
  195DOPC  H13S24147   4.653  -0.339   5.364 -0.6227 -0.9595 -2.5361
  195DOPC  C21424148   4.629  -0.410   5.576 -0.3546 -0.1533 -0.7294
  195DOPC  H14R24149   4.738  -0.426   5.588 -0.9295 -3.2503  1.3240
  195DOPC  H14S24150   4.573  -0.491   5.627  0.1878 -0.6588 -0.9351
  195DOPC  C21524151   4.595  -0.278   5.651 -0.3682  0.4199 -0.1790
  195DOPC  H15R24152   4.654  -0.188   5.624  1.0661  0.1085  1.6966
  195DOPC  H15S24153   4.636  -0.292   5.753 -1.4376 -1.2823  0.0582
  195DOPC  C21624154   4.443  -0.238   5.663 -0.2088 -0.0089  0.1263
  195DOPC  H16R24155   4.423  -0.217   5.770 -2.2562 -0.1872 -0.1703
  195DOPC  H16S24156   4.372  -0.322   5.641  0.4960 -1.1700  1.9956
  195DOPC  C21724157   4.401  -0.124   5.564 -0.3067 -0.3355 -0.2772
  195DOPC  H17R24158   4.424  -0.144   5.457 -1.3724  1.2995 -0.8475
  195DOPC  H17S24159   4.471  -0.041   5.588 -0.3457 -0.2281 -0.5303
  195DOPC  C21824160   4.264  -0.056   5.590 -0.6493  0.4214 -0.8143
  195DOPC  H18R24161   4.269   0.003   5.683  0.6922 -0.3620 -0.3634
  195DOPC  H18S24162   4.183  -0.130   5.606 -0.6386  0.5985  0.1424
  195DOPC  H18T24163   4.244   0.022   5.514  1.1814  1.9334  0.1824
  195DOPC   C3324164   4.768  -0.032   4.638 -0.1104 -0.0379 -0.0838
  195DOPC   H3X24165   4.771   0.079   4.644 -0.1169 -0.0662  0.5106
  195DOPC   H3Y24166   4.869  -0.074   4.618  0.2910  0.4630  0.8022
  195DOPC   C3424167   4.731  -0.077   4.776  0.2288  0.8764  0.0150
  195DOPC   H4X24168   4.739  -0.187   4.775  0.4517  0.8802 -1.3628
  195DOPC   H4Y24169   4.626  -0.052   4.800  0.3321 -0.7042  2.4512
  195DOPC   C3524170   4.816  -0.021   4.892  0.5178  0.8324  0.5375
  195DOPC   H5X24171   4.802   0.088   4.901  0.4493  1.0279 -1.4832
  195DOPC   H5Y24172   4.922  -0.042   4.865  0.6036 -0.7084  1.9223
  195DOPC   C3624173   4.782  -0.096   5.022  0.0365 -0.5472  0.0216
  195DOPC   H6X24174   4.682  -0.052   5.041 -0.0130 -0.1395 -1.1070
  195DOPC   H6Y24175   4.772  -0.203   4.991  4.0594 -1.2187  0.4804
  195DOPC   C3724176   4.876  -0.076   5.145 -0.3021 -0.9582  0.0332
  195DOPC   H7X24177   4.971  -0.128   5.121 -0.2979 -1.0907  0.3331
  195DOPC   H7Y24178   4.896   0.028   5.178 -0.5784 -1.6108  2.3951
  195DOPC   C3824179   4.825  -0.138   5.276  0.1180 -0.3439  0.2749
  195DOPC   H8X24180   4.911  -0.137   5.346  0.9795  2.6481 -0.6718
  195DOPC   H8Y24181   4.806  -0.242   5.244  1.0410 -0.3486 -0.2712
  195DOPC   C3924182   4.702  -0.059   5.319  0.1842 -0.1757  0.1983
  195DOPC   H9X24183   4.617  -0.068   5.249  1.3978  0.5674 -1.4276
  195DOPC  C31024184   4.700   0.032   5.417 -0.3950 -0.2405 -0.4979
  195DOPC  H10X24185   4.606   0.087   5.431  0.4953  1.7631 -1.8187
  195DOPC  C31124186   4.816   0.089   5.502  0.6165  0.7447 -0.1239
  195DOPC  H11X24187   4.902   0.097   5.433  0.7001 -0.7335 -0.2302
  195DOPC  H11Y24188   4.833   0.017   5.585 -1.6819 -0.8998 -0.9667
  195DOPC  C31224189   4.792   0.221   5.584  0.6955  0.2578  0.6116
  195DOPC  H12X24190   4.701   0.203   5.645 -0.6653  1.5304 -0.9529
  195DOPC  H12Y24191   4.771   0.308   5.518 -0.0128 -0.2374  0.1793
  195DOPC  C31324192   4.909   0.263   5.671 -0.3498 -0.7256  0.2211
  195DOPC  H13X24193   5.000   0.253   5.609 -0.1778 -0.3718  0.4128
  195DOPC  H13Y24194   4.900   0.371   5.695  1.0798 -0.4120 -0.6135
  195DOPC  C31424195   4.928   0.189   5.804  0.3482 -0.2450  0.0115
  195DOPC  H14X24196   4.986   0.097   5.781  0.1154 -0.7031  1.1899
  195DOPC  H14Y24197   4.992   0.253   5.868  1.1688  1.1059 -2.0387
  195DOPC  C31524198   4.811   0.163   5.899  0.0403 -0.0219  0.3004
  195DOPC  H15X24199   4.838   0.101   5.987 -3.0965  0.5073  1.7766
  195DOPC  H15Y24200   4.729   0.108   5.848  2.4184 -2.1087 -1.5222
  195DOPC  C31624201   4.742   0.293   5.939  0.2117  0.1395 -0.2204
  195DOPC  H16X24202   4.810   0.351   6.006  0.3014  0.3844 -0.5181
  195DOPC  H16Y24203   4.737   0.354   5.847  4.0327 -1.1326 -1.4796
  195DOPC  C31724204   4.604   0.264   6.002 -0.6996 -0.6294  0.2260
  195DOPC  H17X24205   4.559   0.361   6.029 -1.7225 -0.9423 -0.3155
  195DOPC  H17Y24206   4.528   0.232   5.928 -2.1369 -1.3879  1.9444
  195DOPC  C31824207   4.602   0.169   6.120  0.4638  0.8345  0.8385
  195DOPC  H18X24208   4.632   0.069   6.083 -1.0691  0.9732 -0.9343
  195DOPC  H18Y24209   4.671   0.199   6.202  1.1603 -0.0423  0.5903
  195DOPC  H18Z24210   4.498   0.166   6.158 -0.3812  0.9880 -1.2752
  196DOPC     N24211   0.296   1.205   4.118 -0.7262 -0.1560 -0.4829
  196DOPC   C1224212   0.319   1.217   4.267 -0.1687  0.0324  0.1882
  196DOPC  H12A24213   0.222   1.197   4.308 -1.4084  0.7025 -2.2487
  196DOPC  H12B24214   0.336   1.321   4.289  0.4226 -0.1441  0.6125
  196DOPC   C1324215   0.225   1.077   4.090 -0.4659 -0.0179 -0.6126
  196DOPC  H13A24216   0.120   1.069   4.113  0.0519 -0.9944  1.5889
  196DOPC  H13B24217   0.237   1.060   3.984 -1.5861  1.1425 -0.9489
  196DOPC  H13C24218   0.272   0.991   4.134 -1.7419  0.1665  1.1995
  196DOPC   C1424219   0.437   1.192   4.052 -0.0026 -0.3186 -0.1430
  196DOPC  H14A24220   0.438   1.170   3.947  2.5814 -1.0142 -0.0560
  196DOPC  H14B24221   0.489   1.285   4.070  0.0883 -0.1635 -1.1790
  196DOPC  H14C24222   0.492   1.111   4.099  1.3588 -0.2164 -1.4769
  196DOPC   C1524223   0.228   1.323   4.049  0.2845  0.5873 -0.5387
  196DOPC  H15A24224   0.124   1.333   4.078  0.7988  0.0280  1.6938
  196DOPC  H15B24225   0.221   1.318   3.942  1.5447 -0.7991 -0.5795
  196DOPC  H15C24226   0.281   1.410   4.084  1.2461  0.2148 -1.0450
  196DOPC   C1124227   0.424   1.125   4.330  0.1227 -0.6607  0.3099
  196DOPC  H11A24228   0.527   1.158   4.304  0.2676  0.1931  1.8641
  196DOPC  H11B24229   0.427   1.126   4.441  0.2524  0.4696  0.3132
  196DOPC     P24230   0.519   0.885   4.274 -0.2352 -0.0919 -0.2154
  196DOPC   O1324231   0.603   0.925   4.157 -0.1211  0.1227 -0.4805
  196DOPC   O1424232   0.467   0.750   4.261 -0.2904 -0.4053  0.5433
  196DOPC   O1224233   0.393   0.990   4.294 -0.8032 -0.2615 -0.4364
  196DOPC   O1124234   0.600   0.910   4.407 -0.0041  0.5327 -0.0900
  196DOPC    C124235   0.725   0.851   4.428  0.0781  0.5149 -0.0822
  196DOPC    HA24236   0.785   0.912   4.499  1.5720 -1.2457  0.2514
  196DOPC    HB24237   0.787   0.860   4.336  0.6008  1.9248  0.3790
  196DOPC    C224238   0.717   0.710   4.486  0.1653  0.1909 -0.1729
  196DOPC    HS24239   0.638   0.658   4.429  0.8302 -2.3862  1.0971
  196DOPC   O2124240   0.675   0.730   4.625 -0.1594  0.5800 -0.6468
  196DOPC   C2124241   0.640   0.616   4.683 -0.3936  0.2664 -0.6980
  196DOPC   O2224242   0.648   0.505   4.622 -0.1479 -0.3761  0.1908
  196DOPC   C2224243   0.593   0.633   4.832  0.2743 -0.5026  0.7081
  196DOPC   H2R24244   0.504   0.700   4.830 -0.1121 -0.9774 -1.7213
  196DOPC   H2S24245   0.678   0.682   4.884  0.3274  0.1558  0.0247
  196DOPC    C324246   0.853   0.635   4.473 -0.1766 -0.2417  0.5865
  196DOPC    HX24247   0.866   0.618   4.364 -0.2368  1.1127  0.3448
  196DOPC    HY24248   0.847   0.538   4.526 -0.1712 -1.1778 -1.0601
  196DOPC   O3124249   0.965   0.707   4.522  0.2655 -0.6573  0.1424
  196DOPC   C3124250   0.980   0.691   4.656 -0.2255 -0.8491  0.3670
  196DOPC   O3224251   0.917   0.613   4.725 -0.3009 -0.2639  0.2043
  196DOPC   C3224252   1.084   0.794   4.713  0.7763  0.1174 -0.6389
  196DOPC   H2X24253   1.147   0.737   4.784 -0.7186 -1.4159 -0.4759
  196DOPC   H2Y24254   1.144   0.833   4.628  0.0139 -3.7784 -3.2405
  196DOPC   C2324255   0.567   0.501   4.900 -0.3006  0.5572  0.0223
  196DOPC   H3R24256   0.663   0.461   4.940 -0.1267 -0.3584 -1.2401
  196DOPC   H3S24257   0.516   0.424   4.838 -0.1726 -0.3234  0.9952
  196DOPC   C2424258   0.484   0.546   5.018 -0.4718 -0.8740 -0.6034
  196DOPC   H4R24259   0.376   0.562   4.997 -0.6996  1.1862  1.6654
  196DOPC   H4S24260   0.534   0.636   5.060 -0.7187 -1.3235  0.7009
  196DOPC   C2524261   0.487   0.447   5.137  0.0010  0.2289  0.6066
  196DOPC   H5R24262   0.583   0.410   5.179 -0.4535 -1.9553 -0.1029
  196DOPC   H5S24263   0.443   0.358   5.086 -3.1933  1.3446  1.1505
  196DOPC   C2624264   0.408   0.484   5.262  0.1980  0.5386 -0.1094
  196DOPC   H6R24265   0.301   0.470   5.239 -0.8447  2.1531  3.1095
  196DOPC   H6S24266   0.417   0.592   5.285 -0.5374  0.4606  0.6084
  196DOPC   C2724267   0.434   0.392   5.383 -0.4608  0.2456 -0.8813
  196DOPC   H7R24268   0.533   0.417   5.428 -0.3503 -2.0322  0.2947
  196DOPC   H7S24269   0.440   0.282   5.369 -2.2340  0.0693 -0.4969
  196DOPC   C2824270   0.321   0.413   5.488 -0.4342  0.1105  0.8256
  196DOPC   H8R24271   0.332   0.335   5.566 -2.2564 -1.4257 -0.3443
  196DOPC   H8S24272   0.221   0.403   5.440 -0.2837 -0.4354  0.6156
  196DOPC   C2924273   0.328   0.548   5.552  0.2541 -0.3325  0.2667
  196DOPC   H9R24274   0.297   0.629   5.484 -0.9019 -0.5482  0.5086
  196DOPC  C21024275   0.363   0.577   5.676 -0.5223 -0.0941 -0.3096
  196DOPC  H10R24276   0.367   0.684   5.703 -0.6378 -0.4358  1.1258
  196DOPC  C21124277   0.394   0.473   5.786 -0.3595  1.1325  0.6079
  196DOPC  H11R24278   0.493   0.427   5.763 -0.3833  2.2304 -2.0302
  196DOPC  H11S24279   0.328   0.385   5.779  0.9185 -0.0883  2.6223
  196DOPC  C21224280   0.380   0.543   5.927  0.4180 -0.1469  0.6225
  196DOPC  H12R24281   0.451   0.629   5.930  1.4356 -0.9172 -0.3302
  196DOPC  H12S24282   0.404   0.458   5.995 -0.1973 -0.6400  0.2313
  196DOPC  C21324283   0.234   0.573   5.964  0.3213 -0.3500 -0.4494
  196DOPC  H13R24284   0.176   0.478   5.964 -0.0011 -0.2547  2.5900
  196DOPC  H13S24285   0.201   0.656   5.899 -0.9248  1.0181  1.7996
  196DOPC  C21424286   0.215   0.618   6.110 -0.3571  0.2420 -0.4066
  196DOPC  H14R24287   0.228   0.729   6.112  4.6478 -0.0798 -1.0114
  196DOPC  H14S24288   0.285   0.563   6.176  0.0823 -0.9541 -1.8018
  196DOPC  C21524289   0.075   0.583   6.157 -0.4528  0.0426 -0.5684
  196DOPC  H15R24290   0.051   0.475   6.150  1.8189 -0.6501  0.9589
  196DOPC  H15S24291   0.007   0.626   6.081  0.6303  1.2035 -0.9280
  196DOPC  C21624292   0.040   0.634   6.297  0.1270 -0.4237  0.3897
  196DOPC  H16R24293   0.034   0.745   6.299  3.4679 -0.1636  1.1443
  196DOPC  H16S24294   0.134   0.609   6.350  1.8371  1.1867 -1.7035
  196DOPC  C21724295  -0.074   0.564   6.364  0.4759  0.3613 -0.2815
  196DOPC  H17R24296  -0.171   0.563   6.309 -1.9101 -0.3466  3.5258
  196DOPC  H17S24297  -0.097   0.624   6.455  0.2527 -1.1771  0.7107
  196DOPC  C21824298  -0.034   0.420   6.413  0.1705  0.8851  0.1480
  196DOPC  H18R24299  -0.119   0.371   6.466  0.6531  1.1932  1.2328
  196DOPC  H18S24300   0.054   0.420   6.481  0.1996 -0.7032  0.1275
  196DOPC  H18T24301  -0.013   0.349   6.330  1.6148 -1.1505  2.1459
  196DOPC   C3324302   1.008   0.907   4.779 -0.8892  0.0825  0.0784
  196DOPC   H3X24303   0.913   0.935   4.729 -1.1227  0.0817  0.5143
  196DOPC   H3Y24304   1.076   0.994   4.793  0.3545 -0.8698  0.1426
  196DOPC   C3424305   0.976   0.888   4.929  0.2504  0.2346  0.0705
  196DOPC   H4X24306   0.910   0.801   4.947 -0.2941  0.5373 -0.4112
  196DOPC   H4Y24307   0.925   0.979   4.969 -1.2060 -1.2048  1.6386
  196DOPC   C3524308   1.100   0.880   5.013 -0.6027  0.0502 -0.1946
  196DOPC   H5X24309   1.153   0.977   5.016 -0.3995 -0.0839  0.7169
  196DOPC   H5Y24310   1.156   0.789   4.980 -0.8431 -0.1094 -0.1690
  196DOPC   C3624311   1.070   0.857   5.161 -0.1992  0.0932  0.3057
  196DOPC   H6X24312   1.027   0.951   5.203 -1.3735 -0.1944 -0.2246
  196DOPC   H6Y24313   0.992   0.779   5.160 -0.1315  0.0240  0.3672
  196DOPC   C3724314   1.194   0.815   5.245 -0.5689  0.1050  0.0237
  196DOPC   H7X24315   1.248   0.729   5.201  0.6830  1.7790 -1.8602
  196DOPC   H7Y24316   1.273   0.893   5.236  0.1060 -0.7796 -2.2161
  196DOPC   C3824317   1.173   0.780   5.389  0.1429 -0.7606  0.0607
  196DOPC   H8X24318   1.267   0.741   5.434 -0.2179  0.5134  2.0517
  196DOPC   H8Y24319   1.103   0.696   5.406 -1.1454  0.3554  0.4448
  196DOPC   C3924320   1.131   0.898   5.467  0.5301 -0.9068 -0.3665
  196DOPC   H9X24321   1.022   0.902   5.479  0.6645 -1.3781  1.2345
  196DOPC  C31024322   1.210   0.981   5.538 -0.1893  0.0556 -0.0633
  196DOPC  H10X24323   1.173   1.061   5.605  1.8330  0.9186  0.0819
  196DOPC  C31124324   1.362   0.974   5.547  0.6440 -0.0954  0.2597
  196DOPC  H11X24325   1.403   1.063   5.495  0.5821 -0.3304 -0.1929
  196DOPC  H11Y24326   1.412   0.887   5.500  2.1007  0.1011  1.3719
  196DOPC  C31224327   1.421   0.991   5.689 -0.5622  0.1569  0.3545
  196DOPC  H12X24328   1.528   1.002   5.661 -0.6217  0.1653  0.1238
  196DOPC  H12Y24329   1.423   0.899   5.752  1.3997 -0.2827 -0.2860
  196DOPC  C31324330   1.378   1.114   5.775  0.1085  0.0841 -0.4176
  196DOPC  H13X24331   1.473   1.169   5.792  0.8052 -1.4090  0.7636
  196DOPC  H13Y24332   1.324   1.186   5.711  0.1529  0.2314 -0.2893
  196DOPC  C31424333   1.303   1.082   5.904 -0.9889 -0.1098 -0.2247
  196DOPC  H14X24334   1.228   1.001   5.886 -0.8245  0.0218 -1.6249
  196DOPC  H14Y24335   1.379   1.032   5.969  1.0372 -0.5549 -2.7428
  196DOPC  C31524336   1.239   1.199   5.967  0.3233 -0.3386 -0.2299
  196DOPC  H15X24337   1.151   1.161   6.023 -0.4672 -2.1643 -2.5155
  196DOPC  H15Y24338   1.190   1.263   5.890  1.4383  1.1217  0.2476
  196DOPC  C31624339   1.332   1.284   6.056 -0.0514 -0.4648 -0.1611
  196DOPC  H16X24340   1.375   1.213   6.131  0.0128 -2.5416 -2.0618
  196DOPC  H16Y24341   1.423   1.316   6.000  1.0417 -1.0700  1.1851
  196DOPC  C31724342   1.260   1.397   6.132 -0.5761  0.2203  0.0709
  196DOPC  H17X24343   1.221   1.469   6.057 -1.8513 -0.6677 -0.1498
  196DOPC  H17Y24344   1.167   1.355   6.174 -0.7224  0.9375  0.4811
  196DOPC  C31824345   1.336   1.464   6.246 -0.3568 -0.2264 -0.2578
  196DOPC  H18X24346   1.419   1.519   6.197  0.2706 -0.9623 -0.0421
  196DOPC  H18Y24347   1.281   1.544   6.300  0.0498  0.3316 -0.6715
  196DOPC  H18Z24348   1.382   1.386   6.311 -0.3111  1.4044  1.7658
  197DOPC     N24349   1.762   6.232   3.861  0.2072  0.2403 -0.8334
  197DOPC   C1224350   1.681   6.265   3.988 -0.3172 -0.5325 -0.3670
  197DOPC  H12A24351   1.604   6.335   3.961  1.7055  1.1947 -1.9938
  197DOPC  H12B24352   1.748   6.320   4.053 -0.0024 -2.0366  0.6345
  197DOPC   C1324353   1.778   6.365   3.797 -0.6439 -0.1050  0.3197
  197DOPC  H13A24354   1.685   6.405   3.763 -2.2686 -0.3495  3.9675
  197DOPC  H13B24355   1.827   6.440   3.857  2.5762 -1.5131 -0.3080
  197DOPC  H13C24356   1.842   6.361   3.710 -0.0329  1.8270  0.6292
  197DOPC   C1424357   1.690   6.134   3.775  0.5720  0.5810  0.4494
  197DOPC  H14A24358   1.661   6.044   3.828  1.0939 -1.2330 -2.1218
  197DOPC  H14B24359   1.595   6.175   3.744 -0.2571 -1.2569  0.3824
  197DOPC  H14C24360   1.753   6.110   3.691 -0.0208 -1.1328  0.4356
  197DOPC   C1524361   1.896   6.184   3.907 -0.4675  0.4759 -0.9954
  197DOPC  H15A24362   1.965   6.176   3.824  0.2430  0.5371 -0.4155
  197DOPC  H15B24363   1.897   6.088   3.956  1.5666 -0.1388 -2.0983
  197DOPC  H15C24364   1.929   6.251   3.985 -2.0227 -1.2183  1.2229
  197DOPC   C1124365   1.635   6.146   4.074  0.1736  0.5448  1.0411
  197DOPC  H11A24366   1.722   6.079   4.091  0.3649 -0.7418 -3.6587
  197DOPC  H11B24367   1.591   6.185   4.169 -0.5218 -0.1222  1.0023
  197DOPC     P24368   1.495   5.925   4.044  0.1320  0.1239 -0.0232
  197DOPC   O1324369   1.574   5.837   3.957  0.7150 -0.0986  0.1868
  197DOPC   O1424370   1.349   5.910   4.035 -0.4677  0.3965  0.0990
  197DOPC   O1224371   1.523   6.082   4.012  0.2420  0.1147  0.5263
  197DOPC   O1124372   1.538   5.913   4.197  0.0396 -0.9560  0.4244
  197DOPC    C124373   1.657   5.843   4.240 -0.4457 -0.1732  0.0369
  197DOPC    HA24374   1.748   5.859   4.179  1.1848 -3.5017  1.3529
  197DOPC    HB24375   1.633   5.734   4.236  0.3941 -0.3454 -0.4365
  197DOPC    C224376   1.689   5.865   4.386 -0.8182  0.0927 -0.1902
  197DOPC    HS24377   1.780   5.806   4.410 -0.5586 -0.3026 -1.9902
  197DOPC   O2124378   1.582   5.815   4.462 -0.5239 -0.4322  0.1202
  197DOPC   C2124379   1.583   5.691   4.499  0.0264  0.0919 -0.3701
  197DOPC   O2224380   1.675   5.613   4.491 -0.0433  0.1090 -0.1626
  197DOPC   C2224381   1.456   5.669   4.571 -0.0614 -0.0300 -0.3339
  197DOPC   H2R24382   1.369   5.678   4.503 -0.3947  0.3743  0.1391
  197DOPC   H2S24383   1.447   5.750   4.647 -2.7164  0.1047 -0.7010
  197DOPC    C324384   1.716   6.010   4.413  0.4920  0.2283  0.0104
  197DOPC    HX24385   1.633   6.074   4.377 -2.2179 -1.3668  2.9347
  197DOPC    HY24386   1.801   6.024   4.343  0.8991 -0.0469  0.4486
  197DOPC   O3124387   1.749   6.028   4.555  0.4226  0.3946 -0.3577
  197DOPC   C3124388   1.652   6.070   4.632 -0.0505  0.2063  0.9180
  197DOPC   O3224389   1.542   6.112   4.593 -0.0293  0.1806 -0.2878
  197DOPC   C3224390   1.696   6.059   4.777  0.5772  0.0563  0.3545
  197DOPC   H2X24391   1.807   6.058   4.777  0.6349  0.0423 -2.1239
  197DOPC   H2Y24392   1.661   6.148   4.833 -2.7884 -0.6983 -0.3270
  197DOPC   C2324393   1.446   5.533   4.635  0.1508 -0.0690  0.3258
  197DOPC   H3R24394   1.478   5.436   4.591 -0.6278 -0.9851  1.7070
  197DOPC   H3S24395   1.339   5.518   4.660 -1.1964  3.0238 -2.6797
  197DOPC   C2424396   1.541   5.520   4.755  0.4101 -0.2680 -0.1828
  197DOPC   H4R24397   1.525   5.610   4.818  0.3376  0.0840 -0.6959
  197DOPC   H4S24398   1.649   5.515   4.730 -0.1666  2.9677 -4.4076
  197DOPC   C2524399   1.508   5.409   4.855  0.3784 -0.6710  0.2344
  197DOPC   H5R24400   1.511   5.312   4.802  1.0373 -0.1033 -0.7969
  197DOPC   H5S24401   1.406   5.430   4.892 -0.6554 -0.5584 -2.5342
  197DOPC   C2624402   1.615   5.408   4.971  0.3862  0.2491 -0.6394
  197DOPC   H6R24403   1.627   5.509   5.018  0.6989 -0.3468  0.6055
  197DOPC   H6S24404   1.714   5.384   4.926  1.2358 -1.3088  1.8634
  197DOPC   C2724405   1.580   5.302   5.079  0.4718 -0.3984 -0.0368
  197DOPC   H7R24406   1.580   5.199   5.038 -1.9127 -1.1694  1.7126
  197DOPC   H7S24407   1.476   5.321   5.115  0.3016 -0.0526 -0.6875
  197DOPC   C2824408   1.680   5.301   5.196 -0.6088 -0.1132 -0.1338
  197DOPC   H8R24409   1.686   5.405   5.235  1.3461  0.0263 -0.6968
  197DOPC   H8S24410   1.780   5.268   5.162 -0.5656  1.0633 -1.2609
  197DOPC   C2924411   1.639   5.224   5.312  0.5896 -0.6220 -0.2693
  197DOPC   H9R24412   1.598   5.123   5.296 -1.1862 -0.5272  2.8769
  197DOPC  C21024413   1.638   5.273   5.442  0.4126  0.3535  0.3829
  197DOPC  H10R24414   1.594   5.209   5.519 -1.0367  1.8179  0.8323
  197DOPC  C21124415   1.692   5.402   5.490  0.4151 -0.1304  0.0764
  197DOPC  H11R24416   1.612   5.464   5.536 -0.2820 -1.6393  1.0032
  197DOPC  H11S24417   1.736   5.457   5.404 -1.0006  1.3506  0.2435
  197DOPC  C21224418   1.807   5.390   5.594  0.2025 -0.2030 -0.2146
  197DOPC  H12R24419   1.770   5.338   5.685 -0.6658  0.3981 -0.2169
  197DOPC  H12S24420   1.834   5.491   5.631 -0.3536 -0.3057  0.4986
  197DOPC  C21324421   1.938   5.322   5.549  0.4099  0.3253 -0.6803
  197DOPC  H13R24422   1.975   5.388   5.468  0.6329  3.6452  1.9000
  197DOPC  H13S24423   1.911   5.218   5.523 -0.1243  0.5681 -1.1124
  197DOPC  C21424424   2.052   5.319   5.655 -0.3597 -0.1042  0.3702
  197DOPC  H14R24425   2.086   5.424   5.665  0.6177 -0.3593 -0.1012
  197DOPC  H14S24426   2.141   5.273   5.606 -1.1347 -0.3608 -0.8374
  197DOPC  C21524427   2.026   5.256   5.796 -0.4551 -0.0415 -0.1077
  197DOPC  H15R24428   1.955   5.325   5.846 -1.3169 -0.5175 -0.6584
  197DOPC  H15S24429   2.120   5.259   5.856  0.1387 -0.5095 -0.9970
  197DOPC  C21624430   1.973   5.112   5.791 -0.4105 -0.4021  0.1348
  197DOPC  H16R24431   2.049   5.039   5.755 -0.3618  0.2329 -1.1094
  197DOPC  H16S24432   1.885   5.096   5.726  0.5866  1.0740 -1.6781
  197DOPC  C21724433   1.925   5.081   5.937  0.5359  0.0617  0.9292
  197DOPC  H17R24434   1.868   5.170   5.971  0.3044  1.0384 -1.7411
  197DOPC  H17S24435   2.020   5.060   5.990  0.1579 -1.1770  1.1483
  197DOPC  C21824436   1.848   4.948   5.962  0.1607 -0.1623 -0.0563
  197DOPC  H18R24437   1.862   4.911   6.065  0.3848  0.5608  0.1831
  197DOPC  H18S24438   1.884   4.868   5.893  1.3558  1.1618 -1.0440
  197DOPC  H18T24439   1.740   4.961   5.942  0.3303  0.8073 -0.4418
  197DOPC   C3324440   1.626   5.935   4.844  0.7381  0.0011 -0.3876
  197DOPC   H3X24441   1.674   5.844   4.802  2.3594  1.3992 -1.7660
  197DOPC   H3Y24442   1.522   5.927   4.808 -0.0492 -1.8618  2.0053
  197DOPC   C3424443   1.623   5.938   5.001  0.1098 -0.9129 -0.1968
  197DOPC   H4X24444   1.542   6.010   5.026  0.9513  0.9865 -2.4564
  197DOPC   H4Y24445   1.720   5.982   5.031 -0.7087  1.2095 -0.4754
  197DOPC   C3524446   1.605   5.805   5.062  0.6579 -0.2474  0.2884
  197DOPC   H5X24447   1.662   5.729   5.004  3.5685  1.4726  0.6943
  197DOPC   H5Y24448   1.498   5.774   5.060  1.1612 -2.0280 -0.5593
  197DOPC   C3624449   1.642   5.796   5.208 -0.8244  0.2198  0.4755
  197DOPC   H6X24450   1.710   5.711   5.231 -1.6812 -0.7764 -0.5731
  197DOPC   H6Y24451   1.692   5.890   5.241  0.6679 -0.2859 -0.2719
  197DOPC   C3724452   1.518   5.769   5.295  0.2709  0.4991 -0.1218
  197DOPC   H7X24453   1.445   5.853   5.286 -1.0317 -0.5949 -0.0199
  197DOPC   H7Y24454   1.470   5.672   5.271  0.3815 -0.6050  3.4969
  197DOPC   C3824455   1.551   5.759   5.446  0.0552 -0.0544  0.0203
  197DOPC   H8X24456   1.590   5.860   5.470  1.5232 -0.6233  0.1352
  197DOPC   H8Y24457   1.634   5.685   5.449  1.4561  1.5042  1.4354
  197DOPC   C3924458   1.437   5.711   5.533  0.9856 -0.2370  0.3227
  197DOPC   H9X24459   1.398   5.613   5.502  3.1068 -1.8358  2.3717
  197DOPC  C31024460   1.401   5.766   5.649  0.4333 -0.5084 -0.2819
  197DOPC  H10X24461   1.316   5.723   5.704 -0.1673  1.9568  0.8657
  197DOPC  C31124462   1.460   5.891   5.710  0.3696  0.6517  0.6437
  197DOPC  H11X24463   1.387   5.956   5.762 -1.2227 -1.3622  1.0634
  197DOPC  H11Y24464   1.509   5.950   5.630  0.8138 -0.1096  0.3337
  197DOPC  C31224465   1.566   5.855   5.816  0.1639 -0.1730 -0.5383
  197DOPC  H12X24466   1.646   5.794   5.770 -0.0951  0.7660 -2.3280
  197DOPC  H12Y24467   1.518   5.804   5.902 -1.5213  2.0092 -0.0809
  197DOPC  C31324468   1.627   5.983   5.878  0.3257 -0.2437 -0.5834
  197DOPC  H13X24469   1.642   6.063   5.803 -0.4909  0.4214 -0.0574
  197DOPC  H13Y24470   1.552   6.021   5.951  0.4371  0.9633 -1.0760
  197DOPC  C31424471   1.757   5.968   5.960  0.2877 -0.2468 -0.6634
  197DOPC  H14X24472   1.840   5.947   5.889 -0.4492 -3.6233 -0.6726
  197DOPC  H14Y24473   1.780   6.069   6.000 -1.5643  0.1104 -0.4520
  197DOPC  C31524474   1.752   5.865   6.070  1.3194 -0.1416 -0.2911
  197DOPC  H15X24475   1.719   5.775   6.015  0.7071  0.1506 -0.4153
  197DOPC  H15Y24476   1.677   5.892   6.148  0.7388 -1.0001 -0.5474
  197DOPC  C31624477   1.895   5.840   6.127 -0.2331 -0.2624  0.0246
  197DOPC  H16X24478   1.952   5.772   6.060  1.8148  0.7372  0.7086
  197DOPC  H16Y24479   1.959   5.930   6.130  2.5152 -2.0429 -1.2289
  197DOPC  C31724480   1.892   5.784   6.267 -0.6642  0.1209 -0.0331
  197DOPC  H17X24481   1.827   5.852   6.325 -0.6671  0.5558 -0.5356
  197DOPC  H17Y24482   1.833   5.690   6.271 -0.7834  0.2155  0.5109
  197DOPC  C31824483   2.035   5.771   6.327 -0.2429 -1.0067  0.0367
  197DOPC  H18X24484   2.032   5.729   6.430 -0.0553  0.1453  0.5240
  197DOPC  H18Y24485   2.103   5.703   6.271  0.0792 -0.5693 -0.1145
  197DOPC  H18Z24486   2.087   5.869   6.336  0.5568 -1.4432  0.2833
  198DOPC     N24487   6.218   6.362   3.774  0.3192 -0.7144  0.3794
  198DOPC   C1224488   6.106   6.299   3.859  0.1550 -0.1967 -0.2343
  198DOPC  H12A24489   6.056   6.217   3.811 -1.0503 -0.9105  2.0656
  198DOPC  H12B24490   6.024   6.367   3.877  1.6430  1.7439 -0.3771
  198DOPC   C1324491   6.158   6.445   3.676 -0.2453 -0.1875  0.0950
  198DOPC  H13A24492   6.116   6.396   3.589 -0.9343  0.6306 -0.0403
  198DOPC  H13B24493   6.080   6.504   3.721  1.1334  0.0813  2.2652
  198DOPC  H13C24494   6.220   6.522   3.633 -0.5560  0.8343  1.4106
  198DOPC   C1424495   6.290   6.253   3.699 -0.6015  0.2197  0.4337
  198DOPC  H14A24496   6.355   6.193   3.761 -0.3852 -1.1819 -1.1140
  198DOPC  H14B24497   6.220   6.187   3.650  1.0121  0.1076 -1.8574
  198DOPC  H14C24498   6.354   6.298   3.625  0.6750  1.5237  2.2279
  198DOPC   C1524499   6.318   6.432   3.862 -0.6253 -0.3847  0.1873
  198DOPC  H15A24500   6.359   6.359   3.929  0.3925 -0.1889 -0.2101
  198DOPC  H15B24501   6.268   6.509   3.918 -1.5104 -1.6480  1.1934
  198DOPC  H15C24502   6.387   6.488   3.801 -2.1440  0.4204 -0.8770
  198DOPC   C1124503   6.144   6.242   3.996  0.9881  0.0221  0.0520
  198DOPC  H11A24504   6.054   6.184   4.028  0.2482 -0.0687 -2.0518
  198DOPC  H11B24505   6.231   6.176   3.977  0.5531 -0.6931  0.4531
  198DOPC     P24506   6.081   6.429   4.164  0.4635 -0.2210  0.1119
  198DOPC   O1324507   6.014   6.521   4.068  0.1772 -0.3635  0.2050
  198DOPC   O1424508   6.154   6.500   4.276  0.2876  0.6513 -0.1199
  198DOPC   O1224509   6.184   6.339   4.084 -0.6462  0.0730 -0.8506
  198DOPC   O1124510   5.975   6.326   4.204  0.1420  0.1745 -0.1763
  198DOPC    C124511   5.987   6.237   4.310 -0.8455 -0.1721  0.6687
  198DOPC    HA24512   6.088   6.196   4.330 -0.9425 -0.7733 -0.0116
  198DOPC    HB24513   5.934   6.142   4.285  0.6086 -0.7098 -0.4630
  198DOPC    C224514   5.921   6.296   4.432 -0.3789 -0.4427  0.0593
  198DOPC    HS24515   5.965   6.396   4.452 -0.6558 -0.3450  0.1859
  198DOPC   O2124516   5.932   6.206   4.546  0.3869 -0.4028 -0.2016
  198DOPC   C2124517   5.922   6.270   4.663 -0.7647 -0.0415  1.3628
  198DOPC   O2224518   5.928   6.391   4.687  0.0605 -0.2765  0.0444
  198DOPC   C2224519   5.898   6.161   4.768  0.2859  0.1792  0.0913
  198DOPC   H2R24520   5.964   6.075   4.746 -0.5445 -0.5139  0.2812
  198DOPC   H2S24521   5.798   6.117   4.751  0.1766  0.2113  0.6243
  198DOPC    C324522   5.771   6.313   4.402  0.8716  0.0493 -0.2344
  198DOPC    HX24523   5.734   6.212   4.374 -2.4441  0.3290  2.4924
  198DOPC    HY24524   5.763   6.381   4.315  2.3098  0.6587  0.0777
  198DOPC   O3124525   5.689   6.355   4.510  0.3858  0.2344  0.5406
  198DOPC   C3124526   5.672   6.485   4.523 -0.1817 -0.2320 -0.2867
  198DOPC   O3224527   5.698   6.573   4.442 -0.0801  0.1315 -0.1198
  198DOPC   C3224528   5.612   6.519   4.658 -0.0393  0.1938 -0.4450
  198DOPC   H2X24529   5.696   6.523   4.730  1.0403 -0.1606 -1.6554
  198DOPC   H2Y24530   5.569   6.622   4.650 -1.2853 -0.2384  0.3802
  198DOPC   C2324531   5.894   6.194   4.916  0.4492 -0.4786 -0.2826
  198DOPC   H3R24532   5.816   6.271   4.930 -0.3081 -1.0756 -1.0971
  198DOPC   H3S24533   5.985   6.250   4.946 -0.5841 -0.3955  3.0833
  198DOPC   C2424534   5.892   6.065   5.004 -0.8024 -0.0661  0.1520
  198DOPC   H4R24535   5.980   6.000   4.985 -0.0247  0.8931  0.4207
  198DOPC   H4S24536   5.800   6.013   4.970 -1.3165 -0.0491  1.4531
  198DOPC   C2524537   5.899   6.084   5.159 -0.1224 -0.0054  0.9615
  198DOPC   H5R24538   5.819   6.152   5.195 -0.9582  0.5336 -1.6844
  198DOPC   H5S24539   5.996   6.136   5.177  1.6959 -2.7083 -0.3303
  198DOPC   C2624540   5.884   5.948   5.238  0.0870  0.0326  0.5855
  198DOPC   H6R24541   5.949   5.871   5.190 -1.1061 -0.1886 -0.7495
  198DOPC   H6S24542   5.786   5.907   5.205 -0.2378  2.4829 -1.8466
  198DOPC   C2724543   5.917   5.950   5.386  0.0111  0.5047 -0.4244
  198DOPC   H7R24544   6.026   5.973   5.393  0.4859 -1.0853 -2.0577
  198DOPC   H7S24545   5.906   5.850   5.433  0.5577 -0.3022 -1.9628
  198DOPC   C2824546   5.833   6.045   5.470  0.4126 -0.1907 -0.1418
  198DOPC   H8R24547   5.827   6.140   5.413 -0.8110 -1.1687 -1.7365
  198DOPC   H8S24548   5.897   6.073   5.556 -0.9181 -0.7305  1.0649
  198DOPC   C2924549   5.695   5.990   5.503 -0.0219 -0.5888  0.0453
  198DOPC   H9R24550   5.627   5.962   5.421  0.5593  2.3346 -1.5929
  198DOPC  C21024551   5.642   5.971   5.627 -0.2517 -0.1457  1.2388
  198DOPC  H10R24552   5.541   5.932   5.641 -0.4386  0.0602  0.5014
  198DOPC  C21124553   5.706   6.009   5.760 -0.4051 -0.3071 -0.0003
  198DOPC  H11R24554   5.623   6.029   5.830 -0.7790 -2.0752  0.1019
  198DOPC  H11S24555   5.768   6.102   5.756 -1.6323  0.5678  0.7834
  198DOPC  C21224556   5.791   5.878   5.802  0.4151 -0.0454  0.5072
  198DOPC  H12R24557   5.870   5.908   5.874  0.9277  0.8594 -0.4104
  198DOPC  H12S24558   5.838   5.833   5.712  0.0614  2.3434 -0.9561
  198DOPC  C21324559   5.708   5.777   5.881  0.1719 -0.5704  0.9771
  198DOPC  H13R24560   5.748   5.674   5.884 -1.2498 -1.1497  0.7695
  198DOPC  H13S24561   5.604   5.776   5.841 -0.0682  1.0781  1.4770
  198DOPC  C21424562   5.677   5.817   6.028 -0.3373  0.4580 -0.3699
  198DOPC  H14R24563   5.652   5.926   6.023  1.2341  0.9972  1.9040
  198DOPC  H14S24564   5.773   5.809   6.083 -1.4916 -0.0956  1.6774
  198DOPC  C21524565   5.573   5.734   6.101 -0.5222 -0.0713 -0.0901
  198DOPC  H15R24566   5.470   5.736   6.058 -0.4893  1.8678 -0.1619
  198DOPC  H15S24567   5.574   5.759   6.209  0.6738 -0.1689 -0.0653
  198DOPC  C21624568   5.630   5.588   6.098  0.6715  0.2467 -0.2403
  198DOPC  H16R24569   5.740   5.585   6.103  0.7392 -1.7675 -1.5938
  198DOPC  H16S24570   5.600   5.537   6.003  1.5236  0.0674 -0.4189
  198DOPC  C21724571   5.582   5.505   6.212 -0.5121 -0.1805 -0.4429
  198DOPC  H17R24572   5.629   5.545   6.305  0.7005 -4.5046  1.0510
  198DOPC  H17S24573   5.620   5.403   6.189 -0.2303 -0.0635 -0.5082
  198DOPC  C21824574   5.433   5.512   6.228 -0.0212 -0.1284 -0.1426
  198DOPC  H18R24575   5.379   5.486   6.134 -1.0003 -0.9057  0.6099
  198DOPC  H18S24576   5.404   5.617   6.253  1.7237  0.9074 -2.1330
  198DOPC  H18T24577   5.389   5.456   6.313 -2.5118  0.5621 -0.8694
  198DOPC   C3324578   5.502   6.423   4.708  0.4664 -0.7108 -0.0683
  198DOPC   H3X24579   5.535   6.317   4.703  0.2997 -0.8057  0.7291
  198DOPC   H3Y24580   5.414   6.437   4.642 -1.0499  0.9049  2.1636
  198DOPC   C3424581   5.466   6.442   4.859 -0.4198 -0.3072  0.1647
  198DOPC   H4X24582   5.375   6.381   4.879 -0.2162 -0.5372  0.3897
  198DOPC   H4Y24583   5.438   6.549   4.874  1.0040  0.4413 -1.9676
  198DOPC   C3524584   5.581   6.426   4.956 -0.3999  0.1116 -0.2602
  198DOPC   H5X24585   5.674   6.486   4.953 -0.4424  0.1706 -0.4640
  198DOPC   H5Y24586   5.600   6.316   4.958  0.6564  0.2513 -1.3649
  198DOPC   C3624587   5.538   6.462   5.101  0.3313  0.1665 -0.2081
  198DOPC   H6X24588   5.528   6.573   5.098  3.9880  0.6240 -1.6824
  198DOPC   H6Y24589   5.440   6.419   5.127  0.7039 -1.7722 -1.7725
  198DOPC   C3724590   5.645   6.432   5.210 -0.2624  0.2902 -0.0887
  198DOPC   H7X24591   5.663   6.324   5.191 -2.0997 -0.0334 -0.2463
  198DOPC   H7Y24592   5.744   6.482   5.203  0.2831 -0.6240  0.8447
  198DOPC   C3824593   5.589   6.443   5.352 -0.4721  0.9205  0.5683
  198DOPC   H8X24594   5.546   6.544   5.370  1.2482  2.0276 -1.2023
  198DOPC   H8Y24595   5.675   6.421   5.420 -1.1170  3.0688  2.1920
  198DOPC   C3924596   5.481   6.349   5.406  0.4313 -0.3112  0.3484
  198DOPC   H9X24597   5.423   6.297   5.329 -1.2277  0.5905  0.9387
  198DOPC  C31024598   5.456   6.306   5.537  0.5959  0.0814  0.2105
  198DOPC  H10X24599   5.370   6.242   5.561  0.2616 -0.0049 -1.1689
  198DOPC  C31124600   5.532   6.353   5.657  0.2859  0.0524  0.0706
  198DOPC  H11X24601   5.566   6.453   5.624  1.5327  0.2013  1.6661
  198DOPC  H11Y24602   5.625   6.295   5.675  0.9099  1.0381  0.1174
  198DOPC  C31224603   5.457   6.363   5.792  0.4817 -0.1427 -0.5162
  198DOPC  H12X24604   5.419   6.263   5.821 -0.0405  0.6559  1.7829
  198DOPC  H12Y24605   5.375   6.437   5.776  0.4367  0.1608  0.9659
  198DOPC  C31324606   5.545   6.411   5.908  0.2681  0.2655 -0.0986
  198DOPC  H13X24607   5.611   6.325   5.934 -1.0255 -1.0280 -0.8729
  198DOPC  H13Y24608   5.613   6.495   5.884  0.8780 -0.1709  0.0529
  198DOPC  C31424609   5.460   6.444   6.029 -0.3290  0.8410 -0.5256
  198DOPC  H14X24610   5.420   6.548   6.034 -1.2524  0.5570 -1.6076
  198DOPC  H14Y24611   5.372   6.376   6.028 -0.1338  0.4950  1.5079
  198DOPC  C31524612   5.520   6.423   6.164 -0.2109 -0.4736 -0.3363
  198DOPC  H15X24613   5.568   6.325   6.188  0.6513 -0.4654 -1.8543
  198DOPC  H15Y24614   5.439   6.450   6.234 -0.8585 -0.6557 -1.0070
  198DOPC  C31624615   5.629   6.531   6.196  0.5704 -0.4821 -0.1402
  198DOPC  H16X24616   5.652   6.519   6.304  0.3772  1.7869  0.2036
  198DOPC  H16Y24617   5.717   6.515   6.131  0.2929 -1.9064 -0.1977
  198DOPC  C31724618   5.578   6.680   6.189  0.2946  0.1326  0.5089
  198DOPC  H17X24619   5.582   6.711   6.082 -0.1951 -1.1431  0.1036
  198DOPC  H17Y24620   5.473   6.682   6.223  0.5370 -0.4410  1.3355
  198DOPC  C31824621   5.668   6.780   6.268  0.4876  0.0558 -0.4300
  198DOPC  H18X24622   5.776   6.771   6.244  0.9148  1.5732  0.7196
  198DOPC  H18Y24623   5.640   6.883   6.237 -1.9156 -1.2553 -3.0471
  198DOPC  H18Z24624   5.655   6.777   6.379  1.4861  0.6736 -0.2869
  199DOPC     N24625   5.738   6.821   4.160 -0.5329 -0.6409  0.0565
  199DOPC   C1224626   5.633   6.852   4.265 -0.1872 -0.7236 -0.3032
  199DOPC  H12A24627   5.597   6.954   4.262  0.4957 -0.4468  0.4125
  199DOPC  H12B24628   5.681   6.839   4.361 -2.7151 -0.2077  1.1013
  199DOPC   C1324629   5.873   6.888   4.166 -0.4500  0.1594 -0.1430
  199DOPC  H13A24630   5.868   6.996   4.168 -0.6723  0.1686 -0.8963
  199DOPC  H13B24631   5.925   6.856   4.255  1.6381 -0.0243 -1.3669
  199DOPC  H13C24632   5.928   6.871   4.074 -0.4571  0.8633 -0.2855
  199DOPC   C1424633   5.684   6.855   4.020 -0.5494  0.2520 -0.0766
  199DOPC  H14A24634   5.738   6.820   3.933  0.0956 -1.0154  0.8004
  199DOPC  H14B24635   5.577   6.840   4.017 -0.4880 -0.3800  0.5723
  199DOPC  H14C24636   5.696   6.961   4.002  0.1659 -0.0988 -1.8756
  199DOPC   C1524637   5.766   6.673   4.149  0.2236 -0.0722  0.3428
  199DOPC  H15A24638   5.858   6.654   4.096  0.3915  0.2365  0.5265
  199DOPC  H15B24639   5.680   6.630   4.098  0.1534  1.1127 -0.5829
  199DOPC  H15C24640   5.775   6.632   4.248  1.8233  1.5069  0.9072
  199DOPC   C1124641   5.495   6.786   4.269 -0.6743  0.6992 -0.2856
  199DOPC  H11A24642   5.514   6.678   4.282 -0.5384  0.8360  0.8423
  199DOPC  H11B24643   5.450   6.833   4.359 -0.7685  0.5752 -0.2687
  199DOPC     P24644   5.332   6.712   4.082  0.0011 -0.2505 -0.4102
  199DOPC   O1324645   5.420   6.595   4.050 -0.4619  0.2657 -0.1245
  199DOPC   O1424646   5.269   6.763   3.960 -0.0394  0.0100  0.0565
  199DOPC   O1224647   5.422   6.820   4.153  0.3349  0.7886 -0.4160
  199DOPC   O1124648   5.223   6.675   4.192  0.1480 -0.0462 -0.1237
  199DOPC    C124649   5.143   6.775   4.252  0.1486  0.3957  0.2333
  199DOPC    HA24650   5.035   6.759   4.227  0.6115 -1.5708 -0.7190
  199DOPC    HB24651   5.172   6.879   4.224  2.0347  0.0242  0.6964
  199DOPC    C224652   5.163   6.770   4.410 -0.0103 -0.0876  0.1255
  199DOPC    HS24653   5.273   6.762   4.426 -0.1236  0.0278  1.0239
  199DOPC   O2124654   5.094   6.654   4.467 -0.1631 -0.7683  0.7131
  199DOPC   C2124655   5.147   6.605   4.585  0.5439 -0.4262 -0.3180
  199DOPC   O2224656   5.251   6.641   4.632  0.5584  0.5970  0.1506
  199DOPC   C2224657   5.054   6.495   4.632 -0.0269 -0.2425  0.5869
  199DOPC   H2R24658   5.091   6.402   4.583  1.2480  0.6479 -0.1919
  199DOPC   H2S24659   4.954   6.508   4.585  0.7425 -1.5884 -1.6152
  199DOPC    C324660   5.106   6.901   4.477  0.6522 -0.2028 -0.2734
  199DOPC    HX24661   4.995   6.896   4.474  0.5811  0.1759  1.1170
  199DOPC    HY24662   5.132   6.998   4.429 -1.1853 -0.3925 -1.8041
  199DOPC   O3124663   5.142   6.902   4.618 -0.3039 -0.1946 -0.1594
  199DOPC   C3124664   5.256   6.959   4.655  0.3096 -0.4004  0.3441
  199DOPC   O3224665   5.328   7.025   4.582  0.2536 -0.3562  0.4262
  199DOPC   C3224666   5.262   6.960   4.807 -0.0314 -0.7084 -0.3005
  199DOPC   H2X24667   5.282   7.064   4.840 -0.0307 -0.7703 -0.1023
  199DOPC   H2Y24668   5.162   6.948   4.853  1.0616 -0.6772  2.2759
  199DOPC   C2324669   5.049   6.482   4.786 -0.1137  0.3753  0.3664
  199DOPC   H3R24670   4.980   6.560   4.827  1.3001  1.8685  0.0298
  199DOPC   H3S24671   5.154   6.502   4.818  0.3545  0.2880 -1.0610
  199DOPC   C2424672   5.007   6.341   4.832  0.6496 -0.2903  0.2507
  199DOPC   H4R24673   5.080   6.257   4.833 -0.9573 -1.7483  0.4351
  199DOPC   H4S24674   4.933   6.306   4.758  1.9530  1.4554 -2.0110
  199DOPC   C2524675   4.949   6.340   4.970  0.2268  0.1242  0.3241
  199DOPC   H5R24676   4.878   6.258   4.997 -0.7944  1.5441  2.2528
  199DOPC   H5S24677   4.887   6.431   4.984 -2.5745 -1.7364  1.0112
  199DOPC   C2624678   5.067   6.340   5.079  0.6608 -0.1073 -0.7593
  199DOPC   H6R24679   5.131   6.431   5.068  0.8331 -0.0490  0.5305
  199DOPC   H6S24680   5.112   6.240   5.065  0.6188 -0.5092  1.5654
  199DOPC   C2724681   5.008   6.351   5.226 -0.3578 -0.6923  0.5836
  199DOPC   H7R24682   4.928   6.274   5.231 -1.6317  0.3758 -1.6745
  199DOPC   H7S24683   4.968   6.454   5.231  0.2136 -0.4049 -0.4791
  199DOPC   C2824684   5.114   6.325   5.329  0.2927  0.2875 -0.3923
  199DOPC   H8R24685   5.209   6.358   5.280 -0.9408  0.8835 -2.5172
  199DOPC   H8S24686   5.132   6.217   5.346  2.4629  1.1545  4.5104
  199DOPC   C2924687   5.095   6.395   5.461  1.1437  0.0536 -0.0409
  199DOPC   H9R24688   5.120   6.502   5.460  0.5711  0.1865  0.0581
  199DOPC  C21024689   5.023   6.344   5.568 -0.5342 -0.7213 -0.3557
  199DOPC  H10R24690   5.036   6.400   5.662 -0.9119  0.9788 -1.2725
  199DOPC  C21124691   4.972   6.205   5.570  0.1075 -0.1409 -0.8580
  199DOPC  H11R24692   5.041   6.133   5.521  0.1927 -1.3051  0.9052
  199DOPC  H11S24693   4.882   6.201   5.504 -0.0699  1.8060 -0.7987
  199DOPC  C21224694   4.942   6.153   5.719 -0.3785  0.3840  1.1743
  199DOPC  H12R24695   4.863   6.219   5.762 -1.4077 -0.5241  0.7119
  199DOPC  H12S24696   5.033   6.175   5.778 -1.6482  1.0171  3.0202
  199DOPC  C21324697   4.911   6.007   5.716  0.9185 -0.1827 -0.1218
  199DOPC  H13R24698   5.005   5.954   5.689 -0.7314 -2.5091 -1.7708
  199DOPC  H13S24699   4.833   5.995   5.637  0.5557 -0.4762  0.2734
  199DOPC  C21424700   4.854   5.966   5.854  0.0281 -0.7485  0.3649
  199DOPC  H14R24701   4.745   5.989   5.860  0.3694  1.1371 -0.0110
  199DOPC  H14S24702   4.907   6.033   5.925 -1.5318  0.1907  0.7090
  199DOPC  C21524703   4.875   5.816   5.898 -0.0455 -0.4818  0.0009
  199DOPC  H15R24704   4.981   5.785   5.909 -0.6292 -2.6042  0.1126
  199DOPC  H15S24705   4.831   5.752   5.819 -1.4462  1.0925 -0.5451
  199DOPC  C21624706   4.786   5.777   6.022 -0.8151 -0.4356  0.3087
  199DOPC  H16R24707   4.796   5.670   6.049  0.4292 -1.4148 -3.4026
  199DOPC  H16S24708   4.677   5.786   5.998 -0.3166  0.5994 -1.8688
  199DOPC  C21724709   4.816   5.873   6.143 -0.2049  0.3073  0.8970
  199DOPC  H17R24710   4.736   5.855   6.219 -1.8392  0.6754 -0.6775
  199DOPC  H17S24711   4.803   5.975   6.104  1.8092 -0.2928 -1.5470
  199DOPC  C21824712   4.951   5.846   6.203  0.4776 -0.0956 -0.3277
  199DOPC  H18R24713   4.968   5.924   6.280  1.6853  0.4133 -1.0741
  199DOPC  H18S24714   5.036   5.853   6.132  2.5490  0.4290  2.0311
  199DOPC  H18T24715   4.955   5.747   6.253  0.9551  1.0482  2.0759
  199DOPC   C3324716   5.377   6.876   4.857 -0.4478  0.3013  0.1876
  199DOPC   H3X24717   5.470   6.902   4.801 -1.1199  3.0724  0.2060
  199DOPC   H3Y24718   5.358   6.767   4.851 -0.4100  0.3629 -2.3504
  199DOPC   C3424719   5.417   6.925   4.999  0.1577 -0.1118 -0.3659
  199DOPC   H4X24720   5.461   7.027   4.998  0.9792 -0.4624 -1.1693
  199DOPC   H4Y24721   5.501   6.861   5.033 -0.0567 -0.3999 -0.3773
  199DOPC   C3524722   5.310   6.925   5.104  0.1625 -0.4246  0.3358
  199DOPC   H5X24723   5.225   6.864   5.067 -1.0996  0.2334  2.0589
  199DOPC   H5Y24724   5.281   7.031   5.116 -0.4779 -0.3816 -1.3948
  199DOPC   C3624725   5.356   6.864   5.238 -0.0889 -0.4172 -0.6268
  199DOPC   H6X24726   5.393   6.760   5.227 -1.5472 -0.9271 -1.0248
  199DOPC   H6Y24727   5.443   6.924   5.273 -1.0748  1.4197 -1.1738
  199DOPC   C3724728   5.252   6.888   5.352 -0.2505  0.5492 -0.0287
  199DOPC   H7X24729   5.189   6.977   5.331 -3.1469 -0.8146  2.0900
  199DOPC   H7Y24730   5.186   6.799   5.342  2.4239 -1.7719  1.1898
  199DOPC   C3824731   5.314   6.893   5.493  0.3024 -0.0046  0.3035
  199DOPC   H8X24732   5.251   6.934   5.576 -1.7983 -2.8395  0.2465
  199DOPC   H8Y24733   5.406   6.954   5.487  0.0085  0.3275 -1.2143
  199DOPC   C3924734   5.358   6.760   5.528 -0.2307 -0.0056  0.3825
  199DOPC   H9X24735   5.447   6.720   5.476 -1.8167 -0.2836 -2.3457
  199DOPC  C31024736   5.307   6.676   5.621 -0.4766 -0.4840 -0.4942
  199DOPC  H10X24737   5.366   6.585   5.637  0.3532  0.1494  0.1972
  199DOPC  C31124738   5.186   6.695   5.712 -0.0045 -0.1292 -0.2581
  199DOPC  H11X24739   5.101   6.625   5.697 -0.3615  0.2243  0.0797
  199DOPC  H11Y24740   5.137   6.793   5.695  1.8831  1.1251  1.1195
  199DOPC  C31224741   5.217   6.682   5.862 -0.8655  0.5971  0.8356
  199DOPC  H12X24742   5.312   6.730   5.894 -0.4202  0.8572 -0.7726
  199DOPC  H12Y24743   5.242   6.579   5.894 -0.3444 -0.7839 -3.3676
  199DOPC  C31324744   5.106   6.731   5.962  0.0838 -0.0774 -0.8559
  199DOPC  H13X24745   5.092   6.840   5.945  0.1525  0.1697  0.5715
  199DOPC  H13Y24746   5.014   6.676   5.934 -0.0475  0.1065 -0.7863
  199DOPC  C31424747   5.139   6.714   6.117  0.3845  0.8260 -0.3807
  199DOPC  H14X24748   5.147   6.606   6.144 -1.1765  0.2178 -2.1305
  199DOPC  H14Y24749   5.240   6.757   6.131  1.1161 -0.8022 -0.4447
  199DOPC  C31524750   5.042   6.783   6.207  1.1954 -0.2506  0.1035
  199DOPC  H15X24751   5.056   6.733   6.306  0.4811  0.8871  0.8083
  199DOPC  H15Y24752   4.942   6.751   6.170  1.9297 -2.2684 -0.2597
  199DOPC  C31624753   5.049   6.932   6.215  0.1775  1.1301  0.1840
  199DOPC  H16X24754   5.152   6.964   6.244  0.0941  1.0874  0.5286
  199DOPC  H16Y24755   5.016   6.978   6.120 -0.3098  1.2048  0.3872
  199DOPC  C31724756   4.958   6.989   6.331  0.2135  0.6443  0.2843
  199DOPC  H17X24757   4.853   6.963   6.305  0.3786 -0.7278  0.9207
  199DOPC  H17Y24758   4.984   6.936   6.425  1.9647  2.2828  0.7911
  199DOPC  C31824759   4.967   7.137   6.345  0.0757  1.5680  0.0501
  199DOPC  H18X24760   4.909   7.162   6.437 -1.9036 -0.8645 -0.4315
  199DOPC  H18Y24761   5.072   7.172   6.359 -0.1016  2.2276 -0.2322
  199DOPC  H18Z24762   4.923   7.176   6.251 -1.1468 -0.8821 -0.4618
  200DOPC     N24763   1.434   0.739   3.989  0.8639  0.7635  0.3081
  200DOPC   C1224764   1.449   0.659   3.859  0.0542  0.4545 -0.4206
  200DOPC  H12A24765   1.549   0.655   3.816  0.4873 -2.3464  0.6654
  200DOPC  H12B24766   1.388   0.711   3.786 -1.2703  0.4397  0.6536
  200DOPC   C1324767   1.541   0.700   4.082  0.4423  0.3754 -0.2713
  200DOPC  H13A24768   1.535   0.763   4.170  2.1833  0.9506 -0.5218
  200DOPC  H13B24769   1.529   0.594   4.102 -1.4728  0.8629  1.5148
  200DOPC  H13C24770   1.640   0.727   4.049  0.2835  1.0274 -0.2145
  200DOPC   C1424771   1.298   0.715   4.055 -0.1113  0.6041  0.7466
  200DOPC  H14A24772   1.222   0.783   4.019  1.2216  1.2854 -0.9113
  200DOPC  H14B24773   1.278   0.609   4.045 -0.1889  0.5848  1.0898
  200DOPC  H14C24774   1.309   0.733   4.161  2.5126  2.6348  0.2364
  200DOPC   C1524775   1.438   0.881   3.961  0.6709 -0.3103  0.4185
  200DOPC  H15A24776   1.347   0.921   3.919  1.6076 -0.2582 -1.7334
  200DOPC  H15B24777   1.511   0.914   3.888 -0.6572 -0.7961 -1.1868
  200DOPC  H15C24778   1.445   0.947   4.046 -1.4588  0.2914  0.1746
  200DOPC   C1124779   1.408   0.513   3.861 -0.2656 -0.1115  0.0766
  200DOPC  H11A24780   1.300   0.506   3.884 -0.2163 -1.8737 -0.1033
  200DOPC  H11B24781   1.421   0.472   3.758 -2.1152 -2.8410  0.7995
  200DOPC     P24782   1.616   0.370   3.938  0.0499 -0.4842  0.2883
  200DOPC   O1324783   1.678   0.454   3.828  0.1175 -0.0695  0.2216
  200DOPC   O1424784   1.602   0.223   3.918 -0.3860 -0.2681 -0.1208
  200DOPC   O1224785   1.467   0.426   3.958 -0.1207  0.1660 -0.2384
  200DOPC   O1124786   1.684   0.408   4.078  0.3175 -0.1941  0.1240
  200DOPC    C124787   1.651   0.328   4.192  0.2572  0.8993 -0.1648
  200DOPC    HA24788   1.736   0.256   4.198  0.5018  1.2187  0.2987
  200DOPC    HB24789   1.567   0.255   4.182  1.5436 -0.6868  0.1102
  200DOPC    C224790   1.639   0.404   4.332 -0.7221  0.2961  0.5719
  200DOPC    HS24791   1.560   0.482   4.332 -0.7477  0.2714  1.0524
  200DOPC   O2124792   1.771   0.456   4.358  0.1177 -0.4516  0.2786
  200DOPC   C2124793   1.770   0.549   4.440 -0.3263  0.1862  0.8107
  200DOPC   O2224794   1.675   0.615   4.483 -0.4572  0.4122 -0.3796
  200DOPC   C2224795   1.908   0.568   4.492  0.1574 -0.1868 -0.2764
  200DOPC   H2R24796   1.936   0.668   4.531  0.0094  0.5621 -1.9738
  200DOPC   H2S24797   1.974   0.554   4.403 -2.1221 -3.0725 -1.6978
  200DOPC    C324798   1.613   0.301   4.451 -0.2367 -0.4510  0.1064
  200DOPC    HX24799   1.697   0.228   4.444  0.4555  0.3192  0.1972
  200DOPC    HY24800   1.523   0.243   4.422  1.1085 -1.9049 -1.4551
  200DOPC   O3124801   1.589   0.360   4.585 -0.5569 -0.0104 -0.1319
  200DOPC   C3124802   1.468   0.407   4.609  0.6838 -0.1001 -0.4621
  200DOPC   O3224803   1.382   0.438   4.528  0.1426 -0.2012 -0.4565
  200DOPC   C3224804   1.446   0.422   4.760 -0.5670 -0.2701  0.5930
  200DOPC   H2X24805   1.462   0.328   4.816 -1.2209 -0.4984  0.4121
  200DOPC   H2Y24806   1.518   0.503   4.784 -0.9282  0.7115 -1.3767
  200DOPC   C2324807   1.949   0.464   4.599  0.0343  0.1164  0.2286
  200DOPC   H3R24808   2.058   0.469   4.623 -0.4161  0.8760  2.4290
  200DOPC   H3S24809   1.946   0.360   4.562 -0.5859  0.5845 -1.0780
  200DOPC   C2424810   1.869   0.495   4.723  0.5306  0.0767 -0.2232
  200DOPC   H4R24811   1.760   0.488   4.703  0.2313 -0.0930  1.3010
  200DOPC   H4S24812   1.888   0.599   4.757 -0.4521 -0.2035  1.2653
  200DOPC   C2524813   1.911   0.402   4.842  0.0474 -0.2509  0.0739
  200DOPC   H5R24814   2.021   0.403   4.855 -0.2349 -1.4144  3.3552
  200DOPC   H5S24815   1.879   0.299   4.816 -1.3589  0.4731 -1.2781
  200DOPC   C2624816   1.844   0.449   4.966 -0.4532  0.6023 -0.0233
  200DOPC   H6R24817   1.742   0.476   4.933  0.0106 -0.4151 -2.5176
  200DOPC   H6S24818   1.896   0.540   5.005 -0.8795  1.4708 -1.4143
  200DOPC   C2724819   1.847   0.339   5.067 -0.4019 -0.1321 -1.0175
  200DOPC   H7R24820   1.950   0.320   5.102 -1.2395  0.8126  2.3280
  200DOPC   H7S24821   1.819   0.244   5.018  0.2850 -1.0881  0.3860
  200DOPC   C2824822   1.754   0.354   5.186 -0.3670  0.3424  0.5055
  200DOPC   H8R24823   1.786   0.439   5.251  0.4355 -0.9563  1.8766
  200DOPC   H8S24824   1.764   0.272   5.259 -4.8228 -0.1028  0.8333
  200DOPC   C2924825   1.609   0.354   5.148 -0.5229  0.2220 -0.4864
  200DOPC   H9R24826   1.582   0.314   5.049 -1.1828  2.7780 -1.4112
  200DOPC  C21024827   1.502   0.393   5.221 -0.1947 -0.1282  0.5363
  200DOPC  H10R24828   1.402   0.388   5.175  0.5734 -2.7763 -1.0526
  200DOPC  C21124829   1.513   0.450   5.359  0.1611  0.3266  0.4612
  200DOPC  H11R24830   1.447   0.539   5.352 -1.0775 -0.6525 -1.0523
  200DOPC  H11S24831   1.616   0.475   5.391  0.6836 -1.5071  0.3222
  200DOPC  C21224832   1.457   0.354   5.471  0.5273  0.1704 -0.2865
  200DOPC  H12R24833   1.527   0.268   5.474  1.2831  0.7868  1.0251
  200DOPC  H12S24834   1.356   0.318   5.442  1.4568 -2.5215 -0.3607
  200DOPC  C21324835   1.448   0.420   5.611 -0.4766  0.0174  0.1995
  200DOPC  H13R24836   1.399   0.520   5.604 -0.3344  0.0742  0.0121
  200DOPC  H13S24837   1.547   0.433   5.659 -1.1034  1.9177  1.0850
  200DOPC  C21424838   1.383   0.318   5.703 -0.6217  0.1963 -0.3045
  200DOPC  H14R24839   1.445   0.227   5.718  0.0115  0.8370  1.1859
  200DOPC  H14S24840   1.288   0.276   5.663 -1.3468  1.1019  0.4277
  200DOPC  C21524841   1.341   0.377   5.841 -0.1070  0.4161 -0.3239
  200DOPC  H15R24842   1.279   0.465   5.813  0.3294  0.0660 -2.5259
  200DOPC  H15S24843   1.438   0.407   5.888  1.0809 -1.2783 -1.5542
  200DOPC  C21624844   1.273   0.269   5.929 -0.5838 -0.4947 -0.1282
  200DOPC  H16R24845   1.328   0.173   5.940  0.2708 -0.1524 -1.2245
  200DOPC  H16S24846   1.180   0.250   5.871  0.1266  0.1556 -1.5298
  200DOPC  C21724847   1.237   0.315   6.071 -0.1488  0.0318  0.1767
  200DOPC  H17R24848   1.320   0.354   6.133  1.4803 -0.6975 -1.4712
  200DOPC  H17S24849   1.187   0.230   6.122  0.3094 -1.2846 -1.4755
  200DOPC  C21824850   1.124   0.422   6.065  0.8217 -0.1559 -0.1661
  200DOPC  H18R24851   1.160   0.506   6.001 -2.2901 -0.1637 -2.1575
  200DOPC  H18S24852   1.103   0.453   6.170 -1.3216 -1.1157 -0.2630
  200DOPC  H18T24853   1.033   0.384   6.014  0.5320 -2.5868  1.9760
  200DOPC   C3324854   1.297   0.465   4.784 -0.1297 -0.2885  0.0064
  200DOPC   H3X24855   1.229   0.399   4.726 -0.2757  0.0394 -0.1988
  200DOPC   H3Y24856   1.280   0.571   4.758  0.1714 -0.5034 -1.1227
  200DOPC   C3424857   1.263   0.455   4.932 -0.4893  0.0838  0.5072
  200DOPC   H4X24858   1.315   0.534   4.989  0.1991 -0.3966  0.5515
  200DOPC   H4Y24859   1.307   0.363   4.974 -1.0006  1.1165  3.5165
  200DOPC   C3524860   1.119   0.448   4.965  0.2722  0.0296  0.1064
  200DOPC   H5X24861   1.079   0.347   4.941  3.6343 -0.9112 -2.3393
  200DOPC   H5Y24862   1.063   0.525   4.907  1.6433  1.8004  1.0285
  200DOPC   C3624863   1.090   0.476   5.116 -0.0241  0.3040 -0.0612
  200DOPC   H6X24864   1.133   0.402   5.187 -1.5737  1.3681  2.1008
  200DOPC   H6Y24865   1.131   0.572   5.154 -0.2130 -0.0540  1.0954
  200DOPC   C3724866   0.937   0.459   5.144  0.7545  0.5768  0.3484
  200DOPC   H7X24867   0.876   0.503   5.062 -1.7059  0.8715  2.2083
  200DOPC   H7Y24868   0.915   0.352   5.128 -0.5146  0.8769 -0.0778
  200DOPC   C3824869   0.879   0.489   5.279  0.3585 -0.3343 -0.2725
  200DOPC   H8X24870   0.770   0.474   5.265  0.5186 -1.9983  0.0513
  200DOPC   H8Y24871   0.892   0.595   5.309 -2.2561  0.2150 -0.8044
  200DOPC   C3924872   0.939   0.391   5.371 -0.0746 -0.1802 -0.3257
  200DOPC   H9X24873   0.958   0.297   5.316  0.5860 -1.1509  1.4439
  200DOPC  C31024874   0.954   0.390   5.506  0.0781  0.0672 -0.4398
  200DOPC  H10X24875   1.001   0.301   5.550 -0.9345 -0.5361 -0.5507
  200DOPC  C31124876   0.900   0.502   5.600 -0.5577  0.5736  0.7037
  200DOPC  H11X24877   0.816   0.564   5.561 -0.0969  2.0180  1.9100
  200DOPC  H11Y24878   0.979   0.573   5.632  1.3594 -1.7518  1.3824
  200DOPC  C31224879   0.848   0.418   5.721  0.3011  0.1635 -0.5421
  200DOPC  H12X24880   0.933   0.355   5.756 -0.7077 -0.8930  0.0915
  200DOPC  H12Y24881   0.761   0.355   5.693 -1.0522  1.9613 -0.5181
  200DOPC  C31324882   0.806   0.507   5.841 -0.4101  0.3336  0.2482
  200DOPC  H13X24883   0.887   0.577   5.870  0.1277  0.4157 -1.3494
  200DOPC  H13Y24884   0.716   0.566   5.810 -2.6710 -2.3304  1.3201
  200DOPC  C31424885   0.757   0.426   5.961 -0.0877  0.0883  0.1266
  200DOPC  H14X24886   0.676   0.362   5.920 -1.4530  2.3042 -0.7910
  200DOPC  H14Y24887   0.839   0.356   5.989  0.5876  0.4358 -0.9225
  200DOPC  C31524888   0.710   0.504   6.087  0.2634 -0.1505 -0.0370
  200DOPC  H15X24889   0.678   0.436   6.168 -2.1491  2.5435  1.4634
  200DOPC  H15Y24890   0.620   0.558   6.049 -1.2800 -2.2630  0.4815
  200DOPC  C31624891   0.808   0.605   6.147  0.2136 -0.2095 -0.2442
  200DOPC  H16X24892   0.887   0.540   6.190 -1.9465 -1.8171  1.5570
  200DOPC  H16Y24893   0.862   0.672   6.077 -1.3359 -0.8549 -2.1578
  200DOPC  C31724894   0.746   0.678   6.265 -0.5940  0.0343  0.8415
  200DOPC  H17X24895   0.707   0.604   6.338  0.1265  0.7402  1.9820
  200DOPC  H17Y24896   0.829   0.736   6.312 -0.2750  1.1496 -1.0065
  200DOPC  C31824897   0.632   0.779   6.221  0.3877  0.2265  0.2212
  200DOPC  H18X24898   0.677   0.867   6.172 -0.8257 -0.5443 -2.4512
  200DOPC  H18Y24899   0.567   0.738   6.140  1.4577 -1.1276  0.0039
  200DOPC  H18Z24900   0.574   0.818   6.308 -0.6231 -0.5173 -0.0955
  201SOD    SOD24901   0.660   4.624  11.251  0.1493  0.4064 -0.9733
  202SOD    SOD24902   2.928   3.581   1.948  0.3700 -0.4067 -0.2577
  203SOD    SOD24903   6.202   5.492  10.634  0.3563  0.1544 -0.0583
  204SOD    SOD24904   5.066   3.734   2.820 -0.1810 -0.0666 -0.8724
  205SOD    SOD24905   5.110   1.846  10.190 -0.3285 -0.4307 -0.4259
  206SOD    SOD24906   1.088   2.129   2.230  0.5843  0.4303 -0.2498
  207SOD    SOD24907   5.973   1.398   1.963 -0.1581 -0.0684  0.2773
  208SOD    SOD24908   5.339   3.936  10.234 -0.0709 -0.4041 -0.0423
  209SOD    SOD24909   1.839   1.258   1.195 -0.0536 -0.1864  0.1784
  210SOD    SOD24910   2.392   5.796   8.382 -0.3372 -0.0676  0.7284
  211SOD    SOD24911   2.114   2.959  10.101 -0.1536 -0.1393 -0.0969
  212SOD    SOD24912   5.495   4.312   8.817 -0.2120  0.3465 -0.7203
  213SOD    SOD24913   3.774   1.503   2.682  0.2062  0.1606 -0.0645
  214SOD    SOD24914   3.296   4.838   8.686  0.2554  0.0821 -0.0226
  215SOD    SOD24915   2.898   4.253   8.250  0.1256 -0.2027  0.0594
  216SOD    SOD24916   4.945   3.340   9.527  0.0513 -0.0760  0.1720
  217SOD    SOD24917   5.011   2.746   4.043  0.0183 -0.0223 -0.2883
  218SOD    SOD24918   1.565   0.193   8.711 -0.1266 -0.5958  0.5885
  219SOD    SOD24919   4.970   2.125  11.036  0.2270  0.6261 -0.4271
  220SOD    SOD24920   1.653   3.966   1.604  0.4010  0.3186  0.1612
  221SOD    SOD24921   1.403   5.973   2.487  0.7487  0.2720 -0.4724
  222SOD    SOD24922   6.283   4.970   9.834 -0.0912 -0.2162 -0.3667
  223SOD    SOD24923   6.732   0.883   3.151 -0.1585 -0.1532  0.1841
  224SOD    SOD24924   4.899   5.207   2.018  0.3590 -0.4243  0.2894
  225SOD    SOD24925   3.469   6.037   3.320  0.3271  0.1879  0.4765
  226SOD    SOD24926   2.253   1.088   9.880  0.2009 -0.2094  0.2509
  227CLA    CLA24927   3.865   5.443   1.616 -0.2635  0.1753 -0.0764
  228CLA    CLA24928   1.896   6.088   2.135  0.1283 -0.0743  0.4813
  229CLA    CLA24929   1.370   3.504   1.639 -0.0998 -0.0276  0.0919
  230CLA    CLA24930   2.682   2.683  11.061 -0.3542 -0.6759  0.6765
  231CLA    CLA24931   3.476   1.622  11.205 -0.2125  0.2103  0.1259
  232CLA    CLA24932   6.794   0.189  10.753  0.1015 -0.2725 -0.0468
  233CLA    CLA24933   5.677   3.858   9.123 -0.6052 -0.1253 -0.1633
  234CLA    CLA24934   4.036   4.936   8.931 -0.2078 -0.0632 -0.3544
  235CLA    CLA24935   4.230   1.047   1.487 -0.0512  0.2926  0.1783
  236CLA    CLA24936   5.621   4.608  10.250  0.0327  0.1612  0.3561
  237CLA    CLA24937   4.589   1.417  11.284  0.3621 -0.0344 -0.0509
  238CLA    CLA24938   4.632   2.693   2.664  0.6156 -0.0654  0.4884
  239CLA    CLA24939   0.623   3.329   1.736 -0.0953 -0.1792 -0.1717
  240CLA    CLA24940   0.454   3.985   9.570  0.0021 -0.1454 -0.6280
  241CLA    CLA24941   6.074   1.059   3.339 -0.1432 -0.1597 -0.0339
  242CLA    CLA24942   1.313   6.321  10.401 -0.2485  0.1862 -0.6600
  243CLA    CLA24943   4.076   3.554   2.455  0.0401 -0.3153  0.1131
  244CLA    CLA24944   6.063   3.274   1.129 -0.3215 -0.2064  0.5571
  245CLA    CLA24945   1.798   1.252   1.661 -0.1613  0.3613 -0.1018
  246CLA    CLA24946   3.208   3.907  11.086  0.3168 -0.6744  0.0442
  247CLA    CLA24947   4.225   0.854   2.067  0.4287 -0.1291 -0.3779
  248CLA    CLA24948   4.962   3.813   1.595  0.7002 -0.2701 -0.3528
  249CLA    CLA24949   1.414   3.015   2.153 -0.3336 -0.2797  0.2459
  250CLA    CLA24950   4.660   4.189  11.236 -0.2855 -0.0671  0.0606
  251CLA    CLA24951   5.986   2.651   9.527 -0.2607  0.2324 -0.1955
  252CLA    CLA24952   2.186   3.907   3.331 -0.0842 -0.0579  0.2402
  253TIP3   OH224953   0.043   0.655   8.554 -0.2666 -0.2952  0.4571
  253TIP3    H124954   0.066   0.608   8.634  1.1037  0.2901  0.4390
  253TIP3    H224955  -0.018   0.597   8.508  0.6948 -1.6540  0.8429
  254TIP3   OH224956   1.098   6.346  10.171 -0.1507  0.1060  0.0156
  254TIP3    H124957   1.151   6.401  10.114  0.5433 -2.4054 -1.9222
  254TIP3    H224958   1.145   6.345  10.254  1.1200  0.5054 -0.6833
  255TIP3   OH224959   4.430   4.560  10.672  0.1461 -0.7191  0.0285
  255TIP3    H124960   4.463   4.502  10.603  0.9917 -0.0190 -0.1720
  255TIP3    H224961   4.386   4.631  10.625  0.5251 -0.3591  0.2049
  256TIP3   OH224962   5.487   2.681  11.101 -0.5047 -0.1728  0.0578
  256TIP3    H124963   5.504   2.683  11.007  0.8544 -0.4787  0.2647
  256TIP3    H224964   5.420   2.613  11.112 -1.8363  0.9491 -0.8206
  257TIP3   OH224965   4.060   6.579   9.098  0.2154  0.2597 -0.1062
  257TIP3    H124966   4.003   6.502   9.101 -0.0080  0.3412 -1.7690
  257TIP3    H224967   4.089   6.590   9.189 -1.0227 -0.8131  0.4516
  258TIP3   OH224968   3.228   5.131  11.686 -0.6287 -0.3297 -0.0134
  258TIP3    H124969   3.222   5.154  11.593  1.7865  1.2136  0.1235
  258TIP3    H224970   3.213   5.214  11.732  1.3437 -0.3743  0.7949
  259TIP3   OH224971   4.967   4.885  10.036 -0.1732 -0.2424  0.4015
  259TIP3    H124972   4.955   4.980  10.046  0.0704 -0.3167  1.5165
  259TIP3    H224973   4.912   4.862   9.962 -1.0118  0.6190  0.7350
  260TIP3   OH224974   0.239   5.411   9.874  0.5327  0.1933 -0.5827
  260TIP3    H124975   0.174   5.439   9.939 -1.0511  1.6496 -2.6714
  260TIP3    H224976   0.323   5.443   9.908  0.3284 -1.8940  2.2644
  261TIP3   OH224977   4.058   2.485   9.114 -0.0473 -0.1557 -0.1841
  261TIP3    H124978   3.979   2.437   9.090  0.0490 -0.4537  0.0803
  261TIP3    H224979   4.042   2.515   9.204 -0.1359  0.3742 -0.3749
  262TIP3   OH224980   2.667   5.020   9.817 -0.0650 -0.4384 -0.0265
  262TIP3    H124981   2.706   4.935   9.837 -0.7214 -0.7677 -0.0963
  262TIP3    H224982   2.692   5.038   9.727  2.6318  0.8974  0.8906
  263TIP3   OH224983   6.710   0.602  10.526 -0.5611 -0.2326  0.4385
  263TIP3    H124984   6.630   0.567  10.565 -0.9483  0.1721  0.0192
  263TIP3    H224985   6.680   0.652  10.450  0.1500 -0.6855 -0.1521
  264TIP3   OH224986   0.820   2.976  11.159  0.7761 -0.1149 -0.3374
  264TIP3    H124987   0.850   2.994  11.248 -0.1666 -1.3298  0.2569
  264TIP3    H224988   0.757   2.904  11.168  2.7786 -2.3092 -2.2898
  265TIP3   OH224989   0.725   0.199  10.246 -0.4913 -0.4699  0.0851
  265TIP3    H124990   0.813   0.225  10.219 -0.9581  1.3381  0.1634
  265TIP3    H224991   0.732   0.106  10.265  1.2429 -0.5062 -0.5499
  266TIP3   OH224992   2.183   2.314  11.181 -0.1916  0.2079 -0.5609
  266TIP3    H124993   2.263   2.283  11.222  0.9968  1.2162 -1.9920
  266TIP3    H224994   2.184   2.276  11.093 -1.4521 -0.0082 -0.5094
  267TIP3   OH224995   0.144   2.808  10.959  0.1857  0.4966 -0.1817
  267TIP3    H124996   0.087   2.749  10.908  1.2435 -0.2065 -0.5900
  267TIP3    H224997   0.215   2.830  10.899  0.9269  0.4672  0.6660
  268TIP3   OH224998   0.830   2.994   9.291  0.0258  0.3044  0.5354
  268TIP3    H124999   0.907   2.938   9.279 -0.2655  0.0327 -0.1238
  268TIP3    H225000   0.823   3.044   9.209 -0.6284  0.1645  0.4974
  269TIP3   OH225001   3.617   0.664   9.726 -0.7873  0.4274 -0.2918
  269TIP3    H125002   3.619   0.661   9.630 -1.5528  0.5611 -0.3205
  269TIP3    H225003   3.691   0.610   9.753 -1.8056 -1.3866 -0.9352
  270TIP3   OH225004   4.527   6.663   9.811  0.4594 -0.1923 -0.0826
  270TIP3    H125005   4.475   6.649   9.732 -0.5193 -1.5150  0.7434
  270TIP3    H225006   4.577   6.582   9.821 -1.7099 -1.3825  2.2397
  271TIP3   OH225007   1.108   1.108  11.753 -0.1831  0.1653  0.0789
  271TIP3    H125008   1.015   1.119  11.773  0.4563  0.1433  3.7824
  271TIP3    H225009   1.151   1.179  11.801  1.8267 -0.8121 -0.1756
  272TIP3   OH225010   1.340   0.831   9.806  0.5601 -0.3448  0.0224
  272TIP3    H125011   1.361   0.739   9.819 -0.8687 -0.6207  0.5153
  272TIP3    H225012   1.324   0.839   9.712  0.9622 -0.5295 -0.0636
  273TIP3   OH225013   2.683   0.042   8.630 -0.1825  0.0069  0.4108
  273TIP3    H125014   2.701   0.020   8.721  1.0792 -0.0656  0.1522
  273TIP3    H225015   2.768   0.059   8.591 -0.7987  1.5161 -0.3920
  274TIP3   OH225016   0.874   4.959   8.625  0.0363  0.3353  0.6432
  274TIP3    H125017   0.881   4.908   8.706 -0.8462  0.7511  0.9942
  274TIP3    H225018   0.961   4.952   8.585  0.0484 -1.1230  0.8607
  275TIP3   OH225019   5.398   6.665  11.556  0.2057  0.0901 -0.3207
  275TIP3    H125020   5.363   6.732  11.615 -1.0002 -0.3091 -0.5496
  275TIP3    H225021   5.437   6.714  11.484 -0.2486  0.5543 -0.2518
  276TIP3   OH225022   5.133   3.398  10.383 -0.4611  0.2162  0.5921
  276TIP3    H125023   5.170   3.386  10.470  0.8245 -0.2417  0.0223
  276TIP3    H225024   5.083   3.479  10.388  1.0678  1.1623  1.3041
  277TIP3   OH225025   5.107   6.817   9.370 -0.4656  0.0510 -0.6141
  277TIP3    H125026   5.021   6.790   9.340  0.0161 -0.0748 -1.9731
  277TIP3    H225027   5.112   6.910   9.349 -0.2209  0.0204 -0.7042
  278TIP3   OH225028   1.854   5.110  10.980  0.3545  0.3213  0.2292
  278TIP3    H125029   1.883   5.055  11.052 -2.0571  1.4460  2.2202
  278TIP3    H225030   1.882   5.198  11.005 -0.7372  0.7583 -0.0516
  279TIP3   OH225031   0.606   0.060  11.709  0.5372 -0.0867  0.3235
  279TIP3    H125032   0.651   0.136  11.746  0.0815  0.3878 -0.0814
  279TIP3    H225033   0.519   0.092  11.686  0.4587 -0.6393 -0.1853
  280TIP3   OH225034   3.150   0.307   9.778 -0.1949 -0.0452 -0.1405
  280TIP3    H125035   3.204   0.228   9.776  0.2769  0.2370  0.7766
  280TIP3    H225036   3.211   0.378   9.798 -1.1207 -0.0083  3.2448
  281TIP3   OH225037   0.535   2.561  11.380 -0.2076  0.2497 -0.5112
  281TIP3    H125038   0.524   2.478  11.428 -0.8909  0.9171  0.5308
  281TIP3    H225039   0.446   2.594  11.371  0.1991  1.8552  0.8931
  282TIP3   OH225040   2.869   6.495   9.437  0.1725 -0.3607 -0.3111
  282TIP3    H125041   2.818   6.575   9.427 -0.5446 -0.6135  1.0639
  282TIP3    H225042   2.953   6.524   9.471 -0.2847 -0.2180  0.7333
  283TIP3   OH225043   0.448   4.999  11.706 -0.1915  0.4568 -0.2853
  283TIP3    H125044   0.520   4.962  11.757 -0.7170  1.2690  1.0921
  283TIP3    H225045   0.394   4.923  11.683  0.5655 -0.0347 -0.4846
  284TIP3   OH225046   2.203   0.606   4.086  0.5857  0.6167 -0.1483
  284TIP3    H125047   2.117   0.565   4.093  0.2691  1.2925  0.0244
  284TIP3    H225048   2.259   0.556   4.146  0.6346 -0.6158 -1.1935
  285TIP3   OH225049   5.111   5.890   1.460  0.1701 -0.2924  0.2363
  285TIP3    H125050   5.074   5.832   1.394  1.9995 -0.9565 -0.2669
  285TIP3    H225051   5.039   5.949   1.484 -1.3866 -1.9767 -0.1218
  286TIP3   OH225052   2.094   3.297   2.896  0.6140 -0.2112  0.2128
  286TIP3    H125053   2.186   3.320   2.881  0.2630  0.9761 -0.1688
  286TIP3    H225054   2.090   3.277   2.990  1.2114 -0.0177  0.2856
  287TIP3   OH225055   3.318   4.490   3.073  0.0335 -0.8250  0.3462
  287TIP3    H125056   3.371   4.436   3.015 -2.0475 -0.9871 -1.5425
  287TIP3    H225057   3.255   4.429   3.112  0.2501 -0.4031  1.4051
  288TIP3   OH225058   6.501   0.963   3.060 -0.5668 -0.1421 -0.5169
  288TIP3    H125059   6.454   0.979   2.978 -0.5736 -0.1709 -0.5188
  288TIP3    H225060   6.438   0.984   3.129 -0.8296 -0.9001 -0.5202
  289TIP3   OH225061   3.149   1.590   2.597 -0.1852  0.0093  0.1706
  289TIP3    H125062   3.193   1.535   2.662 -0.4071  0.3598  0.6267
  289TIP3    H225063   3.096   1.529   2.546 -0.2233 -0.2401  0.5023
  290TIP3   OH225064   4.585   5.492   1.094 -0.2272  0.0619  0.0635
  290TIP3    H125065   4.572   5.565   1.033  0.3910  0.6368  0.6142
  290TIP3    H225066   4.599   5.416   1.036  0.2412  0.5776 -0.5177
  291TIP3   OH225067   3.398   2.375   1.517  0.0468  0.1680  0.0057
  291TIP3    H125068   3.375   2.467   1.505  0.4307  0.0851 -1.4921
  291TIP3    H225069   3.468   2.359   1.454  0.5879 -0.9432  0.8495
  292TIP3   OH225070   0.008   4.503   2.134  0.0934  0.0781  0.1311
  292TIP3    H125071  -0.069   4.446   2.135 -0.3512  0.6429  1.7141
  292TIP3    H225072  -0.020   4.581   2.181  1.7270  0.1300  1.0940
  293TIP3   OH225073   4.694   1.832   4.148 -0.1116  0.1127  0.4116
  293TIP3    H125074   4.607   1.795   4.167  0.3193 -0.2915  1.7140
  293TIP3    H225075   4.750   1.797   4.217  0.6759  1.9026  0.7326
  294TIP3   OH225076   0.880   6.531   2.100  0.5854 -0.4562 -0.2869
  294TIP3    H125077   0.960   6.508   2.147  1.5611  0.8203 -1.2556
  294TIP3    H225078   0.856   6.617   2.134 -0.3261 -0.7799 -0.0816
  295TIP3   OH225079   6.193   0.819   3.934 -0.0744 -0.0888  0.2465
  295TIP3    H125080   6.099   0.818   3.915  0.0616  0.3479 -0.5215
  295TIP3    H225081   6.233   0.771   3.861  0.3991  0.9272 -0.2009
  296TIP3   OH225082   3.273   3.650   2.793 -0.1676  0.4370 -0.2170
  296TIP3    H125083   3.269   3.734   2.747  1.4748  0.8755  0.3528
  296TIP3    H225084   3.268   3.673   2.886  0.7629 -0.0280 -0.0364
  297TIP3   OH225085   1.734   4.464   2.883 -0.1639  0.2363 -0.4369
  297TIP3    H125086   1.813   4.437   2.930 -1.0208  3.1381  3.2147
  297TIP3    H225087   1.665   4.408   2.918 -0.0324 -1.5040 -2.7565
  298TIP3   OH225088   5.950   4.905   1.771  0.1322 -0.1009 -0.2490
  298TIP3    H125089   6.001   4.872   1.696 -0.4727  0.5096 -0.9439
  298TIP3    H225090   5.880   4.956   1.731 -0.1156  0.3565  0.7547
  299TIP3   OH225091   4.207   0.264   2.696 -0.0509 -0.0906 -0.1894
  299TIP3    H125092   4.208   0.283   2.789 -0.6050 -1.0088  0.0199
  299TIP3    H225093   4.121   0.291   2.666  0.4908  1.1805 -0.6739
  300TIP3   OH225094   1.151   6.479   3.092 -0.1470  0.1141  0.3216
  300TIP3    H125095   1.190   6.421   3.027 -0.3139  0.8747 -0.4783
  300TIP3    H225096   1.213   6.479   3.165  0.3271 -0.3020 -0.0747
  301TIP3   OH225097   6.417   4.876   2.463 -0.2532 -0.1478 -0.1290
  301TIP3    H125098   6.454   4.964   2.473 -1.6156  0.3965  0.3488
  301TIP3    H225099   6.422   4.839   2.551 -0.4466 -0.2303 -0.1538
  302TIP3   OH225100   2.597   5.399   4.190  0.0511  0.1080  0.5348
  302TIP3    H125101   2.554   5.464   4.244  0.7054  0.0714  1.1123
  302TIP3    H225102   2.533   5.378   4.122 -0.9971 -0.2422  1.5914
  303TIP3   OH225103   1.293   4.269   1.480  0.2043 -0.3708 -0.4415
  303TIP3    H125104   1.286   4.175   1.462 -1.9160 -0.5844  1.1016
  303TIP3    H225105   1.385   4.282   1.504  0.2158 -2.3864  0.8895
  304TIP3   OH225106   2.901   2.943   2.982 -0.2818  0.3687  0.1007
  304TIP3    H125107   2.838   2.949   3.054  1.1941  0.2232  1.4658
  304TIP3    H225108   2.973   3.000   3.009  0.9279 -0.7917 -0.6063
  305TIP3   OH225109   4.700   5.233   1.881  0.0893 -0.1078  0.0579
  305TIP3    H125110   4.710   5.247   1.786  0.2988  0.6031  0.1774
  305TIP3    H225111   4.655   5.312   1.912  1.4870  0.4480  0.7987
  306TIP3   OH225112   4.435   4.571   2.569  0.0531  0.7037 -0.2749
  306TIP3    H125113   4.514   4.538   2.526 -0.3408  1.2961 -1.5265
  306TIP3    H225114   4.369   4.503   2.552  0.1941  0.3789  0.4537
  307TIP3   OH225115   3.747   5.369   2.700  0.0764 -0.8147  0.0407
  307TIP3    H125116   3.796   5.448   2.723  0.1178 -0.9918  0.5953
  307TIP3    H225117   3.759   5.359   2.606 -0.1526 -0.0111 -0.0853
  308TIP3   OH225118   3.539   1.660   2.420  0.0834  0.0424  0.0031
  308TIP3    H125119   3.538   1.566   2.434 -0.7062 -0.1276 -1.0169
  308TIP3    H225120   3.465   1.676   2.361  0.5704  1.2225 -0.3185
  309TIP3   OH225121   0.323   3.176   2.048 -0.9390  0.2352  0.1387
  309TIP3    H125122   0.389   3.138   1.989 -0.5723 -1.3501  1.4777
  309TIP3    H225123   0.345   3.268   2.054 -1.5617  0.6828 -2.9032
  310TIP3   OH225124   0.405   0.775   2.538 -0.5703  0.3751  0.8159
  310TIP3    H125125   0.322   0.727   2.546 -1.5110  1.9533  0.8979
  310TIP3    H225126   0.472   0.708   2.550 -1.7497 -1.4985 -1.9047
  311TIP3   OH225127   2.701   6.445   1.107  0.4267 -0.2589  0.0394
  311TIP3    H125128   2.723   6.490   1.188 -1.0883 -1.6464  1.2884
  311TIP3    H225129   2.721   6.353   1.124  0.7752 -0.4849 -1.4330
  312TIP3   OH225130   0.044   1.640   3.950 -0.0572 -0.2609 -0.6999
  312TIP3    H125131  -0.005   1.565   3.984  1.0415 -0.5636  0.2778
  312TIP3    H225132   0.020   1.712   4.008 -0.0680 -0.1837 -0.8006
  313TIP3   OH225133   6.680   0.447   3.856 -0.0693 -0.4122 -0.0089
  313TIP3    H125134   6.752   0.497   3.895 -1.7010  1.2079  1.0951
  313TIP3    H225135   6.666   0.375   3.917  0.5182 -0.6658 -0.1650
  314TIP3   OH225136   3.370   3.438   3.081 -0.6903 -0.4239  0.2517
  314TIP3    H125137   3.341   3.390   3.004 -2.1501  0.6053  0.1142
  314TIP3    H225138   3.354   3.379   3.154  0.7478 -1.4244 -0.1979
  315TIP3   OH225139   3.246   3.700   3.063  0.2423  0.0561 -0.2251
  315TIP3    H125140   3.251   3.724   3.156 -0.1556 -0.8198  0.0322
  315TIP3    H225141   3.234   3.605   3.063 -0.8323  0.1699 -1.1458
  316TIP3   OH225142   5.028   4.545   0.758 -0.1025 -0.2358 -0.7980
  316TIP3    H125143   4.963   4.582   0.817 -0.2545 -0.8776 -0.5599
  316TIP3    H225144   5.084   4.491   0.814  1.6009  1.5179 -0.7068
  317TIP3   OH225145   1.788   6.303   1.937 -0.2439  1.0513 -0.0224
  317TIP3    H125146   1.826   6.225   1.978 -3.9346 -0.6289  0.6431
  317TIP3    H225147   1.765   6.360   2.010 -3.5905 -0.3563  0.1817
  318TIP3   OH225148   2.723   5.724   1.183  0.3340  0.1244  0.2759
  318TIP3    H125149   2.801   5.726   1.127 -0.5887 -1.9505 -1.2106
  318TIP3    H225150   2.672   5.650   1.151 -0.9769 -0.2725  2.9876
  319TIP3   OH225151   0.744   2.748   2.029 -0.5376  0.4123  0.5189
  319TIP3    H125152   0.686   2.706   1.966 -0.6614 -0.8956  1.4805
  319TIP3    H225153   0.725   2.842   2.020 -1.9305  0.0999 -0.0163
  320TIP3   OH225154   3.509   5.255   1.326 -0.1887  0.2723 -0.0449
  320TIP3    H125155   3.471   5.288   1.244 -1.6312 -1.2064 -0.0419
  320TIP3    H225156   3.498   5.160   1.320  0.8802  0.0374  1.2997
  321TIP3   OH225157   0.569   4.418   3.647 -0.1569 -0.5173 -0.7364
  321TIP3    H125158   0.554   4.512   3.645  1.0830 -0.2817  0.0793
  321TIP3    H225159   0.498   4.384   3.702  1.4252  0.4372  2.0947
  322TIP3   OH225160   5.948   2.352   3.615 -0.2999  0.0177  0.1621
  322TIP3    H125161   5.943   2.447   3.603  1.3561 -0.1445 -2.6558
  322TIP3    H225162   6.007   2.340   3.689  2.2086  1.2430 -1.5300
  323TIP3   OH225163   2.503   5.809  11.231 -0.2945  0.2332 -0.8596
  323TIP3    H125164   2.417   5.771  11.251  0.9145 -1.5155  1.4713
  323TIP3    H225165   2.544   5.745  11.173  0.9306 -1.1343  1.3662
  324TIP3   OH225166   2.355   2.091   9.157  0.1940  0.1662 -0.2813
  324TIP3    H125167   2.307   2.071   9.077 -0.6741 -1.7280  0.6518
  324TIP3    H225168   2.436   2.133   9.127 -0.5284  0.3706 -2.0670
  325TIP3   OH225169   0.031   5.282  11.440 -0.2375  0.1240 -0.2034
  325TIP3    H125170   0.095   5.344  11.476 -2.1330  0.6941  2.5364
  325TIP3    H225171   0.060   5.196  11.472  0.0862  0.1435 -0.4390
  326TIP3   OH225172   3.856   0.765   9.594  0.5637  0.1291  0.6628
  326TIP3    H125173   3.845   0.670   9.593 -0.1926  0.2086 -0.2825
  326TIP3    H225174   3.949   0.779   9.615  1.2989 -0.9021 -1.6104
  327TIP3   OH225175   2.564   3.945  11.406 -0.4758  0.1758  0.1584
  327TIP3    H125176   2.517   3.863  11.419  1.6287 -1.0984  0.1705
  327TIP3    H225177   2.583   3.947  11.312  0.4450  0.0814  0.3357
  328TIP3   OH225178   3.775   3.399   9.384 -0.1342  0.0680 -0.1727
  328TIP3    H125179   3.813   3.437   9.464  0.5081 -0.7342 -0.0855
  328TIP3    H225180   3.804   3.457   9.314 -1.7148  1.4889  0.2779
  329TIP3   OH225181   1.720   5.740  11.225 -0.1135 -0.0559 -0.1114
  329TIP3    H125182   1.799   5.744  11.279  0.2434  0.8294 -0.6756
  329TIP3    H225183   1.752   5.709  11.140 -0.7113 -1.7242  0.2257
  330TIP3   OH225184   1.404   1.010  11.583  0.0485 -0.3766  0.4287
  330TIP3    H125185   1.407   1.097  11.543 -1.0422 -0.7288 -0.4665
  330TIP3    H225186   1.495   0.992  11.607  0.5185  0.4600 -0.6240
  331TIP3   OH225187   2.737   1.448   8.498 -0.0060 -0.1448  0.2598
  331TIP3    H125188   2.766   1.453   8.407  0.8941  0.3383  0.5606
  331TIP3    H225189   2.670   1.515   8.507 -1.0651 -1.0804 -0.3728
  332TIP3   OH225190   1.062   5.819  10.185 -0.0504 -0.2011 -0.1687
  332TIP3    H125191   1.089   5.879  10.255  2.1026 -1.2536 -0.0146
  332TIP3    H225192   1.085   5.866  10.104 -2.3825  0.9422 -0.2535
  333TIP3   OH225193   3.182   1.515  11.240  0.1356 -0.0758 -0.1918
  333TIP3    H125194   3.275   1.499  11.223  0.2575  1.3565 -1.0694
  333TIP3    H225195   3.138   1.485  11.161  0.0046  0.5012 -0.3428
  334TIP3   OH225196   1.198   0.414  10.811  0.0471 -0.0309  0.8003
  334TIP3    H125197   1.283   0.413  10.853  0.4743 -0.8979 -0.0458
  334TIP3    H225198   1.135   0.397  10.881  0.5323  0.9310  1.4819
  335TIP3   OH225199   2.731   1.091  11.518 -0.5365  0.0397  0.3583
  335TIP3    H125200   2.697   1.132  11.438 -0.3436  1.0833  0.7998
  335TIP3    H225201   2.800   1.032  11.486  0.8650  1.8487 -0.1542
  336TIP3   OH225202   5.033   2.145   9.569  0.0227  0.1669  0.9035
  336TIP3    H125203   5.099   2.214   9.569 -0.0060  0.1991  0.1480
  336TIP3    H225204   5.074   2.073   9.617  0.9532 -0.1293 -0.2965
  337TIP3   OH225205   4.475   6.210   8.944 -0.2389 -0.1008 -0.7098
  337TIP3    H125206   4.452   6.155   9.019  0.6001  0.1573 -0.2606
  337TIP3    H225207   4.517   6.150   8.882  0.0745 -0.0948 -0.5017
  338TIP3   OH225208   5.145   6.067  10.619 -0.2922 -0.2798 -0.0748
  338TIP3    H125209   5.056   6.053  10.588  0.4946  0.9709 -3.3556
  338TIP3    H225210   5.174   5.982  10.652 -2.6403 -0.6887  1.1165
  339TIP3   OH225211   5.809   1.288  10.286  0.0635  0.2955  0.4094
  339TIP3    H125212   5.882   1.237  10.249 -0.2294 -0.4941  0.8852
  339TIP3    H225213   5.823   1.283  10.381 -1.1513 -0.7195  0.5580
  340TIP3   OH225214   0.101   0.570   9.585 -0.2421 -0.2144  0.3283
  340TIP3    H125215   0.092   0.479   9.560 -0.7914  0.1415 -0.8466
  340TIP3    H225216   0.025   0.614   9.545  0.3623  0.8608  0.3044
  341TIP3   OH225217   5.030   6.151   9.401 -0.0286  0.3928  0.2357
  341TIP3    H125218   5.016   6.118   9.312  1.9693 -0.9675  0.3573
  341TIP3    H225219   4.998   6.241   9.398 -0.8556  0.0913 -1.5979
  342TIP3   OH225220   3.855   2.405  11.825 -0.3364 -0.1358  0.3215
  342TIP3    H125221   3.849   2.338  11.757 -1.8482  0.0793  0.2009
  342TIP3    H225222   3.914   2.368  11.890 -1.3132 -1.7100  0.3817
  343TIP3   OH225223   4.388   6.838  10.287  0.0447 -0.2133  0.1514
  343TIP3    H125224   4.308   6.888  10.301 -0.9754 -1.6986 -0.1001
  343TIP3    H225225   4.458   6.902  10.294 -1.2585  1.5143 -1.4235
  344TIP3   OH225226   6.303   6.082  10.343  0.3934  0.3436  0.5266
  344TIP3    H125227   6.265   6.167  10.364 -0.3659  0.1580 -0.0656
  344TIP3    H225228   6.265   6.059  10.258 -1.4345 -1.7583  1.8369
  345TIP3   OH225229   6.479   1.180  10.488  0.3496 -0.3532 -0.0146
  345TIP3    H125230   6.512   1.115  10.427  0.8207 -1.2218  1.1301
  345TIP3    H225231   6.554   1.236  10.507  0.3969 -0.5181  0.2999
  346TIP3   OH225232   6.662   2.876  10.582 -0.3425  0.0445 -0.7340
  346TIP3    H125233   6.577   2.911  10.608  0.0227  0.0001  0.5962
  346TIP3    H225234   6.705   2.949  10.538 -0.4057  0.6328  0.1455
  347TIP3   OH225235   5.564   5.742   8.792 -0.3236  0.0355 -0.0383
  347TIP3    H125236   5.623   5.805   8.750 -0.5031 -0.5909 -1.2807
  347TIP3    H225237   5.520   5.793   8.860  0.9356  0.7482  0.2672
  348TIP3   OH225238   5.599   6.761  11.799  0.0003 -0.1730 -0.2463
  348TIP3    H125239   5.539   6.780  11.727 -2.2353 -0.4999  1.4600
  348TIP3    H225240   5.555   6.792  11.878  1.9037 -0.7849  1.1497
  349TIP3   OH225241   0.304   5.131  11.438 -0.5349 -0.0827 -0.3715
  349TIP3    H125242   0.378   5.176  11.399  0.6738 -1.2051  0.5171
  349TIP3    H225243   0.299   5.165  11.527  0.8471 -2.0554  0.5568
  350TIP3   OH225244   3.322   2.569   9.773  0.1447 -0.0574 -0.3364
  350TIP3    H125245   3.352   2.572   9.864 -0.7618 -0.9200  0.0017
  350TIP3    H225246   3.325   2.476   9.749 -2.7477 -0.3016 -0.0912
  351TIP3   OH225247   4.472   1.567  11.544  0.3623 -0.4604 -0.2933
  351TIP3    H125248   4.496   1.497  11.484  0.9815  0.0103 -0.6090
  351TIP3    H225249   4.537   1.563  11.613 -0.5572 -1.2287  0.5569
  352TIP3   OH225250   5.803   6.373  11.360  0.3076  0.4232  0.5923
  352TIP3    H125251   5.802   6.461  11.322  1.6044  0.2871  0.2082
  352TIP3    H225252   5.820   6.388  11.453 -0.8301  0.6403  0.7774
  353TIP3   OH225253   5.100   0.956   9.478 -0.0564  0.2459 -0.0528
  353TIP3    H125254   5.186   0.934   9.444  0.6611 -0.7484  2.1753
  353TIP3    H225255   5.083   1.044   9.446  1.7338  0.4084 -0.6494
  354TIP3   OH225256   2.285   5.881   8.563 -0.3894 -0.5717  0.2001
  354TIP3    H125257   2.344   5.956   8.557  0.5138 -1.3105 -0.5341
  354TIP3    H225258   2.198   5.920   8.571  0.0920  0.5465  0.2685
  355TIP3   OH225259   0.960   0.044   9.743  0.2207  0.0681  0.1764
  355TIP3    H125260   0.963   0.035   9.838  0.7261  0.9690  0.2525
  355TIP3    H225261   1.031  -0.013   9.711  0.8003  0.6559  0.4076
  356TIP3   OH225262   0.318   3.542   9.489 -0.2699  0.4042  0.3131
  356TIP3    H125263   0.243   3.515   9.437  0.7099 -0.8268 -0.5185
  356TIP3    H225264   0.282   3.557   9.577 -1.7138  1.2450 -0.3882
  357TIP3   OH225265   1.126   4.296   9.843  0.2176  0.2923  0.4001
  357TIP3    H125266   1.160   4.382   9.819  0.1980  0.0692 -0.4471
  357TIP3    H225267   1.061   4.314   9.911 -0.8638  1.1172 -0.7924
  358TIP3   OH225268   3.174   4.543   9.407  0.4762 -0.5107  0.2335
  358TIP3    H125269   3.193   4.550   9.501 -0.0700 -1.3967  0.4184
  358TIP3    H225270   3.254   4.506   9.370  1.1492  0.9691  0.1486
  359TIP3   OH225271   3.559   4.894  10.226 -0.1708 -0.4048  0.2594
  359TIP3    H125272   3.546   4.803  10.200 -1.3291 -1.1444  3.0571
  359TIP3    H225273   3.471   4.926  10.246  0.0677  1.7655 -1.7500
  360TIP3   OH225274   1.065   6.375  10.712 -0.7419 -0.4257  0.3028
  360TIP3    H125275   1.137   6.313  10.697  0.2425  0.5061  1.0027
  360TIP3    H225276   1.070   6.396  10.806 -0.9263  0.8537  0.0476
  361TIP3   OH225277   2.432   6.162   9.775  0.3219  0.6314  0.1896
  361TIP3    H125278   2.449   6.224   9.845  0.7170 -0.6331  1.2526
  361TIP3    H225279   2.339   6.139   9.786  0.0795  1.2757 -0.4258
  362TIP3   OH225280   6.054   3.633  10.023 -0.4466 -0.3481  0.3971
  362TIP3    H125281   6.072   3.670  10.109  0.3160  1.6152 -0.5380
  362TIP3    H225282   6.139   3.605   9.990 -0.5714 -0.1207 -0.1322
  363TIP3   OH225283   2.322   1.912  10.024 -0.1131  0.3281  0.1401
  363TIP3    H125284   2.383   1.839  10.036 -0.1885  0.0955 -0.8233
  363TIP3    H225285   2.263   1.907  10.099  0.5783  0.0975  0.6820
  364TIP3   OH225286   5.317   5.483   9.370 -0.4536  0.3160 -0.4092
  364TIP3    H125287   5.248   5.541   9.340 -1.3222  0.1964  1.2333
  364TIP3    H225288   5.398   5.534   9.360 -0.9002  0.8788 -1.2659
  365TIP3   OH225289   6.413   2.051   9.867  0.0331 -0.7868 -0.4328
  365TIP3    H125290   6.493   2.060   9.919  0.0160 -1.4848 -0.2748
  365TIP3    H225291   6.343   2.042   9.932 -0.3106  0.7050 -0.5491
  366TIP3   OH225292   1.198   4.698  10.253 -0.2925  0.0655  0.3821
  366TIP3    H125293   1.111   4.670  10.223  0.3031 -1.0095 -0.3493
  366TIP3    H225294   1.209   4.785  10.214 -1.1478  0.3347  0.7088
  367TIP3   OH225295   1.032   1.919  10.015  0.2713  0.5026  0.0664
  367TIP3    H125296   1.005   1.971  10.090  0.9531  1.5131 -0.3678
  367TIP3    H225297   1.023   1.828  10.044  0.8212  0.8733  1.4816
  368TIP3   OH225298   5.472   3.777  10.744  0.3720  0.8618  0.6219
  368TIP3    H125299   5.453   3.691  10.706  0.6665  0.8981  0.3927
  368TIP3    H225300   5.402   3.833  10.709  0.3223  0.7717  0.5739
  369TIP3   OH225301   4.387   0.399  10.007 -0.0804 -0.0995  0.2664
  369TIP3    H125302   4.437   0.318   9.996  1.0168  0.5290  0.4506
  369TIP3    H225303   4.446   0.468   9.975 -1.1121  0.5957 -0.1782
  370TIP3   OH225304   1.654   5.290  12.113  0.3022  0.0509 -0.6375
  370TIP3    H125305   1.729   5.282  12.172  0.2059 -0.2221 -0.5524
  370TIP3    H225306   1.646   5.385  12.098 -0.0329  0.1746  0.2576
  371TIP3   OH225307   6.117   2.584   8.511  0.3277 -0.4397 -0.1992
  371TIP3    H125308   6.091   2.637   8.586  0.8870  1.6670 -1.3985
  371TIP3    H225309   6.058   2.612   8.440  0.6957 -1.3879 -0.9075
  372TIP3   OH225310   4.587   1.797  10.166 -0.1512  0.3528 -0.1160
  372TIP3    H125311   4.593   1.884  10.127  0.3815 -0.0432 -0.9586
  372TIP3    H225312   4.594   1.812  10.260  2.3651  1.0397 -0.3398
  373TIP3   OH225313   3.497   2.855  10.290  0.3554 -0.3243 -0.0668
  373TIP3    H125314   3.569   2.911  10.260 -0.4922  0.7602 -0.1737
  373TIP3    H225315   3.531   2.811  10.367  0.5667  1.5861  1.0086
  374TIP3   OH225316   3.266   6.745  10.411  0.1644  0.4203  0.1351
  374TIP3    H125317   3.252   6.679  10.480  1.4698 -0.7156 -0.6534
  374TIP3    H225318   3.349   6.787  10.435  0.1080  0.7209 -0.1974
  375TIP3   OH225319   1.387   3.887  11.356 -0.0700 -0.7073  0.4332
  375TIP3    H125320   1.355   3.899  11.266  2.8338 -1.5450 -0.8333
  375TIP3    H225321   1.318   3.923  11.411 -1.3900  1.0868 -2.1903
  376TIP3   OH225322   1.644   4.588   8.860  0.1626 -0.1061 -0.0414
  376TIP3    H125323   1.691   4.650   8.805  0.2768 -0.1028  0.0581
  376TIP3    H225324   1.561   4.572   8.815  0.1586  0.0723 -0.0967
  377TIP3   OH225325   4.970   5.428   8.693  0.0203 -0.1589 -0.2583
  377TIP3    H125326   4.980   5.350   8.749 -0.1504 -1.4168 -1.9050
  377TIP3    H225327   4.888   5.414   8.647 -0.1870  1.1953 -0.3367
  378TIP3   OH225328   5.402   3.193   9.398  0.4158  0.0903  0.2351
  378TIP3    H125329   5.436   3.111   9.363  2.5471  0.6278  0.9012
  378TIP3    H225330   5.422   3.189   9.491  0.1995  1.1937  0.3384
  379TIP3   OH225331   6.553   1.587  10.772 -0.1796 -0.4247  0.4660
  379TIP3    H125332   6.641   1.558  10.752 -0.5718 -1.0423 -0.4141
  379TIP3    H225333   6.513   1.513  10.818 -1.2113 -1.4006 -1.8617
  380TIP3   OH225334   0.123   3.915   8.643 -0.5239  0.8256  0.0813
  380TIP3    H125335   0.214   3.887   8.657 -1.1538 -0.8420  1.1383
  380TIP3    H225336   0.100   3.880   8.557 -0.1615  1.2672 -0.1972
  381TIP3   OH225337   3.498   4.158  11.614  0.7542 -0.4479  0.1766
  381TIP3    H125338   3.566   4.157  11.681  0.6306  1.2001  0.3659
  381TIP3    H225339   3.417   4.139  11.661  0.3145  2.8785  1.0306
  382TIP3   OH225340   6.774   5.990  10.582 -0.0171  0.1633  0.3876
  382TIP3    H125341   6.850   6.003  10.525 -0.8168  0.5403 -0.6141
  382TIP3    H225342   6.699   6.008  10.526 -0.8994 -1.2886  1.0739
  383TIP3   OH225343   3.026   6.139  10.001  0.1521 -0.3282 -0.2389
  383TIP3    H125344   3.109   6.095  10.019 -0.4382 -1.3302  0.1008
  383TIP3    H225345   3.050   6.214   9.945  1.5337  0.6234  1.5231
  384TIP3   OH225346   6.303   6.746   9.517  0.1017  0.0609 -0.6266
  384TIP3    H125347   6.273   6.777   9.603  1.7845  0.5198 -0.1650
  384TIP3    H225348   6.238   6.680   9.492  1.0407 -2.2978  2.3865
  385TIP3   OH225349   2.868   5.994   9.769  0.0206  0.6765 -0.0054
  385TIP3    H125350   2.924   6.025   9.841  1.0487 -0.1467 -0.4104
  385TIP3    H225351   2.930   5.977   9.698 -0.6795 -0.8005 -0.2896
  386TIP3   OH225352   3.876   5.719   9.792 -0.4274 -0.2385 -0.2868
  386TIP3    H125353   3.964   5.745   9.819 -1.0486 -0.3451  2.1087
  386TIP3    H225354   3.889   5.662   9.716  1.3785  1.6395 -1.5078
  387TIP3   OH225355   1.258   4.549   9.818  0.8158  0.3724 -0.4743
  387TIP3    H125356   1.249   4.633   9.772  2.6769  0.6004 -0.4687
  387TIP3    H225357   1.281   4.573   9.907  2.8207 -0.1363 -0.8237
  388TIP3   OH225358   4.457   5.628  11.617  0.2599 -0.0165 -0.1632
  388TIP3    H125359   4.448   5.536  11.594  0.6817 -0.0386 -0.2359
  388TIP3    H225360   4.544   5.636  11.655  0.5326  0.4988 -0.8678
  389TIP3   OH225361   0.421   3.793  11.154 -0.0827  0.0690 -0.8050
  389TIP3    H125362   0.495   3.751  11.110  0.5390 -0.8132  1.0070
  389TIP3    H225363   0.358   3.810  11.083  1.3942 -0.1001 -2.2243
  390TIP3   OH225364   6.682   2.485  10.620 -0.0814 -0.4277  0.9155
  390TIP3    H125365   6.719   2.565  10.658 -1.0416  0.4631  0.0210
  390TIP3    H225366   6.726   2.477  10.534  1.1005 -1.7010  1.5899
  391TIP3   OH225367   1.056   4.568  10.710 -0.1676  0.1703 -0.6097
  391TIP3    H125368   1.041   4.549  10.618 -1.0502  1.0129 -0.6585
  391TIP3    H225369   1.108   4.494  10.742 -1.0229 -0.8366 -1.4536
  392TIP3   OH225370   6.468   6.605   9.091  0.3485  0.7330  0.1955
  392TIP3    H125371   6.496   6.583   9.002 -0.7815  0.4431 -0.0974
  392TIP3    H225372   6.547   6.591   9.145  0.6334 -0.5892 -0.5202
  393TIP3   OH225373   1.343   1.908   8.687  0.3494 -0.0902  0.2283
  393TIP3    H125374   1.377   1.833   8.637  1.9602  1.0399 -0.4663
  393TIP3    H225375   1.276   1.947   8.629 -1.3139 -1.5707  1.0563
  394TIP3   OH225376   2.505   0.114  11.155  0.2131  0.2284  0.1593
  394TIP3    H125377   2.470   0.116  11.244  1.8512 -0.4023  0.8425
  394TIP3    H225378   2.453   0.047  11.110 -0.8443  0.7853  0.5138
  395TIP3   OH225379   3.346   0.134  10.882  0.5376  0.6763 -0.0543
  395TIP3    H125380   3.409   0.117  10.952 -0.2814 -0.4084  0.4495
  395TIP3    H225381   3.268   0.087  10.909 -0.3735  1.6933 -0.8579
  396TIP3   OH225382   1.184   0.231  10.365 -0.1076  0.1264  0.2335
  396TIP3    H125383   1.260   0.277  10.402 -0.2791  2.1230 -1.6582
  396TIP3    H225384   1.221   0.150  10.329  0.7486  0.0964  1.1276
  397TIP3   OH225385   6.221   1.567  10.982  0.1703 -0.0632 -0.5913
  397TIP3    H125386   6.142   1.528  10.945 -1.0377 -0.5751  2.1958
  397TIP3    H225387   6.292   1.506  10.958 -0.5411 -0.4474 -1.7896
  398TIP3   OH225388   2.311   4.602   8.660 -0.3851  0.3577 -1.3263
  398TIP3    H125389   2.302   4.545   8.584  3.1762 -2.1486 -0.1344
  398TIP3    H225390   2.362   4.677   8.629  0.8119 -0.5170 -1.5413
  399TIP3   OH225391   3.373   4.343   9.525 -0.1043  0.2625  0.0859
  399TIP3    H125392   3.379   4.289   9.446  0.5737  0.7098 -0.1796
  399TIP3    H225393   3.429   4.419   9.507  0.6093  0.0446  1.2588
  400TIP3   OH225394   3.861   5.513  10.026  0.0989 -0.3978 -0.3080
  400TIP3    H125395   3.875   5.418  10.027 -2.1965 -0.7870 -0.0004
  400TIP3    H225396   3.946   5.549  10.000  0.8994 -2.5488 -0.9236
  401TIP3   OH225397   6.511   3.221   9.353  0.3567  0.4182  0.8896
  401TIP3    H125398   6.451   3.146   9.358  1.9487 -0.8541  2.1800
  401TIP3    H225399   6.476   3.275   9.283 -1.0806 -1.3472  0.1546
  402TIP3   OH225400   5.580   0.049   8.680  0.0292  0.1738  0.3345
  402TIP3    H125401   5.623  -0.034   8.660  0.8310  0.5081  0.6383
  402TIP3    H225402   5.642   0.116   8.651 -0.7582  0.6851 -0.2500
  403TIP3   OH225403   6.535   4.567  10.683 -0.2705  0.5902  0.5927
  403TIP3    H125404   6.594   4.561  10.608 -1.4002  0.7121 -0.3420
  403TIP3    H225405   6.540   4.658  10.711  1.0196  0.2940  1.4251
  404TIP3   OH225406   1.104   4.825  11.617  0.2556 -0.5976 -0.2081
  404TIP3    H125407   1.069   4.892  11.675  1.2562 -0.5211  0.3313
  404TIP3    H225408   1.030   4.768  11.598  0.2154 -1.5196  2.4146
  405TIP3   OH225409   1.742   4.888  11.315 -0.3917  0.3251 -0.4311
  405TIP3    H125410   1.837   4.898  11.311 -0.2955 -0.8023 -1.2415
  405TIP3    H225411   1.708   4.972  11.283  0.3120  0.7568 -0.0865
  406TIP3   OH225412   4.245   1.819  10.861 -0.0299 -0.2516  0.1809
  406TIP3    H125413   4.165   1.869  10.878  0.0346 -0.3199  0.6781
  406TIP3    H225414   4.214   1.730  10.845  0.0841 -0.7303  2.3726
  407TIP3   OH225415   6.033   3.419   8.740 -0.6039 -0.1366  0.0164
  407TIP3    H125416   6.082   3.390   8.663  0.6823  0.1717  0.6941
  407TIP3    H225417   6.025   3.340   8.794 -0.3229 -0.0521  0.1822
  408TIP3   OH225418   3.459   0.614  10.628  0.0494 -0.4206 -0.2855
  408TIP3    H125419   3.423   0.535  10.669  0.1459 -1.2104 -1.6488
  408TIP3    H225420   3.427   0.686  10.682  0.2383 -1.4014  1.2046
  409TIP3   OH225421   5.101   4.951   8.057  0.4528 -0.1789 -0.6677
  409TIP3    H125422   5.159   5.017   8.096  1.5992 -1.1279 -0.7162
  409TIP3    H225423   5.014   4.990   8.062  0.7629  0.3668  1.4886
  410TIP3   OH225424   3.504   3.442   8.802  0.2858 -0.0188  0.3193
  410TIP3    H125425   3.431   3.407   8.752 -0.6369  0.3247  1.4014
  410TIP3    H225426   3.465   3.505   8.863  1.4468  0.0609  1.0241
  411TIP3   OH225427   0.902   3.708  11.309 -0.0281 -0.1660 -0.2545
  411TIP3    H125428   0.907   3.777  11.375  0.3785  0.8117 -1.2704
  411TIP3    H225429   0.852   3.638  11.351  1.4705 -0.2100  1.6316
  412TIP3   OH225430   5.963   0.351   9.156 -0.2988 -0.2908  0.2126
  412TIP3    H125431   5.913   0.275   9.126 -1.4664 -0.2334  1.9004
  412TIP3    H225432   6.052   0.335   9.124 -0.4747 -2.4444  0.6584
  413TIP3   OH225433   2.213   3.463  10.403 -0.2952  0.2290  0.0410
  413TIP3    H125434   2.210   3.477  10.308  2.2314 -0.3225 -0.2086
  413TIP3    H225435   2.280   3.524  10.433  0.3801 -1.0186  1.1424
  414TIP3   OH225436   5.678   6.024  11.010 -0.0161 -0.2176 -0.1847
  414TIP3    H125437   5.606   6.034  10.948  1.3324  1.1606 -1.5973
  414TIP3    H225438   5.655   6.083  11.082 -0.4810 -0.0907 -0.4299
  415TIP3   OH225439   3.707   3.204  11.577 -0.2575 -0.4722 -0.1146
  415TIP3    H125440   3.616   3.230  11.594  0.1297  1.3673 -0.5459
  415TIP3    H225441   3.708   3.183  11.483 -0.2433 -0.4784 -0.1133
  416TIP3   OH225442   2.049   0.854  11.898 -0.0934  0.2829 -0.4357
  416TIP3    H125443   2.092   0.869  11.983 -2.4970  1.2186  0.7218
  416TIP3    H225444   2.121   0.857  11.834  1.6361  1.0308  1.4026
  417TIP3   OH225445   4.118   2.197   8.672  0.0730  0.4545  0.3505
  417TIP3    H125446   4.111   2.108   8.706  0.7754 -0.5086 -1.8485
  417TIP3    H225447   4.028   2.221   8.651  0.0207 -0.3392 -0.4005
  418TIP3   OH225448   2.004   5.521  10.482  0.1024 -0.1825 -0.0520
  418TIP3    H125449   1.935   5.524  10.416 -0.9228  0.0170  1.0061
  418TIP3    H225450   2.007   5.429  10.509  0.0926 -0.1435  0.0795
  419TIP3   OH225451   3.801   4.407   8.401  0.4056  1.0958 -0.2006
  419TIP3    H125452   3.722   4.407   8.347 -0.3008 -0.4005  0.7634
  419TIP3    H225453   3.856   4.339   8.361 -0.0483  0.1006  0.8110
  420TIP3   OH225454   5.544   6.734  11.071  0.0979 -0.1967 -0.3793
  420TIP3    H125455   5.495   6.656  11.045 -1.0773 -0.1395  1.4626
  420TIP3    H225456   5.615   6.740  11.007 -1.5178 -1.0261 -2.3506
  421TIP3   OH225457   1.430   3.508  11.224  0.3325 -0.2150  0.5539
  421TIP3    H125458   1.403   3.418  11.241 -0.5737  0.2154  1.5172
  421TIP3    H225459   1.348   3.555  11.205  0.5470  0.7965  1.9823
  422TIP3   OH225460   3.298   0.278  10.445 -0.7652  0.0105  0.5333
  422TIP3    H125461   3.338   0.315  10.367  0.3606  0.2260  1.2004
  422TIP3    H225462   3.207   0.260  10.419 -0.1411 -0.9473 -1.1635
  423TIP3   OH225463   1.838   1.947   9.575 -0.2725  0.2573  0.0677
  423TIP3    H125464   1.869   1.967   9.487 -0.0667 -1.4725 -0.2882
  423TIP3    H225465   1.750   1.985   9.577 -0.4908 -0.1242 -1.0774
  424TIP3   OH225466   5.717   0.541   8.220 -0.2530  0.0529 -0.6640
  424TIP3    H125467   5.766   0.465   8.187  0.4098  0.1165  0.1177
  424TIP3    H225468   5.701   0.520   8.313 -1.7910  0.0075 -0.9135
  425TIP3   OH225469   0.969   6.634   8.794 -0.3342 -0.2644  0.4705
  425TIP3    H125470   0.956   6.551   8.748  0.8576 -0.1106 -0.1847
  425TIP3    H225471   0.893   6.686   8.771 -0.2988 -0.5972 -0.4465
  426TIP3   OH225472   1.682   0.040  10.648 -0.1983  0.5124 -0.5202
  426TIP3    H125473   1.690   0.072  10.738 -0.4981 -2.9155  0.8944
  426TIP3    H225474   1.767   0.060  10.608 -0.3754  2.9066  0.1480
  427TIP3   OH225475   0.864   0.065  11.508 -0.0663 -0.0763 -0.2789
  427TIP3    H125476   0.769   0.061  11.521 -0.3292 -1.4463 -2.1503
  427TIP3    H225477   0.883   0.159  11.508 -1.4525  0.2398 -0.0736
  428TIP3   OH225478   5.934   6.347   9.650  0.1804 -0.1042 -0.1904
  428TIP3    H125479   5.877   6.328   9.576  0.3017 -1.8889  0.1328
  428TIP3    H225480   5.905   6.433   9.681  0.1203  0.6912 -2.2649
  429TIP3   OH225481   3.549   0.650  11.008  0.8325 -0.4311  0.4119
  429TIP3    H125482   3.501   0.568  11.001  1.1622 -0.5447 -0.6832
  429TIP3    H225483   3.504   0.698  11.077  0.0968 -1.1697  0.4624
  430TIP3   OH225484   4.627   5.461   9.955 -0.0859  0.3327  0.7540
  430TIP3    H125485   4.672   5.436  10.036 -0.6867 -1.3447  0.6015
  430TIP3    H225486   4.573   5.536   9.980  0.6138  0.5656  1.6194
  431TIP3   OH225487   2.636   3.846  10.943  0.0136 -0.8179 -0.1085
  431TIP3    H125488   2.726   3.833  10.971  0.6254 -1.4270 -2.1992
  431TIP3    H225489   2.599   3.758  10.938 -0.1619 -0.7050 -0.9110
  432TIP3   OH225490   1.064   0.514  11.348  0.4559  0.1711  0.1687
  432TIP3    H125491   1.029   0.572  11.280 -0.8340 -2.2792 -1.4473
  432TIP3    H225492   1.158   0.510  11.330  0.2324  0.0934 -1.1217
  433TIP3   OH225493   0.939   2.172  10.886 -0.2168 -0.9272  0.2938
  433TIP3    H125494   0.968   2.096  10.936 -0.4256 -1.6967 -0.7349
  433TIP3    H225495   0.843   2.165  10.885 -0.2741 -0.2985  0.7212
  434TIP3   OH225496   6.554   6.278  10.562 -0.4070  0.3673 -0.6904
  434TIP3    H125497   6.507   6.356  10.589 -0.4900  0.2960 -0.6276
  434TIP3    H225498   6.498   6.205  10.589 -0.5158  0.2959 -1.1071
  435TIP3   OH225499   0.221   3.822   9.451 -0.2369  0.1477  0.4391
  435TIP3    H125500   0.273   3.748   9.421 -2.0499 -1.5152  1.1869
  435TIP3    H225501   0.284   3.880   9.494  1.1980 -1.0507  0.0282
  436TIP3   OH225502   4.918   5.713  10.110  0.2197  0.5266  0.0009
  436TIP3    H125503   4.857   5.714  10.184  0.4115 -1.0602  0.2103
  436TIP3    H225504   4.969   5.633  10.122  1.4018  1.1088 -0.9428
  437TIP3   OH225505   2.841   1.379  11.217  0.0545  0.3908  0.3359
  437TIP3    H125506   2.919   1.389  11.162 -0.6346  0.1703 -0.6983
  437TIP3    H225507   2.842   1.457  11.273  1.4593 -0.0179  0.9165
  438TIP3   OH225508   5.623   4.571  11.227 -0.4148 -0.8114  0.2102
  438TIP3    H125509   5.591   4.543  11.312  0.5639  0.1365  0.9224
  438TIP3    H225510   5.707   4.614  11.246 -1.1270  1.2136 -0.9782
  439TIP3   OH225511   3.464   0.061  10.471 -0.0494  0.2897  0.6396
  439TIP3    H125512   3.537   0.081  10.412 -1.4781 -0.0609 -1.3308
  439TIP3    H225513   3.408   0.138  10.467 -0.6267 -0.1178  0.7813
  440TIP3   OH225514   2.267   6.676   8.495  0.2624 -0.3114 -0.3337
  440TIP3    H125515   2.342   6.673   8.555  0.6555  0.0742 -0.7938
  440TIP3    H225516   2.202   6.619   8.536  0.7329 -0.5052  0.1718
  441TIP3   OH225517   3.458   5.323  10.832  0.4765 -0.1309  0.0364
  441TIP3    H125518   3.383   5.383  10.836 -0.3567 -1.2083  1.1006
  441TIP3    H225519   3.431   5.254  10.771  1.3025  0.3523 -0.9188
  442TIP3   OH225520   6.409   1.595   9.228 -0.0197  0.0086 -0.0718
  442TIP3    H125521   6.485   1.538   9.239 -0.3477 -0.7365 -1.4009
  442TIP3    H225522   6.412   1.654   9.303 -0.4109 -2.5772  2.1164
  443TIP3   OH225523   1.561   4.764   8.549  0.1365 -0.5990  0.2608
  443TIP3    H125524   1.649   4.748   8.583  0.3997 -0.6199 -0.4181
  443TIP3    H225525   1.511   4.686   8.573  1.1570 -2.0965 -2.1724
  444TIP3   OH225526   5.229   0.951   8.902  0.2478 -0.0825 -0.1085
  444TIP3    H125527   5.266   0.893   8.835 -2.5764 -0.9187 -1.0994
  444TIP3    H225528   5.296   0.956   8.969  1.8800 -1.9201 -1.4824
  445TIP3   OH225529   2.023   3.537   9.219  0.3063 -0.3754  0.4287
  445TIP3    H125530   2.070   3.516   9.300  3.5246  0.0148 -1.1613
  445TIP3    H225531   2.080   3.503   9.149 -1.8070  0.2443 -1.7173
  446TIP3   OH225532   2.180   5.109  11.013 -0.2539  0.0529 -0.0236
  446TIP3    H125533   2.268   5.135  11.041  0.4051 -0.5638 -1.4332
  446TIP3    H225534   2.129   5.190  11.019  0.9078  0.9077 -1.0628
  447TIP3   OH225535   1.528   5.165   9.232 -0.2327  0.2460 -0.2081
  447TIP3    H125536   1.571   5.080   9.220 -0.1247 -0.2124  2.6961
  447TIP3    H225537   1.600   5.228   9.232 -0.1373  0.1405 -0.7389
  448TIP3   OH225538   6.211   3.129  10.050  0.2983  0.5476 -0.2568
  448TIP3    H125539   6.177   3.040  10.052  0.4186  0.4243  3.2262
  448TIP3    H225540   6.287   3.125   9.993 -0.1930 -1.3485 -0.8418
  449TIP3   OH225541   3.926   0.530   8.623 -0.0233 -0.2118 -0.6599
  449TIP3    H125542   3.947   0.618   8.655  0.6435 -0.5282 -0.2114
  449TIP3    H225543   3.832   0.520   8.641  0.4263 -0.6076  1.8313
  450TIP3   OH225544   6.269   6.347  11.330 -0.0215 -0.2879  0.3351
  450TIP3    H125545   6.326   6.390  11.395  2.6901  0.2746 -2.1909
  450TIP3    H225546   6.303   6.258  11.324  0.0881 -0.1803 -0.6651
  451TIP3   OH225547   4.478   1.615  10.696 -0.3356  0.0648  0.1414
  451TIP3    H125548   4.505   1.606  10.787  0.1636  0.2874  0.0186
  451TIP3    H225549   4.555   1.586  10.645 -1.0913 -1.4682 -0.2090
  452TIP3   OH225550   0.969   4.432   9.064  0.2503 -0.3818 -0.1197
  452TIP3    H125551   0.979   4.524   9.040  0.7661 -0.3394  0.2357
  452TIP3    H225552   0.930   4.434   9.151 -0.9413 -0.5263 -0.6240
  453TIP3   OH225553   2.088   1.492  10.692  0.0506  0.3143  0.0213
  453TIP3    H125554   2.181   1.480  10.674  0.2424  1.0803  0.4601
  453TIP3    H225555   2.069   1.579  10.656 -0.5572  0.0571 -0.2899
  454TIP3   OH225556   1.205   6.494   9.962  0.1412  0.3033  0.1331
  454TIP3    H125557   1.254   6.575   9.951  3.9357 -1.9337 -1.1414
  454TIP3    H225558   1.218   6.447   9.880  0.7240 -2.8521  1.8731
  455TIP3   OH225559   6.446   0.016  10.416 -0.4987 -0.0958 -0.1178
  455TIP3    H125560   6.460  -0.078  10.431  0.5818 -0.3880 -2.5080
  455TIP3    H225561   6.531   0.056  10.432 -0.3237  0.1017 -1.4570
  456TIP3   OH225562   4.115   4.408   8.381  0.5173  0.0464  0.2145
  456TIP3    H125563   4.181   4.416   8.313  0.8456  0.6392  0.5889
  456TIP3    H225564   4.155   4.351   8.447 -0.9053 -3.0368 -1.3586
  457TIP3   OH225565   3.446   1.501   8.905 -0.3508  0.6342 -0.2095
  457TIP3    H125566   3.438   1.490   8.999 -0.6992  0.1036 -0.2968
  457TIP3    H225567   3.373   1.557   8.880  0.3591  1.6686 -0.0231
  458TIP3   OH225568   4.794   2.324   8.500 -0.1091  0.1854 -0.1164
  458TIP3    H125569   4.857   2.267   8.545  0.5494  1.0540  0.0780
  458TIP3    H225570   4.709   2.300   8.538  0.2297 -0.2884  0.3548
  459TIP3   OH225571   6.448   3.801   8.248  0.8196  0.4337 -0.1421
  459TIP3    H125572   6.431   3.877   8.304  2.7031  1.6794 -1.1408
  459TIP3    H225573   6.519   3.754   8.292  0.4939 -0.0828 -0.1556
  460TIP3   OH225574   4.963   5.210  11.249  0.2354 -0.1293  0.2052
  460TIP3    H125575   4.946   5.293  11.205  3.2051 -0.0355 -0.9919
  460TIP3    H225576   4.932   5.143  11.188  1.8250  0.0705 -0.8854
  461TIP3   OH225577   4.206   5.082  11.306  0.0286  0.1866  0.5646
  461TIP3    H125578   4.112   5.090  11.288 -0.2304 -4.1641 -1.4225
  461TIP3    H225579   4.210   5.051  11.396 -0.7372 -1.7036  0.0049
  462TIP3   OH225580   1.093   2.564  11.350 -0.0424 -0.0696 -0.2029
  462TIP3    H125581   1.003   2.582  11.377 -0.0288 -0.0950 -0.1393
  462TIP3    H225582   1.143   2.567  11.432  0.1745  0.9321 -0.3529
  463TIP3   OH225583   1.887   0.473  11.536 -0.4190  0.2766  0.2515
  463TIP3    H125584   1.897   0.545  11.599  1.9784 -0.9567  1.4150
  463TIP3    H225585   1.925   0.397  11.580 -3.5067 -1.9802 -0.6183
  464TIP3   OH225586   2.709   4.497   9.776 -0.3046 -0.4198 -0.8129
  464TIP3    H125587   2.631   4.465   9.730  0.4008 -1.0047 -1.6590
  464TIP3    H225588   2.781   4.445   9.738  0.5693  0.5517 -0.5162
  465TIP3   OH225589   2.608   5.957   9.712  0.0878 -0.1137  0.0124
  465TIP3    H125590   2.693   5.987   9.744  0.1845  0.0852 -0.4263
  465TIP3    H225591   2.549   6.030   9.728  0.2935  0.2797 -0.9264
  466TIP3   OH225592   5.067   4.787  11.303  0.3400 -0.1300  0.2426
  466TIP3    H125593   5.066   4.814  11.211 -2.3044 -0.0354  0.2140
  466TIP3    H225594   5.159   4.768  11.321  0.9882  0.0894 -2.3368
  467TIP3   OH225595   2.877   5.485   8.867  0.1586 -0.8183 -0.0795
  467TIP3    H125596   2.813   5.418   8.890 -1.8836  1.6222  1.9057
  467TIP3    H225597   2.829   5.567   8.872  2.7562  0.9265 -1.4908
  468TIP3   OH225598   5.790   6.174  10.032  1.3226 -0.3083 -0.7499
  468TIP3    H125599   5.739   6.249  10.066  2.2493  0.7975 -1.7384
  468TIP3    H225600   5.729   6.100  10.039  0.3108  0.5492  0.0832
  469TIP3   OH225601   0.752   0.979  10.166 -0.3678 -0.1523  0.0132
  469TIP3    H125602   0.835   0.934  10.149  2.2225  4.1140 -0.2017
  469TIP3    H225603   0.722   0.942  10.249  3.3875  0.0170  1.6585
  470TIP3   OH225604   2.595   4.574   8.134 -0.5043  0.2800 -0.0154
  470TIP3    H125605   2.572   4.529   8.216  0.8624 -1.8871 -0.7281
  470TIP3    H225606   2.656   4.643   8.161  0.8940 -1.1788  0.7518
  471TIP3   OH225607   4.079   6.308  11.431  0.0580 -0.1014 -0.1997
  471TIP3    H125608   4.118   6.276  11.350  0.8344 -1.0786  0.5142
  471TIP3    H225609   4.146   6.289  11.498 -0.4671  0.8800  0.6278
  472TIP3   OH225610   6.731   6.479  11.824  0.3927  0.3967 -1.2410
  472TIP3    H125611   6.799   6.505  11.886 -0.6575 -0.0944  0.1836
  472TIP3    H225612   6.733   6.384  11.825 -0.4888  0.3716 -0.9577
  473TIP3   OH225613   1.265   0.241  11.030 -0.0135  0.0732  0.2982
  473TIP3    H125614   1.229   0.226  11.117  0.8855 -0.8909  0.5170
  473TIP3    H225615   1.200   0.203  10.971  0.1111 -0.6684  0.6322
  474TIP3   OH225616   1.908   6.289   9.709 -0.2773  0.3927  0.0939
  474TIP3    H125617   1.919   6.370   9.759  1.0231 -0.2375  0.8796
  474TIP3    H225618   1.953   6.306   9.627  1.0905  0.0724  0.7469
  475TIP3   OH225619   3.856   0.616   9.056  0.3347 -0.3610  0.1045
  475TIP3    H125620   3.940   0.649   9.024 -0.2815 -0.4968 -1.7150
  475TIP3    H225621   3.834   0.544   8.997 -2.0664  1.0010 -0.7988
  476TIP3   OH225622   5.706   0.701  10.062  0.2746  0.5150 -0.3594
  476TIP3    H125623   5.705   0.641  10.136  2.1829  1.0511  0.1517
  476TIP3    H225624   5.680   0.647   9.987  1.6419 -0.8815  0.1252
  477TIP3   OH225625   1.188   0.208  11.691  0.3336 -0.4822  0.1274
  477TIP3    H125626   1.225   0.198  11.779 -0.9552 -2.0669  0.5292
  477TIP3    H225627   1.200   0.123  11.650 -2.2642 -0.9022  0.0738
  478TIP3   OH225628   6.173   2.329   8.374  0.8869 -0.1678  0.7162
  478TIP3    H125629   6.106   2.284   8.425  1.4118 -0.8630  0.8093
  478TIP3    H225630   6.156   2.422   8.388 -0.9350 -0.2961 -0.4248
  479TIP3   OH225631   0.333   3.125  11.584  0.3872  0.3514 -0.5190
  479TIP3    H125632   0.320   3.039  11.544  0.0178  1.0887 -2.0142
  479TIP3    H225633   0.301   3.114  11.674  0.5779 -1.1321 -0.6062
  480TIP3   OH225634   4.711   6.129  11.394 -0.5686 -0.4868 -0.0852
  480TIP3    H125635   4.647   6.173  11.451  0.5256  0.3893  0.5079
  480TIP3    H225636   4.762   6.074  11.453  1.1868  1.1413 -0.0088
  481TIP3   OH225637   4.162   4.165  10.968 -0.2310  0.1231  0.2533
  481TIP3    H125638   4.209   4.082  10.978  0.4626  0.6410  1.4771
  481TIP3    H225639   4.230   4.232  10.979 -0.9234  0.8636  0.0736
  482TIP3   OH225640   5.451   0.912   9.618  0.2899 -0.2789 -0.0097
  482TIP3    H125641   5.492   0.825   9.615  1.5454  0.3102 -1.1683
  482TIP3    H225642   5.417   0.925   9.530 -1.1344 -0.1274  0.5375
  483TIP3   OH225643   1.877   2.545  10.656 -0.0236 -0.1215 -0.3625
  483TIP3    H125644   1.899   2.618  10.713  1.1327 -0.1931 -0.6999
  483TIP3    H225645   1.831   2.585  10.582 -0.7742  0.0667  0.1956
  484TIP3   OH225646   6.682   3.128   8.134 -0.0228  0.4071 -0.3559
  484TIP3    H125647   6.689   3.165   8.046 -0.9916  1.0031 -0.1994
  484TIP3    H225648   6.601   3.078   8.132  2.1620 -3.5329 -1.1709
  485TIP3   OH225649   1.094   3.876   9.021  0.0017  1.2264 -0.2893
  485TIP3    H125650   1.011   3.921   9.008 -0.3913  0.0304 -2.5979
  485TIP3    H225651   1.096   3.810   8.951  3.1552  1.6148 -0.7310
  486TIP3   OH225652   3.102   4.729   8.788 -0.0094 -0.1244  0.0765
  486TIP3    H125653   3.142   4.644   8.809 -2.0801 -0.7456  1.9159
  486TIP3    H225654   3.013   4.708   8.762 -0.9181  1.5039  1.6481
  487TIP3   OH225655   0.940   2.962  10.349  0.1893  0.4017  0.0826
  487TIP3    H125656   1.036   2.963  10.343  0.3283  0.7813  1.7852
  487TIP3    H225657   0.912   2.898  10.283  1.6375 -0.0869 -0.0886
  488TIP3   OH225658   0.097   3.381  10.883 -0.0902  0.0948 -0.3045
  488TIP3    H125659   0.176   3.379  10.829  0.4874 -0.3527  0.5474
  488TIP3    H225660   0.126   3.356  10.970 -1.0787  0.4526  0.1484
  489TIP3   OH225661   3.611   0.911   8.864 -0.5290 -0.1212  0.1647
  489TIP3    H125662   3.678   0.978   8.848  0.2086 -0.8940  0.0067
  489TIP3    H225663   3.529   0.961   8.868  0.0075  0.7952  0.0377
  490TIP3   OH225664   2.799   1.190  10.712  0.0510 -0.1966  0.1577
  490TIP3    H125665   2.864   1.142  10.765 -2.4446 -1.8347  1.9601
  490TIP3    H225666   2.764   1.256  10.772 -0.5990  0.0280 -0.4679
  491TIP3   OH225667   4.508   5.470   7.961  0.3140 -0.0626  0.0899
  491TIP3    H125668   4.436   5.470   7.897  0.6425  1.4493 -0.3127
  491TIP3    H225669   4.511   5.560   7.993  2.4209  0.0609 -0.3444
  492TIP3   OH225670   3.263   1.170  10.924 -0.0988 -0.2692  0.8558
  492TIP3    H125671   3.198   1.214  10.979  0.4010 -0.4445  1.6047
  492TIP3    H225672   3.340   1.226  10.928  0.1088 -0.5417  0.7447
  493TIP3   OH225673   2.622   5.507  10.558  0.1512 -0.4051  0.0004
  493TIP3    H125674   2.569   5.445  10.507  1.6168 -2.7059  1.1129
  493TIP3    H225675   2.581   5.509  10.644 -0.0005  0.3641 -0.0823
  494TIP3   OH225676   6.187   1.191  10.973 -0.0073  0.1537  0.3160
  494TIP3    H125677   6.150   1.105  10.989 -0.3251  0.3183  0.4752
  494TIP3    H225678   6.140   1.249  11.032 -1.9748  0.9683 -1.8810
  495TIP3   OH225679   0.228   2.150  11.629 -0.3048 -0.2296  0.1390
  495TIP3    H125680   0.242   2.068  11.676  1.9848  0.0467  0.0460
  495TIP3    H225681   0.179   2.125  11.550  2.4144 -1.9748 -1.1283
  496TIP3   OH225682   1.834   1.286   9.752 -0.0668 -0.1399  0.2478
  496TIP3    H125683   1.783   1.356   9.712  0.1392 -0.4585 -0.5802
  496TIP3    H225684   1.799   1.206   9.714 -1.5115 -0.6818  2.4663
  497TIP3   OH225685   5.424   3.909  10.975 -0.1333 -0.2431 -0.0254
  497TIP3    H125686   5.447   3.868  10.891  3.7461  3.6611 -1.2560
  497TIP3    H225687   5.366   3.981  10.951  0.9028  0.8330  0.6200
  498TIP3   OH225688   5.032   1.439  11.187  0.1831 -0.1727  0.2637
  498TIP3    H125689   5.104   1.383  11.157 -0.0371 -1.2067  1.6008
  498TIP3    H225690   5.076   1.514  11.228  0.5175 -0.8986  1.2561
  499TIP3   OH225691   2.317   6.106  11.440 -0.0154 -0.4850  0.3866
  499TIP3    H125692   2.379   6.063  11.499  0.1581 -0.2104  0.4053
  499TIP3    H225693   2.371   6.141  11.369 -0.3082 -1.4808 -0.3405
  500TIP3   OH225694   3.807   5.753  10.485 -0.0265 -0.1542 -0.0520
  500TIP3    H125695   3.818   5.748  10.580  1.8262 -1.3182 -0.2703
  500TIP3    H225696   3.748   5.680  10.463  2.8163 -2.6521 -0.1138
  501TIP3   OH225697   6.300   6.389  10.357  0.5960  0.0014  0.2362
  501TIP3    H125698   6.318   6.410  10.449 -0.4700  1.6994  0.0996
  501TIP3    H225699   6.356   6.449  10.308  0.6974 -0.4694 -0.2277
  502TIP3   OH225700   2.324   1.175   9.036  0.4349  0.2846  0.0773
  502TIP3    H125701   2.413   1.162   9.002  0.1895  1.6591 -1.2444
  502TIP3    H225702   2.315   1.112   9.107  1.5408 -1.7006 -1.4646
  503TIP3   OH225703   5.003   5.610   9.826  0.2229 -0.3360  0.3795
  503TIP3    H125704   4.966   5.684   9.874  1.7107  0.3621  0.5110
  503TIP3    H225705   5.057   5.565   9.891 -0.3053 -1.2934  0.1766
  504TIP3   OH225706   6.285   5.462  11.406  0.6963  0.0012 -0.0803
  504TIP3    H125707   6.291   5.547  11.449 -1.8578  0.9821 -1.4277
  504TIP3    H225708   6.319   5.477  11.318 -0.6653 -0.0856 -0.6370
  505TIP3   OH225709   5.457   5.261  10.044  0.3319 -0.4952  0.4785
  505TIP3    H125710   5.449   5.323   9.972  0.5396 -0.0877  0.8039
  505TIP3    H225711   5.377   5.208  10.040  0.2236 -0.3032  0.1126
  506TIP3   OH225712   3.322   0.559   9.829 -0.1077  0.6913 -0.0393
  506TIP3    H125713   3.320   0.557   9.734 -0.1460  0.5329 -0.0346
  506TIP3    H225714   3.415   0.568   9.851 -0.0966  0.6964 -0.0907
  507TIP3   OH225715   4.347   1.180  10.515 -0.1382  0.4082  0.0186
  507TIP3    H125716   4.388   1.206  10.596  2.8322 -0.3445 -1.1219
  507TIP3    H225717   4.355   1.256  10.457 -2.3673  0.9957  0.3728
  508TIP3   OH225718   5.853   0.626   9.267  0.4542  0.1251 -0.3252
  508TIP3    H125719   5.889   0.550   9.220  0.9888  0.8171 -1.0478
  508TIP3    H225720   5.759   0.612   9.266  0.5773 -0.9549  0.2873
  509TIP3   OH225721   4.836   1.536  11.594 -0.0312 -0.0971 -0.6269
  509TIP3    H125722   4.825   1.554  11.501 -0.9094  3.4082  0.0218
  509TIP3    H225723   4.929   1.552  11.611 -0.2830  1.4126 -0.5636
  510TIP3   OH225724   0.930   5.002   9.554  0.0738 -0.2828 -0.2854
  510TIP3    H125725   0.907   5.078   9.500  1.5729 -0.5443 -1.3461
  510TIP3    H225726   0.848   4.953   9.561 -0.8957  1.3151  0.2985
  511TIP3   OH225727   0.052   2.070  11.232 -0.5384  0.6247  0.1296
  511TIP3    H125728   0.002   1.989  11.234  1.6923 -0.8438  1.7059
  511TIP3    H225729   0.068   2.086  11.139  0.3010 -1.6646 -0.1919
  512TIP3   OH225730   3.194   3.170   9.430 -0.3595  1.0988 -0.0653
  512TIP3    H125731   3.110   3.125   9.437 -0.7037  1.4536 -1.6563
  512TIP3    H225732   3.191   3.237   9.499  0.0798 -1.0818  2.2271
  513TIP3   OH225733   3.514   6.104  10.294 -0.5381  0.1592 -0.0239
  513TIP3    H125734   3.546   6.104  10.203 -1.2345 -1.8366 -0.3066
  513TIP3    H225735   3.545   6.022  10.331  0.0111  1.0902  1.6900
  514TIP3   OH225736   1.260   5.174   8.514  0.2790 -0.2915  0.3472
  514TIP3    H125737   1.177   5.128   8.531 -1.1209  1.0817 -2.3100
  514TIP3    H225738   1.304   5.121   8.448  0.4705  0.1773  0.0950
  515TIP3   OH225739   4.499   1.206   8.126  0.5568 -0.5839 -0.3277
  515TIP3    H125740   4.592   1.214   8.107  1.2230 -1.2877  2.2776
  515TIP3    H225741   4.493   1.135   8.190 -1.6740 -0.0380  0.1672
  516TIP3   OH225742   1.174   2.533   8.884 -0.2359 -0.0295 -0.2392
  516TIP3    H125743   1.248   2.514   8.941  0.2411 -2.2230 -1.4420
  516TIP3    H225744   1.184   2.471   8.811 -2.0366  1.1247 -1.5572
  517TIP3   OH225745   5.118   5.794   9.620 -0.2078 -0.0659 -0.6135
  517TIP3    H125746   5.198   5.745   9.605  0.0415  0.0271  0.3884
  517TIP3    H225747   5.053   5.728   9.646 -0.2363 -0.0378 -0.6132
  518TIP3   OH225748   1.178   1.236  10.032 -0.2146  0.3441  0.5949
  518TIP3    H125749   1.225   1.153  10.033  0.2900  0.6243  0.3479
  518TIP3    H225750   1.089   1.214  10.060  0.1972 -0.1019  1.5833
  519TIP3   OH225751   5.568   1.371   9.470 -0.0172 -0.5142 -0.3423
  519TIP3    H125752   5.476   1.346   9.483 -0.0083 -0.4173 -0.1010
  519TIP3    H225753   5.608   1.366   9.556 -0.4700  2.1496  0.1285
  520TIP3   OH225754   0.776   2.567   9.851 -0.2049 -0.5258 -0.4859
  520TIP3    H125755   0.795   2.635   9.917 -1.9858 -0.4465 -0.0212
  520TIP3    H225756   0.699   2.522   9.885 -0.7588 -0.9258 -2.2076
  521TIP3   OH225757   0.478   3.658  10.818  0.1548 -0.3926  0.0054
  521TIP3    H125758   0.416   3.697  10.757  0.3264 -0.5092 -0.2447
  521TIP3    H225759   0.532   3.731  10.848 -0.7751 -0.0932  1.0453
  522TIP3   OH225760   3.847   5.081   9.711 -0.7182  0.3351  0.3278
  522TIP3    H125761   3.894   5.093   9.794  0.4840  1.7791 -0.4997
  522TIP3    H225762   3.904   5.024   9.659 -0.8930  0.3969  0.0680
  523TIP3   OH225763   4.311   3.092  11.117  0.3687 -0.2357  0.0607
  523TIP3    H125764   4.323   3.084  11.212  0.9952  0.6709  0.0661
  523TIP3    H225765   4.239   3.154  11.107  1.5415  1.1681 -0.0496
  524TIP3   OH225766   0.048   2.763  10.266 -0.1393  0.0099 -0.1146
  524TIP3    H125767  -0.024   2.706  10.292 -0.2097 -0.4719 -1.3103
  524TIP3    H225768   0.036   2.777  10.172  0.9375  0.4834 -0.2058
  525TIP3   OH225769   0.466   2.221   9.345 -0.5417  0.2338  0.6998
  525TIP3    H125770   0.429   2.235   9.258 -2.9644 -1.6024  1.3469
  525TIP3    H225771   0.513   2.138   9.338  1.8664  1.5270  0.4470
  526TIP3   OH225772   2.852   5.449   9.391  0.1673  0.0521 -0.0734
  526TIP3    H125773   2.866   5.382   9.458  4.7970  2.0627  1.3893
  526TIP3    H225774   2.810   5.521   9.439  1.5684  0.6938  0.2552
  527TIP3   OH225775   4.264   0.352  10.671 -0.1848  0.0210 -0.0302
  527TIP3    H125776   4.297   0.391  10.590  3.8445 -1.1657  0.8237
  527TIP3    H225777   4.280   0.418  10.738 -1.6697  0.2236  0.1722
  528TIP3   OH225778   1.242   4.121  11.764 -0.2172 -0.4551 -0.6787
  528TIP3    H125779   1.295   4.103  11.842  0.1905 -0.3137 -0.9189
  528TIP3    H225780   1.306   4.125  11.693 -0.4395  0.6052 -0.8385
  529TIP3   OH225781   4.320   5.846   8.504  0.5624  0.2767 -0.4258
  529TIP3    H125782   4.389   5.868   8.441  1.0875 -1.2863 -0.4475
  529TIP3    H225783   4.238   5.860   8.456  0.9039  0.8878 -0.8365
  530TIP3   OH225784   0.424   4.390   8.255 -0.0877  0.5646  0.5192
  530TIP3    H125785   0.422   4.486   8.249 -1.3060  0.4366 -2.6131
  530TIP3    H225786   0.517   4.369   8.261  0.6918  1.8918 -3.6511
  531TIP3   OH225787   5.869   3.237  11.328  0.1714  0.2055 -0.3805
  531TIP3    H125788   5.846   3.328  11.348 -0.2032 -0.2816  1.6360
  531TIP3    H225789   5.927   3.243  11.253 -1.2356  1.9749 -1.4134
  532TIP3   OH225790   5.139   5.213  10.182 -0.4983  0.0909  0.1756
  532TIP3    H125791   5.085   5.206  10.261  1.2097  1.3650  1.5421
  532TIP3    H225792   5.229   5.206  10.214  0.2155 -0.6832 -1.8563
  533TIP3   OH225793   5.776   6.452  11.061  0.0244 -0.0732 -0.8285
  533TIP3    H125794   5.859   6.435  11.107 -0.3034 -2.6314 -1.0205
  533TIP3    H225795   5.716   6.386  11.095 -1.7723  1.3071 -1.1838
  534TIP3   OH225796   3.606   4.133  11.361 -0.2525  0.0360  0.1327
  534TIP3    H125797   3.694   4.111  11.392 -1.0476 -2.6546  0.7750
  534TIP3    H225798   3.557   4.152  11.440 -0.8184 -0.9257  0.0308
  535TIP3   OH225799   6.302   1.409   9.863 -0.2408 -0.5921  0.0588
  535TIP3    H125800   6.292   1.502   9.840 -0.9597  0.0267  2.5224
  535TIP3    H225801   6.218   1.386   9.903  0.8620 -1.4594  2.0285
  536TIP3   OH225802   5.272   3.145  11.234 -0.0491  0.2123 -0.3703
  536TIP3    H125803   5.329   3.219  11.213  1.2637 -0.5278  0.5013
  536TIP3    H225804   5.330   3.069  11.239 -1.3600 -0.9087 -1.2339
  537TIP3   OH225805   1.551   5.700  10.881 -0.3542 -0.0909 -0.3086
  537TIP3    H125806   1.514   5.741  10.959  2.1231 -0.2853  1.0866
  537TIP3    H225807   1.580   5.773  10.826  2.0376  0.1870  1.1538
  538TIP3   OH225808   1.938   4.899  10.041 -0.2118 -0.2809  0.2496
  538TIP3    H125809   1.902   4.828   9.988 -0.4173  0.3812 -0.5108
  538TIP3    H225810   2.016   4.860  10.082  0.0249 -0.7773 -0.6343
  539TIP3   OH225811   0.092   4.342  10.939 -0.0189  0.0278 -0.0089
  539TIP3    H125812   0.024   4.397  10.899  0.1095 -0.5084 -0.9879
  539TIP3    H225813   0.045   4.267  10.974 -0.2262  0.8396  1.5503
  540TIP3   OH225814   1.908   6.029  10.248  0.0349 -0.0134 -0.7271
  540TIP3    H125815   1.890   6.120  10.229  2.8506  0.6829 -0.4608
  540TIP3    H225816   2.002   6.025  10.263 -0.0232 -2.9223 -0.4528
  541TIP3   OH225817   2.050   2.776   8.965  0.7825  0.5683  0.5443
  541TIP3    H125818   2.144   2.776   8.944  0.5729  2.0658 -0.5132
  541TIP3    H225819   2.014   2.704   8.912  1.1966  0.5502  0.2822
  542TIP3   OH225820   5.226   1.246   8.617 -1.0081  0.4371  0.0757
  542TIP3    H125821   5.313   1.206   8.611 -1.3408 -0.3093  0.0454
  542TIP3    H225822   5.241   1.340   8.608 -0.2932  0.2477 -0.7617
  543TIP3   OH225823   2.212   4.839  11.491  0.3673 -0.1129  0.4155
  543TIP3    H125824   2.263   4.844  11.410 -1.3509 -0.9699 -0.7671
  543TIP3    H225825   2.202   4.929  11.520  0.4588  0.2473 -0.6632
  544TIP3   OH225826   3.868   3.418  11.250  0.1607  0.4803  0.2297
  544TIP3    H125827   3.786   3.384  11.287  0.3674 -0.5507 -0.2031
  544TIP3    H225828   3.923   3.437  11.326 -1.0710  2.8781  0.6198
  545TIP3   OH225829   2.986   4.492  11.116 -0.0335  0.3511 -0.5994
  545TIP3    H125830   2.913   4.482  11.177 -0.6800  0.9413 -1.2611
  545TIP3    H225831   3.059   4.445  11.157 -0.9437 -0.7465 -0.1988
  546TIP3   OH225832   1.702   1.884  10.302  0.3682 -0.1654  0.4301
  546TIP3    H125833   1.725   1.963  10.253  0.0565  0.3817  1.1485
  546TIP3    H225834   1.607   1.889  10.312  0.0489 -1.6358 -1.1931
  547TIP3   OH225835   1.775   0.924   8.751  0.0652 -0.5499 -0.7853
  547TIP3    H125836   1.723   0.895   8.827 -0.4695  1.0672 -0.4889
  547TIP3    H225837   1.844   0.859   8.743 -0.5110 -1.3527  0.4211
  548TIP3   OH225838   3.052   1.377  11.503 -0.1161 -0.5297 -0.4409
  548TIP3    H125839   3.045   1.445  11.436  1.7871 -0.1819 -0.3228
  548TIP3    H225840   2.965   1.374  11.543 -0.4859  1.2051 -1.0464
  549TIP3   OH225841   0.751   3.235  11.110  0.1102  0.2304  0.4356
  549TIP3    H125842   0.763   3.140  11.116  1.0269  0.2828 -0.2689
  549TIP3    H225843   0.714   3.249  11.022  2.1868  0.6770 -0.4293
  550TIP3   OH225844   1.793   3.214   8.922  0.7059  0.2387 -0.1075
  550TIP3    H125845   1.728   3.150   8.891 -0.4879  1.1817  0.3573
  550TIP3    H225846   1.857   3.219   8.852  1.1259 -1.8625  0.0728
  551TIP3   OH225847   1.893   5.660  11.008  0.1661 -0.1495  0.4259
  551TIP3    H125848   1.988   5.654  11.002  0.2558  1.4074 -0.5554
  551TIP3    H225849   1.862   5.628  10.923 -0.3077 -2.0691  1.2893
  552TIP3   OH225850   6.074   5.792  11.038  0.3782  0.1002  0.1431
  552TIP3    H125851   6.017   5.773  11.113 -0.9584 -0.0238 -0.8602
  552TIP3    H225852   6.060   5.884  11.019  0.0983 -0.0559 -0.4355
  553TIP3   OH225853   0.285   0.220  10.752 -0.2876  0.1775 -0.0400
  553TIP3    H125854   0.301   0.132  10.786 -1.6987 -1.3220 -2.8555
  553TIP3    H225855   0.190   0.233  10.763 -0.1779  1.1288 -0.1463
  554TIP3   OH225856   4.828   6.545   9.119  0.2347 -0.1704  0.2580
  554TIP3    H125857   4.803   6.469   9.067 -0.6772 -1.2001  2.0949
  554TIP3    H225858   4.775   6.539   9.198  1.8843  1.0348  1.5470
  555TIP3   OH225859   2.119   2.403  10.538 -0.3189  0.4979  0.3862
  555TIP3    H125860   2.031   2.398  10.577 -0.8564 -2.1390 -0.9338
  555TIP3    H225861   2.103   2.416  10.445  0.8009  2.0778  0.3857
  556TIP3   OH225862   6.191   6.100   8.811  0.8595 -0.2299  0.3546
  556TIP3    H125863   6.283   6.115   8.788  0.6931 -0.1349 -0.2447
  556TIP3    H225864   6.143   6.109   8.729  0.4648 -1.5547  0.4198
  557TIP3   OH225865   5.405   6.557  10.010  0.2455  0.4635 -0.0627
  557TIP3    H125866   5.455   6.580  10.088  0.6424  0.6310 -0.3624
  557TIP3    H225867   5.345   6.630   9.997  0.8564  0.9066 -0.4729
  558TIP3   OH225868   1.914   0.966  11.297 -0.1176 -0.2242  0.0543
  558TIP3    H125869   1.972   0.986  11.371  0.5767 -0.3644 -0.4375
  558TIP3    H225870   1.896   1.051  11.257  1.0557 -0.3183 -0.7330
  559TIP3   OH225871   4.746   3.495  11.603 -0.3991 -0.3999  0.0325
  559TIP3    H125872   4.686   3.444  11.657 -1.5961 -1.0835 -1.8640
  559TIP3    H225873   4.784   3.431  11.542  3.7647 -0.4050  2.2530
  560TIP3   OH225874   5.160   3.799   9.482  0.4344  0.2398  0.2709
  560TIP3    H125875   5.224   3.807   9.412  0.4100 -0.3633  0.1758
  560TIP3    H225876   5.147   3.705   9.493  0.1082  0.3365  0.7849
  561TIP3   OH225877   3.145   0.434  10.784 -0.7041 -0.3390 -0.2530
  561TIP3    H125878   3.215   0.372  10.763  0.2585  0.2837  0.9611
  561TIP3    H225879   3.136   0.487  10.704  1.0663  0.3380 -0.0619
  562TIP3   OH225880   3.781   4.192  11.119 -0.0378 -0.2339  0.0818
  562TIP3    H125881   3.795   4.103  11.086  0.7328 -0.4628  0.9834
  562TIP3    H225882   3.714   4.182  11.186  0.1757 -0.1654  0.3063
  563TIP3   OH225883   2.555   5.231   9.965 -0.0986 -0.2892 -0.5352
  563TIP3    H125884   2.596   5.156   9.922  0.7105  0.6627 -1.4513
  563TIP3    H225885   2.473   5.244   9.918 -0.5180 -0.9271 -0.0085
  564TIP3   OH225886   0.748   6.376  11.903 -0.3601 -0.4550 -0.2616
  564TIP3    H125887   0.841   6.395  11.889 -0.5500 -0.5262 -1.6876
  564TIP3    H225888   0.726   6.424  11.984  1.2384 -1.6075  0.9147
  565TIP3   OH225889   5.008   1.368  10.623  0.0536  0.1034 -0.4356
  565TIP3    H125890   4.944   1.324  10.567  0.4669 -0.1411 -0.7306
  565TIP3    H225891   4.976   1.354  10.712  1.3162 -2.8445 -0.2957
  566TIP3   OH225892   2.789   4.330   8.062  0.2505 -0.1371  0.0411
  566TIP3    H125893   2.841   4.353   7.985 -0.5526  0.2207 -0.4030
  566TIP3    H225894   2.706   4.375   8.049  0.6461  1.1943  1.8759
  567TIP3   OH225895   5.686   2.711   9.417 -0.3880 -0.2844  0.0734
  567TIP3    H125896   5.763   2.672   9.458  0.0193  0.3515 -0.0655
  567TIP3    H225897   5.717   2.740   9.331 -0.6072  0.5715  0.2779
  568TIP3   OH225898   4.940   0.099  11.741 -0.3190 -0.2012 -0.1635
  568TIP3    H125899   4.964   0.034  11.807  1.2789 -1.4799 -1.9132
  568TIP3    H225900   4.962   0.183  11.781 -0.9671 -0.7976  1.5494
  569TIP3   OH225901   3.294   4.829   9.422  0.3770  0.3134  0.1847
  569TIP3    H125902   3.248   4.912   9.427  1.0883  0.7314  0.0590
  569TIP3    H225903   3.242   4.769   9.474 -0.0652  0.8759  0.4023
  570TIP3   OH225904   0.879   6.472   9.632  0.2236 -0.0891  0.1471
  570TIP3    H125905   0.928   6.498   9.555 -1.2867  0.7548 -0.5880
  570TIP3    H225906   0.824   6.548   9.652 -1.1003 -1.1351  0.6304
  571TIP3   OH225907   2.215   6.113   9.000 -0.0158 -0.3706 -0.9109
  571TIP3    H125908   2.168   6.194   9.021 -1.5633 -1.6537  0.9608
  571TIP3    H225909   2.276   6.137   8.930 -1.5305  2.0186 -1.5003
  572TIP3   OH225910   6.203   1.975  10.080 -0.4898 -0.5970  0.0420
  572TIP3    H125911   6.110   1.961  10.061 -0.7213 -0.6539  1.1777
  572TIP3    H225912   6.237   1.887  10.097  0.0285 -0.7065 -1.3847
  573TIP3   OH225913   0.984   0.837   9.800 -0.0073  0.5276 -0.2612
  573TIP3    H125914   1.015   0.752   9.770 -0.6150 -0.3360  1.3960
  573TIP3    H225915   1.040   0.901   9.756  0.1415 -0.6915 -1.9183
  574TIP3   OH225916   0.451   2.557  10.716  0.2242 -0.4135 -0.0147
  574TIP3    H125917   0.366   2.587  10.747  0.1149  0.0452 -0.7319
  574TIP3    H225918   0.514   2.615  10.759  0.1338 -0.3395  0.0190
  575TIP3   OH225919   3.543   3.483  10.682 -0.7008  0.0407  0.0412
  575TIP3    H125920   3.490   3.550  10.725 -0.2171  0.3945  0.1039
  575TIP3    H225921   3.548   3.411  10.745  1.7145  1.3625  1.5279
  576TIP3   OH225922   4.858   4.293  10.632  0.2159  0.2329  0.4665
  576TIP3    H125923   4.855   4.206  10.672  1.6191  0.1123  0.3803
  576TIP3    H225924   4.901   4.348  10.698  2.4571  0.0576 -0.7413
  577TIP3   OH225925   4.365   2.488   9.552  0.3183  0.3772 -0.4172
  577TIP3    H125926   4.408   2.498   9.467  1.2483  0.7182  0.0921
  577TIP3    H225927   4.312   2.567   9.561  0.5410  0.5365 -0.4947
  578TIP3   OH225928   5.483   4.317  10.032 -0.2241  0.4383 -0.1007
  578TIP3    H125929   5.490   4.408  10.002 -1.9018  0.5695 -0.1859
  578TIP3    H225930   5.479   4.265   9.952  0.5441  0.2967 -0.0520
  579TIP3   OH225931   5.294   5.609  11.086  0.3505  0.0200  0.5141
  579TIP3    H125932   5.326   5.542  11.025  1.8638 -1.0595  2.3542
  579TIP3    H225933   5.220   5.567  11.130  0.4987  0.0173  0.7674
  580TIP3   OH225934   2.437   3.472  11.064 -0.2564  0.4556  0.0069
  580TIP3    H125935   2.476   3.386  11.080  0.0912  0.6232  0.0634
  580TIP3    H225936   2.387   3.491  11.144 -0.5673  0.1805 -0.1207
  581TIP3   OH225937   2.850   6.241  11.624 -0.4929 -0.7564  0.1932
  581TIP3    H125938   2.836   6.303  11.551  1.6078  2.0155  1.9166
  581TIP3    H225939   2.946   6.232  11.629 -0.7046 -3.6650  0.5270
  582TIP3   OH225940   4.938   0.732   8.852  0.1974 -0.2895 -0.3039
  582TIP3    H125941   4.851   0.692   8.850 -0.4201  0.8997  0.8637
  582TIP3    H225942   4.930   0.801   8.918  1.3444  1.3953 -1.8507
  583TIP3   OH225943   5.911   3.876  11.062 -0.9435  0.1053  0.3508
  583TIP3    H125944   5.926   3.782  11.077 -2.4134 -0.5274 -1.6689
  583TIP3    H225945   5.817   3.888  11.078 -1.1622  0.7933 -1.3020
  584TIP3   OH225946   1.983   1.111   9.401 -0.3354  0.1970 -0.2788
  584TIP3    H125947   2.077   1.119   9.415 -0.1390  0.0243 -1.4050
  584TIP3    H225948   1.956   1.197   9.369  0.0008 -0.5601 -2.8102
  585TIP3   OH225949   1.813   0.268   9.728 -0.2806 -0.3029  0.5580
  585TIP3    H125950   1.770   0.249   9.811  0.2023 -0.6899  0.7225
  585TIP3    H225951   1.750   0.323   9.681 -0.1685  0.6962  1.5471
  586TIP3   OH225952   1.845   2.598  10.105  0.4208 -0.4291 -0.0996
  586TIP3    H125953   1.856   2.691  10.125  2.2860 -0.7968  0.7569
  586TIP3    H225954   1.877   2.589  10.016  2.0871 -0.5424  0.4808
  587TIP3   OH225955   6.682   2.053   9.958 -0.3852 -0.1897  0.4318
  587TIP3    H125956   6.673   2.128   9.899 -1.6920 -1.2763 -0.8261
  587TIP3    H225957   6.745   1.996   9.914  0.2485 -0.0599  1.1531
  588TIP3   OH225958   0.281   1.697   9.377  0.0230  0.1003  0.0896
  588TIP3    H125959   0.358   1.653   9.343  0.1717 -0.2855  0.9004
  588TIP3    H225960   0.222   1.626   9.403  0.1509  0.3637  1.1521
  589TIP3   OH225961   5.429   5.355  11.535 -0.0179 -0.2671 -0.0034
  589TIP3    H125962   5.381   5.431  11.568 -0.2734 -0.2642 -0.3760
  589TIP3    H225963   5.451   5.304  11.614 -0.0286  0.0826  0.2268
  590TIP3   OH225964   1.197   4.885   9.463 -0.4752 -0.1337 -0.3351
  590TIP3    H125965   1.230   4.974   9.457 -2.1055  0.6518  1.4056
  590TIP3    H225966   1.104   4.895   9.485 -0.9845 -2.2638 -1.2390
  591TIP3   OH225967   2.288   0.571   8.482 -0.3835 -0.1946  0.4909
  591TIP3    H125968   2.215   0.632   8.472  0.0395  0.3468  0.6772
  591TIP3    H225969   2.349   0.595   8.412  0.2747  0.3020  1.2311
  592TIP3   OH225970   1.447   2.484   8.989  0.1106 -0.4049  0.2748
  592TIP3    H125971   1.470   2.464   8.898 -0.4406 -0.4182  0.1382
  592TIP3    H225972   1.531   2.503   9.031  0.2673  0.6906 -0.5008
  593TIP3   OH225973   4.697   6.087   9.433 -0.4600  1.0672  0.0729
  593TIP3    H125974   4.764   6.051   9.491 -0.9528  1.9575  1.2312
  593TIP3    H225975   4.659   6.011   9.391 -2.0883  0.0361  3.1092
  594TIP3   OH225976   5.187   5.417  10.625 -0.4888 -0.2212  0.7013
  594TIP3    H125977   5.110   5.432  10.570 -0.7916  0.3941  1.2828
  594TIP3    H225978   5.202   5.323  10.619 -0.0292 -0.0644 -1.0601
  595TIP3   OH225979   6.666   5.847   9.363  0.0713  0.4471 -0.1714
  595TIP3    H125980   6.581   5.811   9.337 -0.9294  1.6310  1.2622
  595TIP3    H225981   6.729   5.804   9.305 -1.5496 -0.0661 -1.6428
  596TIP3   OH225982   3.662   4.869  11.267  0.1950  0.0020 -0.0239
  596TIP3    H125983   3.637   4.931  11.335 -1.9874 -0.7226 -0.0684
  596TIP3    H225984   3.628   4.785  11.297  1.0816 -0.7472 -1.0202
  597TIP3   OH225985   5.577   1.481  11.712 -0.4711 -0.0802 -0.0528
  597TIP3    H125986   5.659   1.492  11.760  0.2776 -1.1164 -1.0202
  597TIP3    H225987   5.553   1.389  11.726 -0.8811 -0.0723 -0.6526
  598TIP3   OH225988   6.454   0.176  11.290 -0.4460  0.2520 -0.5195
  598TIP3    H125989   6.457   0.085  11.260  0.2563  0.4946 -1.2280
  598TIP3    H225990   6.544   0.194  11.319 -0.2482  1.1273 -1.6442
  599TIP3   OH225991   3.433   0.680   8.971 -0.3521  0.6861  0.1547
  599TIP3    H125992   3.512   0.731   8.986  0.6949 -0.4773 -1.1383
  599TIP3    H225993   3.421   0.682   8.876 -2.3827  1.5363  0.3769
  600TIP3   OH225994   1.436   2.921  10.888  0.4041  0.5110 -0.6420
  600TIP3    H125995   1.476   2.990  10.940  2.2339 -0.1515 -1.0779
  600TIP3    H225996   1.359   2.893  10.938  0.7299  1.5432  0.4664
  601TIP3   OH225997   2.338   0.726  10.964  0.5356 -0.0276  0.2470
  601TIP3    H125998   2.266   0.760  10.911  0.3184  0.0560  0.5954
  601TIP3    H225999   2.417   0.745  10.912  0.5496  2.1240  0.9560
  602TIP3   OH226000   1.219   3.110   9.805  0.3885 -0.3193 -0.2050
  602TIP3    H126001   1.275   3.125   9.881  0.0387  1.3238 -0.2518
  602TIP3    H226002   1.275   3.129   9.730 -0.3357  1.9813 -0.2424
  603TIP3   OH226003   3.096   2.836  11.032 -0.1994  0.1235  0.1468
  603TIP3    H126004   3.048   2.753  11.038  0.0868  0.0173  1.2835
  603TIP3    H226005   3.037   2.900  11.071  1.2488 -0.3443  3.4495
  604TIP3   OH226006   2.276   6.163  10.367  0.4427 -0.4632 -0.2174
  604TIP3    H126007   2.254   6.250  10.334 -0.0272 -0.0211  1.1966
  604TIP3    H226008   2.194   6.130  10.404  1.1081 -0.5941  1.2113
  605TIP3   OH226009   5.069   4.541   8.343  0.0223 -0.5721  0.0374
  605TIP3    H126010   5.066   4.453   8.307  0.2197 -1.3277  1.7872
  605TIP3    H226011   5.113   4.593   8.276  1.1026 -2.0786 -0.4658
  606TIP3   OH226012   2.331   6.742  10.562  0.3253  0.4532  0.4392
  606TIP3    H126013   2.408   6.687  10.549 -1.5286 -2.1269 -0.4233
  606TIP3    H226014   2.292   6.751  10.475 -0.5604  1.4484  0.9066
  607TIP3   OH226015   4.223   5.631  11.383  0.0161 -0.5880  0.0977
  607TIP3    H126016   4.210   5.722  11.356 -1.9443 -0.9963 -0.5011
  607TIP3    H226017   4.290   5.635  11.451 -0.4293  1.3722  0.4804
  608TIP3   OH226018   1.702   4.925   9.683  0.5347 -0.1456 -0.2899
  608TIP3    H126019   1.693   5.011   9.643  1.3296  0.0353 -0.0824
  608TIP3    H226020   1.626   4.918   9.741 -0.1741 -0.0719 -1.1795
  609TIP3   OH226021   2.505   1.040  10.961 -0.1159 -0.0629  0.6228
  609TIP3    H126022   2.423   1.073  10.924  0.2944  0.5213  0.2169
  609TIP3    H226023   2.564   1.115  10.959  0.5917 -0.6133  0.4356
  610TIP3   OH226024   2.122   4.455   8.904  0.8619 -0.4756  0.5595
  610TIP3    H126025   2.129   4.463   8.999 -3.2587 -0.1285  0.9878
  610TIP3    H226026   2.123   4.546   8.873  0.0717 -0.4788  0.5159
  611TIP3   OH226027   2.080   2.070  10.353  0.5413 -0.1345 -0.2882
  611TIP3    H126028   2.016   2.134  10.322  0.0952 -0.8030 -0.7623
  611TIP3    H226029   2.030   2.012  10.411  1.0325  0.1841  0.4692
  612TIP3   OH226030   2.422   0.666  11.231 -0.7626  0.1052  0.3393
  612TIP3    H126031   2.418   0.713  11.147 -0.1083  0.6258  0.5874
  612TIP3    H226032   2.346   0.697  11.280 -0.2930  0.9927  0.5334
  613TIP3   OH226033   5.952   2.839  10.366  0.3504  0.3435 -0.2456
  613TIP3    H126034   5.934   2.811  10.456 -0.6272  1.0917 -0.1787
  613TIP3    H226035   5.990   2.763  10.323 -0.4495 -0.4641  0.4361
  614TIP3   OH226036   3.370   5.481   9.184 -0.4802  0.6850 -0.6971
  614TIP3    H126037   3.462   5.461   9.165 -0.6757  0.6734 -1.7037
  614TIP3    H226038   3.325   5.397   9.177 -0.5985  0.7201 -0.3754
  615TIP3   OH226039   6.573   1.365   9.251  0.4549 -0.5789  0.0044
  615TIP3    H126040   6.589   1.408   9.167  0.5816  1.2285  0.9215
  615TIP3    H226041   6.658   1.327   9.275  1.2007  1.4039  0.6639
  616TIP3   OH226042   4.269   1.497  10.077  0.4329  0.2537  0.0059
  616TIP3    H126043   4.238   1.576  10.120  2.0261  1.1981 -0.4917
  616TIP3    H226044   4.226   1.497   9.991  1.9126  1.6953 -0.7928
  617TIP3   OH226045   5.101   1.111  11.147  0.2127  0.1954  0.0865
  617TIP3    H126046   5.023   1.090  11.095  0.3563  0.6855 -0.3399
  617TIP3    H226047   5.076   1.091  11.237 -0.1322 -0.4161 -0.1367
  618TIP3   OH226048   2.834   6.303  10.575 -0.2310  0.2353  0.2447
  618TIP3    H126049   2.778   6.300  10.497  0.5106  1.1630 -0.3397
  618TIP3    H226050   2.871   6.391  10.575  0.7746 -0.1702  0.9572
  619TIP3   OH226051   2.222   3.325  11.765 -0.0547  0.1533 -0.1170
  619TIP3    H126052   2.136   3.364  11.781  0.3824  1.3161 -0.5062
  619TIP3    H226053   2.284   3.382  11.811  0.3630 -1.8198  1.9024
  620TIP3   OH226054   3.873   3.221   9.749  0.0211 -0.9157 -0.1271
  620TIP3    H126055   3.905   3.146   9.698  0.9765  0.3447 -1.5009
  620TIP3    H226056   3.779   3.221   9.735  0.0858 -1.5153 -0.6174
  621TIP3   OH226057   0.270   4.983  10.641 -0.1033 -0.4752  0.5700
  621TIP3    H126058   0.177   4.990  10.618 -0.1286  0.9616  1.0148
  621TIP3    H226059   0.312   5.053  10.591  0.5797 -0.4797  1.1233
  622TIP3   OH226060   1.065   5.839  11.134  0.0992  0.0636  0.3536
  622TIP3    H126061   1.120   5.773  11.175 -1.5748 -0.7755  1.3381
  622TIP3    H226062   1.003   5.864  11.202 -1.3878  0.2163 -1.0046
  623TIP3   OH226063   4.966   0.269  11.286 -0.0033 -0.2639 -0.1448
  623TIP3    H126064   4.904   0.238  11.220  1.7138 -1.9632 -1.0783
  623TIP3    H226065   4.947   0.218  11.364 -0.3816 -0.0854 -0.1189
  624TIP3   OH226066   1.259   6.812  11.593  0.4007  0.0494 -0.0947
  624TIP3    H126067   1.183   6.760  11.570 -0.3079  1.3168 -0.7399
  624TIP3    H226068   1.325   6.748  11.618 -0.5808 -1.1224 -0.3950
  625TIP3   OH226069   2.360   5.182   9.774  0.0490 -0.1959  0.1435
  625TIP3    H126070   2.297   5.149   9.838  2.3507 -1.9486  1.7407
  625TIP3    H226071   2.313   5.247   9.723 -2.1640  0.7800  3.1790
  626TIP3   OH226072   0.069   0.281   9.607  0.1736 -0.3272  0.6723
  626TIP3    H126073   0.160   0.254   9.623  0.8906  1.4945  0.0033
  626TIP3    H226074   0.031   0.208   9.558  2.2116  0.0349 -1.7172
  627TIP3   OH226075   3.760   6.287  11.121 -0.5943  0.6884  0.0537
  627TIP3    H126076   3.818   6.211  11.120  1.1426  1.8737  1.8846
  627TIP3    H226077   3.717   6.286  11.036  2.3978 -0.1024 -1.5766
  628TIP3   OH226078   0.736   1.507   9.278 -0.4144 -0.4941 -0.2144
  628TIP3    H126079   0.722   1.461   9.194 -0.0562 -1.6313  0.3222
  628TIP3    H226080   0.776   1.440   9.334 -0.5739  0.2894  0.8390
  629TIP3   OH226081   1.240   1.853  10.826  0.1870  0.5314  0.2226
  629TIP3    H126082   1.167   1.908  10.801 -2.0759 -2.6849 -0.9280
  629TIP3    H226083   1.312   1.881  10.770 -1.5409  0.8654 -1.9472
  630TIP3   OH226084   2.206   1.309  11.881  0.2772 -0.1404  0.7833
  630TIP3    H126085   2.190   1.295  11.788  1.2457 -1.7619  0.8269
  630TIP3    H226086   2.215   1.221  11.918  0.7232  0.4863  2.2502
  631TIP3   OH226087   5.252   3.950  10.019 -0.0974 -0.3262 -0.5105
  631TIP3    H126088   5.275   3.980   9.931 -0.0151  0.1775 -0.3170
  631TIP3    H226089   5.205   3.868  10.005  0.3421 -0.5008 -1.0015
  632TIP3   OH226090   2.628   3.286  10.700 -1.1012 -0.2477 -0.5749
  632TIP3    H126091   2.648   3.271  10.608  2.3049  2.6995 -0.5566
  632TIP3    H226092   2.543   3.330  10.701 -2.2826 -2.3329 -1.9829
  633TIP3   OH226093   0.940   3.522   9.529  0.8206  0.7820 -0.0256
  633TIP3    H126094   0.980   3.607   9.549 -2.1656  2.4450 -0.6059
  633TIP3    H226095   0.851   3.543   9.501 -0.2042 -2.6035  0.2541
  634TIP3   OH226096   4.039   1.084  10.018  0.3295  0.2371  0.0128
  634TIP3    H126097   4.047   1.038  10.101  0.7019 -1.0673 -0.7171
  634TIP3    H226098   3.949   1.116  10.016  0.6191  1.2117  1.3664
  635TIP3   OH226099   3.904   1.972   9.480 -0.7652 -0.3435  0.3413
  635TIP3    H126100   3.867   2.059   9.463  0.1481 -0.1213 -0.6034
  635TIP3    H226101   3.993   1.989   9.510  0.6857 -0.9648 -3.1192
  636TIP3   OH226102   2.478   5.537  11.712 -0.0651 -0.1453  0.6659
  636TIP3    H126103   2.562   5.525  11.755  0.9123  1.0510 -0.8158
  636TIP3    H226104   2.431   5.600  11.768  1.0738  1.1821  0.1745
  637TIP3   OH226105   3.378   4.812  10.807  0.3140  0.5391 -0.0808
  637TIP3    H126106   3.366   4.719  10.823 -1.2689  0.1863 -2.7960
  637TIP3    H226107   3.459   4.818  10.756  0.8876  0.7967  0.8219
  638TIP3   OH226108   6.709   1.399  11.012  0.1886 -0.0162 -0.3956
  638TIP3    H126109   6.642   1.340  11.046 -0.5244 -0.2853 -2.1383
  638TIP3    H226110   6.776   1.341  10.975 -0.2924  0.2086 -1.6978
  639TIP3   OH226111   3.505   0.082   9.498  0.2144 -0.3295 -0.5184
  639TIP3    H126112   3.521   0.153   9.436 -1.0345 -0.4456 -1.0028
  639TIP3    H226113   3.534   0.003   9.453 -0.5762 -0.3981 -0.9351
  640TIP3   OH226114   5.808   2.232   9.601  0.1965 -0.1725 -0.4759
  640TIP3    H126115   5.778   2.262   9.686  2.1847 -0.2516  0.2981
  640TIP3    H226116   5.832   2.140   9.615  1.0325 -0.0407 -0.9823
  641TIP3   OH226117   6.446   2.865  11.148 -0.1946 -0.2751  0.1676
  641TIP3    H126118   6.368   2.814  11.125  0.2082 -0.7682 -0.1220
  641TIP3    H226119   6.508   2.801  11.183 -0.0233  0.1586  0.6782
  642TIP3   OH226120   2.133   1.245  10.541  0.2828 -0.3591 -0.5211
  642TIP3    H126121   2.105   1.206  10.624  0.7698 -2.6388 -1.3712
  642TIP3    H226122   2.051   1.274  10.500  0.0713  1.1518  0.8831
  643TIP3   OH226123   0.705   2.826   9.584  0.2070 -0.7130 -0.1747
  643TIP3    H126124   0.619   2.796   9.556  0.1488  1.0432 -2.1285
  643TIP3    H226125   0.689   2.871   9.667 -0.8712 -0.0427 -0.7156
  644TIP3   OH226126   6.633   2.217   8.696 -0.6747 -0.6054 -0.1050
  644TIP3    H126127   6.580   2.260   8.629 -1.0959 -0.9455  0.0081
  644TIP3    H226128   6.613   2.123   8.686 -1.2460 -0.5969  0.9350
  645TIP3   OH226129   6.120   6.128   9.684  0.2691 -0.0648 -0.1520
  645TIP3    H126130   6.064   6.068   9.733  1.1519  1.0579  2.3662
  645TIP3    H226131   6.060   6.196   9.652 -0.4930 -1.4167 -1.7633
  646TIP3   OH226132   2.570   1.596   9.260 -0.0761  0.5635  0.7001
  646TIP3    H126133   2.526   1.511   9.259 -0.0033  0.4814  2.1375
  646TIP3    H226134   2.660   1.576   9.284  0.7300  0.7703 -1.9296
  647TIP3   OH226135   0.005   5.069  10.580 -0.2127  0.2275  0.7881
  647TIP3    H126136  -0.038   5.076  10.665  0.9766  0.2975  1.4092
  647TIP3    H226137  -0.051   5.118  10.520 -0.2045  1.6192  1.8705
  648TIP3   OH226138   2.108   6.558  11.296 -0.0773 -0.5747 -0.2115
  648TIP3    H126139   2.064   6.578  11.213  0.6370 -0.0427 -0.4643
  648TIP3    H226140   2.162   6.635  11.314 -2.5944  0.7838  2.3651
  649TIP3   OH226141   4.845   3.191  10.721 -0.0692 -0.1958 -0.1932
  649TIP3    H126142   4.879   3.279  10.703  1.1253 -0.3579  1.1308
  649TIP3    H226143   4.766   3.185  10.667 -1.4545  2.5218  1.3057
  650TIP3   OH226144   5.057   6.819   9.677 -0.6440 -0.8441 -0.0636
  650TIP3    H126145   5.016   6.904   9.662  0.7161 -0.0486  0.5448
  650TIP3    H226146   4.984   6.757   9.681 -2.0664  0.8052  3.2186
  651TIP3   OH226147   4.325   0.941   9.092  0.1675  0.0823 -0.3758
  651TIP3    H126148   4.354   0.975   9.177  0.7858 -1.2121 -0.0535
  651TIP3    H226149   4.395   0.965   9.031 -0.5695  1.5839 -0.6953
  652TIP3   OH226150   1.092   0.828  11.442 -0.9098  0.5941  0.4667
  652TIP3    H126151   1.145   0.837  11.520 -0.2293 -1.2337  0.2721
  652TIP3    H226152   1.075   0.734  11.435 -0.2625  0.5784 -1.9913
  653TIP3   OH226153   6.710   2.825   8.522 -0.0430  0.5815  0.1304
  653TIP3    H126154   6.652   2.834   8.447  0.1758  0.7706 -0.0201
  653TIP3    H226155   6.702   2.734   8.549  0.1219  0.4290 -0.3266
  654TIP3   OH226156   1.734   6.500  10.098  0.1097 -0.1825 -0.0092
  654TIP3    H126157   1.648   6.541  10.114  0.3442  0.7379 -0.9584
  654TIP3    H226158   1.797   6.560  10.138  0.4323  0.2396 -1.1019
  655TIP3   OH226159   4.011   4.968   9.434  0.2637 -0.0369 -0.1111
  655TIP3    H126160   4.095   4.979   9.480 -0.1008  0.9971  0.3494
  655TIP3    H226161   3.995   5.054   9.394 -0.7723 -0.0946  0.1511
  656TIP3   OH226162   6.591   5.539   9.933  0.6073  0.3497  0.6305
  656TIP3    H126163   6.632   5.603   9.875  0.9647 -1.4345 -1.1874
  656TIP3    H226164   6.641   5.545  10.014  1.2034  1.7343  0.1877
  657TIP3   OH226165   2.420   5.042  10.508  0.3651  0.4309 -0.1028
  657TIP3    H126166   2.411   5.130  10.470  1.0136  0.8930  0.7743
  657TIP3    H226167   2.332   5.021  10.541  0.0382  0.4411 -0.9508
  658TIP3   OH226168   2.466   4.735  11.722  0.0336  0.6693 -0.4957
  658TIP3    H126169   2.528   4.778  11.663 -0.7130  0.6277 -1.3270
  658TIP3    H226170   2.468   4.643  11.697  2.1546 -0.0118  1.7472
  659TIP3   OH226171   0.618   0.169  10.834 -0.1073  0.2685 -0.1122
  659TIP3    H126172   0.554   0.099  10.848 -1.3590  1.6570  1.5840
  659TIP3    H226173   0.603   0.198  10.744 -1.9171  0.5533  0.2416
  660TIP3   OH226174   4.462   6.466   9.085 -0.4662 -0.0963 -0.3894
  660TIP3    H126175   4.480   6.446   9.177  1.9101  2.3375 -0.1779
  660TIP3    H226176   4.466   6.381   9.041  0.9766 -1.0553  1.4232
  661TIP3   OH226177   2.870   4.111  11.144  0.3878  0.6936  0.1364
  661TIP3    H126178   2.883   4.018  11.125 -0.7544  0.4267  0.5852
  661TIP3    H226179   2.876   4.154  11.058  5.1304  0.8300  0.2694
  662TIP3   OH226180   2.719   1.521  11.793 -0.4428  0.5540  0.3729
  662TIP3    H126181   2.630   1.489  11.782  0.6713 -2.6860 -0.3284
  662TIP3    H226182   2.720   1.561  11.880 -2.1421 -1.0385  1.1877
  663TIP3   OH226183   3.236   2.346  11.027  0.0281  0.4582  0.2160
  663TIP3    H126184   3.220   2.402  10.951 -0.3000  0.7794  0.5181
  663TIP3    H226185   3.188   2.388  11.098  1.5032  0.9685  0.9526
  664TIP3   OH226186   0.689   6.694   9.688 -0.3634 -0.4884 -0.8045
  664TIP3    H126187   0.702   6.784   9.716  0.9254 -0.4462 -1.4311
  664TIP3    H226188   0.599   6.673   9.713 -0.6912  0.9666 -0.6712
  665TIP3   OH226189   5.989   0.200  11.199 -0.1886  0.8373 -0.3328
  665TIP3    H126190   5.978   0.219  11.106  0.1679  1.0140 -0.3416
  665TIP3    H226191   6.063   0.254  11.227  0.2067  0.2171 -0.1273
  666TIP3   OH226192   6.759   1.256   9.422  0.6452 -0.0203 -0.1293
  666TIP3    H126193   6.674   1.283   9.458  1.0934  0.5767  0.5154
  666TIP3    H226194   6.766   1.164   9.446  0.3327  0.0161  0.1244
  667TIP3   OH226195   2.309   2.188  10.525 -0.5042  0.0785 -0.4771
  667TIP3    H126196   2.378   2.219  10.584 -0.8323 -0.2209  0.0845
  667TIP3    H226197   2.245   2.259  10.522 -0.3579  0.1996 -0.6811
  668TIP3   OH226198   2.477   6.010   8.421  0.2569 -0.6988 -0.0700
  668TIP3    H126199   2.430   6.093   8.419 -1.4447 -1.5504  1.7347
  668TIP3    H226200   2.567   6.035   8.443  0.1310  0.7692 -1.0892
  669TIP3   OH226201   6.648   6.370   8.965 -0.3185 -0.6876  0.8148
  669TIP3    H126202   6.732   6.411   8.985 -1.2370  1.5203  0.3867
  669TIP3    H226203   6.669   6.302   8.902  1.0987  0.0887  0.4046
  670TIP3   OH226204   4.010   0.350  11.576 -0.5397  0.4284  0.0363
  670TIP3    H126205   3.997   0.418  11.509 -1.9435  0.4819  0.3424
  670TIP3    H226206   3.974   0.271  11.537 -3.1209  0.8446  1.3823
  671TIP3   OH226207   1.095   3.334  10.724 -0.0622  0.2011  0.2723
  671TIP3    H126208   1.097   3.252  10.674 -1.4690 -0.6332  1.5051
  671TIP3    H226209   1.169   3.327  10.784  1.4253  1.0534 -1.3698
  672TIP3   OH226210   3.317   4.949  10.334 -0.2839 -0.1021 -0.3076
  672TIP3    H126211   3.274   4.872  10.297  1.6892 -1.9125  0.9971
  672TIP3    H226212   3.323   4.931  10.427  4.9337 -0.9696 -0.5489
  673TIP3   OH226213   3.777   0.229   9.831 -0.8039 -0.1385 -0.3060
  673TIP3    H126214   3.706   0.288   9.806 -0.2216  0.4374 -0.6051
  673TIP3    H226215   3.827   0.215   9.751  0.9108  1.4903  0.4105
  674TIP3   OH226216   4.809   0.269  11.985 -0.4023  0.0368 -0.1349
  674TIP3    H126217   4.782   0.191  12.035 -2.0325  1.0273  0.6465
  674TIP3    H226218   4.728   0.301  11.946  0.1664  1.5159 -0.1667
  675TIP3   OH226219   6.374   2.186   9.505  0.4130 -0.1943 -0.5353
  675TIP3    H126220   6.401   2.258   9.562 -1.2843  0.0513 -0.0188
  675TIP3    H226221   6.415   2.108   9.543 -0.3445  0.0288  0.7815
  676TIP3   OH226222   1.025   2.857   9.188  0.1444 -0.2836 -0.3535
  676TIP3    H126223   1.103   2.911   9.175  1.0890 -1.2548  0.8942
  676TIP3    H226224   1.002   2.825   9.101  2.0754 -1.1747 -0.5904
  677TIP3   OH226225   0.504   1.007  11.911 -0.6559  0.1032  0.4347
  677TIP3    H126226   0.501   1.043  12.000 -0.1429 -0.8502  0.8567
  677TIP3    H226227   0.501   1.083  11.854 -1.1380  0.7279  1.2693
  678TIP3   OH226228   4.182   2.362   9.755 -0.1112  0.0134 -0.1599
  678TIP3    H126229   4.096   2.334   9.723  0.4422 -1.7650 -0.1769
  678TIP3    H226230   4.239   2.360   9.678  0.8453 -2.7208  0.5148
  679TIP3   OH226231   0.285   5.648  10.376 -0.2106  0.0582  0.9839
  679TIP3    H126232   0.347   5.625  10.446 -1.0711 -0.0678  1.7176
  679TIP3    H226233   0.236   5.568  10.359 -0.2084  0.1711  0.4414
  680TIP3   OH226234   1.585   1.121  11.358  0.0796 -0.7950 -0.0032
  680TIP3    H126235   1.591   1.191  11.293  1.0833 -0.1856  0.7029
  680TIP3    H226236   1.589   1.040  11.307  0.5039 -0.3298 -0.7285
  681TIP3   OH226237   4.759   1.018  11.496  0.0358 -1.0581  0.0387
  681TIP3    H126238   4.742   0.980  11.410  1.6087 -0.0489 -0.7724
  681TIP3    H226239   4.759   1.113  11.480 -0.1523 -0.8332  1.2657
  682TIP3   OH226240   2.062   2.776   9.383  0.0206 -0.2343 -0.7400
  682TIP3    H126241   2.100   2.844   9.327 -1.5977  0.3785 -1.1325
  682TIP3    H226242   2.003   2.728   9.326  0.5659 -1.5226 -0.2676
  683TIP3   OH226243   0.351   3.887  10.672  0.0717  0.2244  0.3237
  683TIP3    H126244   0.344   3.843  10.587  0.4803 -0.9762  0.8879
  683TIP3    H226245   0.437   3.929  10.670 -0.1648  0.7008 -0.0765
  684TIP3   OH226246   0.037   5.404  10.628 -0.4197  0.2564  0.2948
  684TIP3    H126247   0.038   5.499  10.640 -1.2573  0.1345  1.4656
  684TIP3    H226248  -0.033   5.373  10.685 -2.3139 -0.7657 -2.3789
  685TIP3   OH226249   1.605   3.424   9.775  0.0954 -0.1101  0.2210
  685TIP3    H126250   1.512   3.437   9.794 -0.2344 -1.2185 -0.4650
  685TIP3    H226251   1.635   3.365   9.844 -0.2959 -1.5387 -0.7779
  686TIP3   OH226252   2.728   6.314  10.881  0.9213  0.3430 -0.4503
  686TIP3    H126253   2.797   6.329  10.817  0.3384 -0.0774 -1.1885
  686TIP3    H226254   2.707   6.221  10.873 -0.3729  0.6538 -0.9066
  687TIP3   OH226255   2.733   5.373  11.487  0.8999  0.9294 -0.0759
  687TIP3    H126256   2.677   5.428  11.434  1.7626  1.6259 -0.2856
  687TIP3    H226257   2.787   5.434  11.537 -1.3585  0.3888  3.3270
  688TIP3   OH226258   5.225   2.540  10.287  0.6104 -0.2883 -0.3728
  688TIP3    H126259   5.304   2.494  10.317  0.8790 -0.6915 -1.6155
  688TIP3    H226260   5.254   2.587  10.208 -0.3449 -0.2921 -0.7406
  689TIP3   OH226261   5.139   0.791  10.362 -0.2592  0.1982 -0.0490
  689TIP3    H126262   5.091   0.847  10.424  0.5671 -0.9171  1.6671
  689TIP3    H226263   5.082   0.716  10.348 -0.5264  0.5347 -0.8260
  690TIP3   OH226264   5.320   4.411   9.298  0.1958 -0.0291  0.2840
  690TIP3    H126265   5.360   4.355   9.365 -0.7974 -2.6172 -1.1426
  690TIP3    H226266   5.258   4.353   9.253 -1.3969  2.4500 -0.8851
  691TIP3   OH226267   3.541   3.177  10.129  0.5693 -0.4563  0.0952
  691TIP3    H126268   3.563   3.234  10.056 -0.3661  1.1230  0.9783
  691TIP3    H226269   3.529   3.091  10.090  0.5541  0.2453 -1.5312
  692TIP3   OH226270   0.544   2.797  11.625  0.7777  0.0366 -0.2213
  692TIP3    H126271   0.608   2.726  11.635 -1.1173 -2.0323 -1.6968
  692TIP3    H226272   0.466   2.765  11.670 -0.0024  1.3989 -0.5574
  693TIP3   OH226273   1.571   3.226  11.343  0.4619 -0.6431 -0.8299
  693TIP3    H126274   1.618   3.295  11.389  0.4458 -0.6884 -0.7457
  693TIP3    H226275   1.478   3.251  11.350  0.5376 -0.0528 -1.8149
  694TIP3   OH226276   1.823   5.300  10.206 -0.0265 -0.1275  0.2155
  694TIP3    H126277   1.757   5.320  10.139 -1.1876 -1.4213  0.9085
  694TIP3    H226278   1.778   5.317  10.289  1.1343  0.6899  0.7131
  695TIP3   OH226279   2.384   4.025   9.130 -0.3192 -0.0188 -0.2719
  695TIP3    H126280   2.452   4.090   9.143 -1.1163  1.0590 -1.2917
  695TIP3    H226281   2.330   4.060   9.059  0.0714 -2.4620 -1.9423
  696TIP3   OH226282   6.138   0.317   9.406 -0.0563 -0.4770  0.1831
  696TIP3    H126283   6.074   0.341   9.339 -0.8886  0.9915  1.4438
  696TIP3    H226284   6.196   0.393   9.413  1.4263 -1.4942 -0.4021
  697TIP3   OH226285   5.242   6.278   9.229 -0.3352 -0.1499 -0.2545
  697TIP3    H126286   5.194   6.338   9.171 -0.5437 -0.0147  0.0549
  697TIP3    H226287   5.268   6.333   9.303  0.2142 -0.2486 -0.3761
  698TIP3   OH226288   4.189   0.119   9.776  0.2202 -0.0699 -0.0376
  698TIP3    H126289   4.217   0.035   9.812 -1.2374 -1.2195 -1.4270
  698TIP3    H226290   4.267   0.152   9.731  0.3276 -1.6001 -1.0643
  699TIP3   OH226291   6.350   3.764  10.828  0.3057 -0.3703  0.6138
  699TIP3    H126292   6.387   3.680  10.800  0.3222 -0.6506  1.4290
  699TIP3    H226293   6.260   3.762  10.795 -0.5918 -1.9338  2.8747
  700TIP3   OH226294   5.516   0.232  11.243 -0.0124  0.4423  0.0509
  700TIP3    H126295   5.569   0.206  11.319  1.4822 -0.0359 -1.1148
  700TIP3    H226296   5.511   0.328  11.250  0.3741  0.4329  0.5677
  701TIP3   OH226297   3.178   6.793  11.803  0.3871  0.2182 -0.7784
  701TIP3    H126298   3.142   6.856  11.865 -2.2772 -1.8334 -0.0741
  701TIP3    H226299   3.225   6.730  11.857 -0.3131 -0.5375 -1.0415
  702TIP3   OH226300   2.272   2.675   9.209 -0.1405 -0.2488  0.2193
  702TIP3    H126301   2.271   2.617   9.285  3.4491 -0.1811  0.4935
  702TIP3    H226302   2.271   2.616   9.134 -0.9291 -0.4406  0.3758
  703TIP3   OH226303   0.760   4.419  11.336 -0.2838  0.0067  0.1879
  703TIP3    H126304   0.778   4.380  11.250 -2.2179  0.8495 -0.6664
  703TIP3    H226305   0.726   4.346  11.388  0.7454 -0.4760  0.1941
  704TIP3   OH226306   2.418   3.733  11.472 -0.2303 -0.3613 -0.2401
  704TIP3    H126307   2.349   3.753  11.535  0.3038 -0.8965  0.5363
  704TIP3    H226308   2.371   3.700  11.395 -0.8521 -0.4823  0.1794
  705TIP3   OH226309   0.425   0.394   9.818  0.4352 -0.3489  0.2908
  705TIP3    H126310   0.470   0.373   9.900 -0.4526  3.0380  1.8351
  705TIP3    H226311   0.347   0.442   9.845 -0.3526  0.1727 -2.5451
  706TIP3   OH226312   1.133   5.214   9.191 -0.6025 -0.3106 -0.4693
  706TIP3    H126313   1.063   5.274   9.217  1.1078  2.5269 -1.8262
  706TIP3    H226314   1.145   5.157   9.267 -2.5512  0.8619  0.8129
  707TIP3   OH226315   2.652   1.357   8.728 -0.0855 -0.3220  0.1733
  707TIP3    H126316   2.569   1.333   8.686  0.8995 -2.5689 -0.6441
  707TIP3    H226317   2.712   1.375   8.656  1.2080 -2.7075  0.5357
  708TIP3   OH226318   0.740   2.534  10.381  0.0772  0.1683 -0.3516
  708TIP3    H126319   0.647   2.511  10.380 -0.2324  1.1326  1.5857
  708TIP3    H226320   0.771   2.502  10.466  1.2820  0.7144 -0.5748
  709TIP3   OH226321   2.106   4.475  10.268 -0.0509  0.3972  0.5420
  709TIP3    H126322   2.110   4.530  10.346  0.0683 -0.3579  1.0736
  709TIP3    H226323   2.196   4.445  10.253 -0.0850  0.4712  0.1621
  710TIP3   OH226324   1.697   6.696  10.991 -0.3164 -0.2138 -0.5876
  710TIP3    H126325   1.662   6.783  10.971  0.0132 -0.0361 -0.4051
  710TIP3    H226326   1.645   6.666  11.065 -0.6262 -0.2954 -0.8375
  711TIP3   OH226327   2.385   4.781   8.208  0.0526  0.0270 -0.0877
  711TIP3    H126328   2.362   4.856   8.263  0.8666  0.6739 -0.5994
  711TIP3    H226329   2.420   4.716   8.268 -0.1112  0.2897  0.2932
  712TIP3   OH226330   1.230   6.087  10.837 -0.1505  0.5365 -0.7024
  712TIP3    H126331   1.237   5.992  10.836 -0.6887  0.5000 -1.0880
  712TIP3    H226332   1.313   6.118  10.800  1.0218  0.2935  1.4948
  713TIP3   OH226333   2.641   1.908   8.673 -0.0564  0.0497  0.7961
  713TIP3    H126334   2.568   1.959   8.707 -0.1650 -2.1114  4.3023
  713TIP3    H226335   2.719   1.951   8.710  0.1787  0.1707  0.1704
  714TIP3   OH226336   2.215   5.713  11.229 -0.0471  0.3688  0.2410
  714TIP3    H126337   2.197   5.687  11.319  2.1681  1.3043  1.0356
  714TIP3    H226338   2.160   5.791  11.216 -1.6325 -0.7209  0.1589
  715TIP3   OH226339   1.416   4.960   8.387  0.3806 -0.2446 -0.3571
  715TIP3    H126340   1.455   4.904   8.455  0.7574  0.4008 -0.0328
  715TIP3    H226341   1.491   5.002   8.345  0.0633  0.6391 -0.0593
  716TIP3   OH226342   4.606   5.759  11.312  0.0190  0.2190  0.1329
  716TIP3    H126343   4.613   5.822  11.239  1.0661  1.3705  1.1767
  716TIP3    H226344   4.557   5.686  11.275  0.8150  0.5989 -1.8563
  717TIP3   OH226345   6.131   0.787   9.845  0.2906  0.0363  0.7591
  717TIP3    H126346   6.109   0.845   9.773  2.9484 -0.0116 -0.2045
  717TIP3    H226347   6.055   0.730   9.855 -1.0331  1.5127 -0.4612
  718TIP3   OH226348   0.725   6.062   9.694  0.0876 -0.1465 -0.1374
  718TIP3    H126349   0.675   6.142   9.711 -0.0014 -0.5917  1.9360
  718TIP3    H226350   0.678   5.994   9.741  1.5920 -0.9320  0.2901
  719TIP3   OH226351   0.683   5.823   9.378 -0.1031  0.1400  0.3094
  719TIP3    H126352   0.723   5.906   9.401  1.6748 -1.1359  2.0725
  719TIP3    H226353   0.745   5.782   9.318 -0.3219 -0.4712  0.4901
  720TIP3   OH226354   5.409   2.162  11.001  0.2262 -0.6320 -0.4083
  720TIP3    H126355   5.463   2.089  10.972  0.5986  0.4246 -2.5810
  720TIP3    H226356   5.470   2.234  11.013 -0.5153  0.3095 -1.9516
  721TIP3   OH226357   4.878   6.687  11.338  0.3043 -0.1001 -0.2435
  721TIP3    H126358   4.833   6.622  11.392 -0.6852 -1.9606 -3.0656
  721TIP3    H226359   4.965   6.695  11.377 -0.3931 -1.1650  1.6684
  722TIP3   OH226360   4.428   6.674   9.372  0.2888 -0.2979  0.4826
  722TIP3    H126361   4.409   6.654   9.464 -0.6193  0.2421  0.4156
  722TIP3    H226362   4.343   6.670   9.328  0.8255 -1.4781 -0.5262
  723TIP3   OH226363   3.736   6.445   9.100  0.1418  0.4926  0.8423
  723TIP3    H126364   3.650   6.415   9.128  0.1898  0.0788  0.5576
  723TIP3    H226365   3.787   6.365   9.091  0.1374  0.6077 -0.3789
  724TIP3   OH226366   6.000   5.900  10.210 -0.6793  0.5975  0.1976
  724TIP3    H126367   6.063   5.870  10.144  1.5352 -0.3562  2.6148
  724TIP3    H226368   6.006   5.995  10.206  1.1867  0.5341  0.5624
  725TIP3   OH226369   3.719   6.001   9.440 -0.3457 -0.0349 -0.2036
  725TIP3    H126370   3.627   6.023   9.424 -0.7048 -1.9829 -1.0048
  725TIP3    H226371   3.739   5.932   9.378  1.8024  0.6087 -0.3030
  726TIP3   OH226372   2.933   0.742   8.645 -0.1224 -0.4868 -0.2559
  726TIP3    H126373   2.843   0.747   8.675  0.2976  1.0282  0.8600
  726TIP3    H226374   2.946   0.650   8.621 -1.1429 -1.3351  2.2103
  727TIP3   OH226375   1.744   2.891   9.915 -0.0225 -0.3993  0.0875
  727TIP3    H126376   1.675   2.923   9.975  0.9160  1.2570  0.3425
  727TIP3    H226377   1.714   2.917   9.828  0.0124 -0.1931  0.1380
  728TIP3   OH226378   6.721   3.184   8.920 -0.3171 -0.0460 -0.1725
  728TIP3    H126379   6.633   3.216   8.939 -0.9004 -1.5924 -0.0963
  728TIP3    H226380   6.764   3.256   8.873 -1.8698  0.4606 -0.8762
  729TIP3   OH226381   6.409   5.726   9.628  0.2615  0.4083 -0.1125
  729TIP3    H126382   6.381   5.817   9.613  1.3526  0.7261 -0.3046
  729TIP3    H226383   6.415   5.719   9.724 -1.0345  0.1394 -0.0234
  730TIP3   OH226384   2.868   0.807  10.902  0.2065  1.0862 -0.0932
  730TIP3    H126385   2.904   0.860  10.973 -1.7914 -0.6673  2.3956
  730TIP3    H226386   2.891   0.717  10.925 -1.3548  0.3804 -1.1308
  731TIP3   OH226387   3.453   2.858  12.128 -0.2838  0.2774  0.1769
  731TIP3    H126388   3.461   2.785  12.067  0.6106  0.2525  0.3172
  731TIP3    H226389   3.513   2.837  12.199  1.5337  2.0766 -0.7274
  732TIP3   OH226390   6.274   1.060   9.430 -0.3256 -0.1753 -0.2529
  732TIP3    H126391   6.358   1.035   9.391  0.0750  1.3769 -0.4286
  732TIP3    H226392   6.225   1.101   9.359 -0.4329  0.7585  0.3480
  733TIP3   OH226393   4.927   2.492   9.148 -0.2184 -0.8513  0.0334
  733TIP3    H126394   4.912   2.530   9.061 -0.2122 -2.0942 -0.5247
  733TIP3    H226395   4.952   2.567   9.202  1.1866 -0.2341 -1.3767
  734TIP3   OH226396   6.172   5.245  11.867 -0.3317 -0.3575  0.1665
  734TIP3    H126397   6.166   5.172  11.807  0.5447 -0.6052  0.3606
  734TIP3    H226398   6.265   5.268  11.867 -0.5250  0.4577  0.4548
  735TIP3   OH226399   4.210   4.671  10.511 -0.6437 -0.8641  0.4060
  735TIP3    H126400   4.180   4.746  10.562  0.7609 -0.3431  0.5122
  735TIP3    H226401   4.208   4.701  10.420 -0.9971 -1.0359  0.3530
  736TIP3   OH226402   5.116   3.939  10.339  0.4358 -0.0325 -0.6209
  736TIP3    H126403   5.043   3.942  10.276 -0.5256 -0.5690  0.4317
  736TIP3    H226404   5.086   3.992  10.413  1.4056  0.2995 -0.4513
  737TIP3   OH226405   1.078   2.027  10.705  0.2752 -0.1194 -0.1591
  737TIP3    H126406   1.044   2.090  10.769  1.7189 -0.2002  0.7368
  737TIP3    H226407   1.081   2.075  10.623  1.0659  0.9162  0.4486
  738TIP3   OH226408   5.875   4.258  10.639  0.1367  0.0513 -0.4036
  738TIP3    H126409   5.798   4.204  10.657 -0.0763  1.0837  2.0415
  738TIP3    H226410   5.937   4.237  10.709  0.3481  2.3779  0.1770
  739TIP3   OH226411   2.105   1.804  11.291 -0.1408  0.3470 -0.0631
  739TIP3    H126412   2.046   1.729  11.283  1.2374 -0.9864  1.4196
  739TIP3    H226413   2.157   1.803  11.211  0.8120 -1.1923  0.5304
  740TIP3   OH226414   1.393   2.526  10.013  0.1966 -0.4462  0.1426
  740TIP3    H126415   1.306   2.533  10.053  0.9916 -0.1422  1.9454
  740TIP3    H226416   1.388   2.449   9.956 -1.6316  0.3788 -0.8745
  741TIP3   OH226417   4.950   5.938  10.349  0.1476 -0.4206  0.2469
  741TIP3    H126418   4.877   5.990  10.315 -0.1499 -0.6988  0.4533
  741TIP3    H226419   4.926   5.919  10.440  1.0941  0.6030  0.7231
  742TIP3   OH226420   2.096   5.512  10.141  0.2455  0.1517  0.5772
  742TIP3    H126421   2.043   5.592  10.137 -0.4248 -0.3248 -1.0332
  742TIP3    H226422   2.186   5.542  10.127  0.4879  0.9609  3.2325
  743TIP3   OH226423   0.542   0.727  10.458 -0.3452 -0.0339 -0.2188
  743TIP3    H126424   0.570   0.636  10.450 -0.5291  0.0621 -2.6927
  743TIP3    H226425   0.624   0.776  10.465 -0.2485 -0.3554  1.2886
  744TIP3   OH226426   2.118   3.463   9.467  0.6615 -0.6424 -0.1514
  744TIP3    H126427   2.179   3.391   9.452 -0.3868 -1.8625  1.1792
  744TIP3    H226428   2.033   3.422   9.478  0.1807  0.6693  1.5947
  745TIP3   OH226429   6.331   0.693  10.980 -0.2417  0.0676 -0.6041
  745TIP3    H126430   6.403   0.671  10.920  1.5572  1.2961  1.0034
  745TIP3    H226431   6.374   0.727  11.058 -2.5951  0.8658  0.4323
  746TIP3   OH226432   5.599   6.488  11.884 -0.3576  0.0721 -0.5500
  746TIP3    H126433   5.575   6.560  11.824  1.4916  0.1746 -1.2452
  746TIP3    H226434   5.520   6.435  11.890 -0.2645 -0.8253 -4.4012
  747TIP3   OH226435   0.425   5.730   9.138 -0.2682 -0.2193  0.5250
  747TIP3    H126436   0.465   5.693   9.216 -0.8480 -1.2877  0.3475
  747TIP3    H226437   0.380   5.809   9.168 -0.6997 -0.7586  1.3316
  748TIP3   OH226438   3.005   0.875   9.927  0.3138  0.3803  0.1887
  748TIP3    H126439   2.920   0.893   9.968  0.3537  1.1648 -0.0588
  748TIP3    H226440   3.070   0.904   9.992  0.3763  1.7254 -0.4373
  749TIP3   OH226441   0.907   2.325   9.944 -0.0311 -0.2327  0.6553
  749TIP3    H126442   0.857   2.301  10.023  1.0173  0.0967  1.4372
  749TIP3    H226443   0.880   2.415   9.925 -2.1923 -1.1081 -0.8994
  750TIP3   OH226444   5.609   6.344   9.129  0.4767  0.4582  0.0310
  750TIP3    H126445   5.527   6.304   9.099 -0.9822  2.5750  0.9538
  750TIP3    H226446   5.653   6.275   9.179 -0.6561 -0.7512 -0.5774
  751TIP3   OH226447   0.321   4.305  10.107 -0.3069  0.3168  0.5127
  751TIP3    H126448   0.318   4.364  10.031  0.5373 -1.2411 -0.8017
  751TIP3    H226449   0.409   4.317  10.142 -0.4958  0.5988  0.8957
  752TIP3   OH226450   0.321   1.537  10.096 -0.2283 -0.7985  0.0128
  752TIP3    H126451   0.368   1.593  10.034  0.4150 -0.7427  0.5405
  752TIP3    H226452   0.337   1.448  10.064 -0.2915 -0.7459 -0.1675
  753TIP3   OH226453   0.591   5.834  11.292 -0.6068  0.1599  0.1517
  753TIP3    H126454   0.539   5.776  11.237  0.3528  0.2581 -0.8896
  753TIP3    H226455   0.588   5.919  11.247  1.7606 -0.2125 -0.8460
  754TIP3   OH226456   1.421   6.677  11.906  0.4029 -0.4134  0.1204
  754TIP3    H126457   1.420   6.628  11.823 -2.9594  0.1842 -0.3142
  754TIP3    H226458   1.422   6.609  11.974  0.2999 -0.9740 -0.4244
  755TIP3   OH226459   2.538   0.460  10.305 -0.4108  0.0552 -0.0356
  755TIP3    H126460   2.464   0.516  10.281  1.2531  2.3588 -0.0557
  755TIP3    H226461   2.574   0.431  10.222 -0.4173  0.1250 -0.0629
  756TIP3   OH226462   3.735   2.165  11.180 -0.7563  0.8142 -0.0753
  756TIP3    H126463   3.661   2.225  11.191 -2.7142 -1.1852 -1.5940
  756TIP3    H226464   3.698   2.078  11.196  1.8707 -0.1185  1.5440
  757TIP3   OH226465   0.492   0.618   9.647 -0.3001  0.0479 -0.3272
  757TIP3    H126466   0.469   0.689   9.707 -0.8247 -1.0330  0.8011
  757TIP3    H226467   0.473   0.538   9.696  0.8441 -0.8878 -1.3301
  758TIP3   OH226468   2.269   3.057  10.900  0.2560  0.2088  0.0174
  758TIP3    H126469   2.208   3.117  10.942  1.3314  2.6438 -1.6805
  758TIP3    H226470   2.328   3.029  10.970 -1.3952 -0.4296  1.2102
  759TIP3   OH226471   4.606   4.286   9.075 -0.0789 -0.2894  0.0749
  759TIP3    H126472   4.556   4.366   9.057 -0.7617 -0.2476  1.9215
  759TIP3    H226473   4.541   4.216   9.068  0.2557 -0.5563 -0.3598
  760TIP3   OH226474   4.693   1.293   9.510  0.3532 -0.8959  0.1300
  760TIP3    H126475   4.656   1.378   9.533 -0.3301 -0.8830 -0.9627
  760TIP3    H226476   4.673   1.282   9.417  2.0273 -1.4379 -0.2049
  761TIP3   OH226477   1.528   0.848  10.673 -0.2125 -0.1647 -0.5090
  761TIP3    H126478   1.581   0.927  10.664 -0.9158  0.4793  0.8365
  761TIP3    H226479   1.538   0.822  10.764 -2.5236  0.2046 -0.1027
  762TIP3   OH226480   5.318   6.239  11.396  0.4534  0.4943  0.3798
  762TIP3    H126481   5.363   6.163  11.430  0.3777  0.7129  0.9749
  762TIP3    H226482   5.264   6.205  11.325  0.6434  0.0453  0.4477
  763TIP3   OH226483   0.425   0.788  11.731 -0.3492  0.3939 -0.0651
  763TIP3    H126484   0.452   0.852  11.796  3.6976  0.6768 -1.7357
  763TIP3    H226485   0.387   0.840  11.660  0.5403  0.7191 -0.3148
  764TIP3   OH226486   4.485   4.845   8.328  0.2736 -0.0990  0.1031
  764TIP3    H126487   4.461   4.815   8.240 -1.1576 -1.0382  0.7770
  764TIP3    H226488   4.545   4.918   8.313 -0.4536  0.1784 -1.6600
  765TIP3   OH226489   1.528   0.016  10.265 -0.1166  0.8719  0.9144
  765TIP3    H126490   1.597   0.017  10.331  0.1283  2.1488  0.6647
  765TIP3    H226491   1.449  -0.010  10.313  0.2812  0.6998  1.4813
  766TIP3   OH226492   3.424   3.821  11.593 -0.1393  0.0121 -0.4772
  766TIP3    H126493   3.463   3.894  11.641 -1.3442  0.2204  0.2068
  766TIP3    H226494   3.440   3.841  11.501  1.9505 -0.2417 -0.2309
  767TIP3   OH226495   2.058   1.752  10.590  0.0155 -0.4940  0.0152
  767TIP3    H126496   1.983   1.808  10.570  0.3509 -0.4906 -1.3562
  767TIP3    H226497   2.133   1.811  10.593  0.4362 -0.8675 -1.8446
  768TIP3   OH226498   1.749   1.767   8.553 -0.2648 -0.6403  0.6025
  768TIP3    H126499   1.732   1.862   8.555  1.9093 -0.1664 -0.6191
  768TIP3    H226500   1.808   1.752   8.626  1.1465 -0.6228 -0.4986
  769TIP3   OH226501   1.345   1.335   9.826 -0.3722 -0.0776  0.0349
  769TIP3    H126502   1.285   1.303   9.893 -0.8834  0.0540 -0.3541
  769TIP3    H226503   1.400   1.259   9.804 -0.0405 -0.0531  0.7746
  770TIP3   OH226504   3.928   3.706  11.187 -0.1825 -0.5850 -0.3147
  770TIP3    H126505   4.012   3.697  11.232  0.4313 -1.6604 -1.6087
  770TIP3    H226506   3.885   3.621  11.200 -1.5938  0.3062  1.2609
  771TIP3   OH226507   5.388   5.597  11.647  0.0920  0.1577  0.1115
  771TIP3    H126508   5.297   5.579  11.668 -0.3349  1.0985 -0.7961
  771TIP3    H226509   5.385   5.631  11.557  1.4233 -0.5083 -0.2161
  772TIP3   OH226510   1.707   2.579   8.773 -0.2718 -0.3781  0.5105
  772TIP3    H126511   1.735   2.646   8.710  0.0546 -0.7639  0.2329
  772TIP3    H226512   1.756   2.501   8.747  0.2273 -0.4280  1.5381
  773TIP3   OH226513   5.451   6.521  10.942  0.5866 -0.4316 -0.0667
  773TIP3    H126514   5.405   6.437  10.935  1.4775 -0.8563 -1.0913
  773TIP3    H226515   5.442   6.561  10.855  0.2995  0.4733  0.3681
  774TIP3   OH226516   2.828   2.030  10.596 -0.1964 -0.0595  0.1684
  774TIP3    H126517   2.794   2.071  10.517 -0.9574  0.7254  0.8778
  774TIP3    H226518   2.832   1.936  10.576  1.0701  0.2772 -1.3016
  775TIP3   OH226519   6.822   6.102   8.555  0.4213 -0.0025  0.0266
  775TIP3    H126520   6.892   6.072   8.497  0.8985  2.0546 -0.5630
  775TIP3    H226521   6.741   6.084   8.507  0.6461 -0.7003 -0.1028
  776TIP3   OH226522   1.055   3.625   9.863 -0.0917  0.4514  0.0455
  776TIP3    H126523   1.011   3.673   9.793  0.7222  1.1030 -0.0397
  776TIP3    H226524   1.148   3.639   9.847  0.2210 -1.8050 -0.4218
  777TIP3   OH226525   2.774   6.797  11.199 -0.0210  0.1774  0.1737
  777TIP3    H126526   2.835   6.870  11.203  0.6338 -0.3866  0.6264
  777TIP3    H226527   2.695   6.834  11.159  0.7076  0.8389 -0.6862
  778TIP3   OH226528   1.815   4.543   9.067 -0.1688  0.3738 -0.0473
  778TIP3    H126529   1.843   4.633   9.052  0.8443  0.0390 -0.2010
  778TIP3    H226530   1.770   4.518   8.987  0.2469  0.4810 -0.3134
  779TIP3   OH226531   5.584   0.535   9.893 -0.1600 -0.3974 -0.2487
  779TIP3    H126532   5.594   0.446   9.928 -0.4965 -0.4713 -0.3330
  779TIP3    H226533   5.490   0.551   9.896 -0.0288  0.2999  0.6124
  780TIP3   OH226534   3.978   4.032   9.334  0.6117 -0.0498 -0.2455
  780TIP3    H126535   4.069   4.032   9.304  0.4230  1.4739 -0.8718
  780TIP3    H226536   3.971   4.109   9.390 -0.0879 -0.6492  0.5200
  781TIP3   OH226537   0.185   2.506  10.405 -0.2157 -0.1733  0.0162
  781TIP3    H126538   0.279   2.524  10.400 -0.3629  0.4503 -0.7481
  781TIP3    H226539   0.145   2.592  10.410 -0.7395 -0.4477  0.6444
  782TIP3   OH226540   5.688   5.152  10.876  0.0606 -0.0548 -0.9296
  782TIP3    H126541   5.618   5.174  10.938  0.6404 -0.1812 -0.2139
  782TIP3    H226542   5.741   5.087  10.923  0.4034 -0.2881 -1.6358
  783TIP3   OH226543   5.859   4.565   9.548  0.1212  0.5520 -0.0346
  783TIP3    H126544   5.878   4.472   9.553  0.2344  0.5265 -0.8868
  783TIP3    H226545   5.899   4.602   9.627  0.7814 -0.0015 -0.1091
  784TIP3   OH226546   2.727   0.343  10.507  0.0973  0.0602  0.0664
  784TIP3    H126547   2.678   0.411  10.461 -1.4327 -0.5391  0.7447
  784TIP3    H226548   2.709   0.263  10.459 -1.1315 -0.4890  1.3651
  785TIP3   OH226549   4.117   1.302   8.708  0.4207  0.2455  0.2050
  785TIP3    H126550   4.088   1.214   8.685  1.1907  0.5781 -2.3361
  785TIP3    H226551   4.211   1.295   8.720  0.9533  1.1055 -2.7147
  786TIP3   OH226552   3.015   3.256  10.266  0.0458  0.2014  0.3835
  786TIP3    H126553   2.992   3.347  10.286  2.3303  1.8803 -3.4311
  786TIP3    H226554   3.109   3.250  10.284  1.1985  0.4930 -4.1752
  787TIP3   OH226555   4.512   2.102  11.619  0.1819  0.0967  0.2021
  787TIP3    H126556   4.434   2.098  11.563  0.2260 -0.6016  0.1841
  787TIP3    H226557   4.532   2.011  11.640  1.3057  0.2208 -0.2317
  788TIP3   OH226558   5.296   5.965   9.852 -0.7216 -0.0658  0.4863
  788TIP3    H126559   5.251   5.931   9.929 -2.3977  1.0566  0.0597
  788TIP3    H226560   5.246   5.931   9.778  1.0603 -1.3959 -0.1643
  789TIP3   OH226561   4.311   1.836   9.721 -1.0185 -0.0303  0.3893
  789TIP3    H126562   4.400   1.869   9.717 -1.0706  0.0712  0.0152
  789TIP3    H226563   4.308   1.783   9.801 -0.5055 -0.3694  0.1902
  790TIP3   OH226564   0.534   5.228  10.246  0.0015 -0.1271  0.0370
  790TIP3    H126565   0.601   5.284  10.286 -0.5567  0.2104  0.5217
  790TIP3    H226566   0.572   5.201  10.163  0.4769  0.5847  0.0115
  791TIP3   OH226567   5.005   4.528   9.340 -0.2860 -0.0068 -0.6786
  791TIP3    H126568   4.995   4.531   9.245 -1.8202 -1.3190 -0.6088
  791TIP3    H226569   5.050   4.446   9.357 -0.8517 -0.2369 -0.2417
  792TIP3   OH226570   6.129   2.759  11.414 -0.2187 -0.4820 -0.2683
  792TIP3    H126571   6.188   2.698  11.370  2.5177 -0.0974  2.4870
  792TIP3    H226572   6.188   2.825  11.453 -2.5559  0.5039  1.8569
  793TIP3   OH226573   1.947   1.733   8.343  0.0116  0.3468  0.0167
  793TIP3    H126574   1.861   1.758   8.375 -0.2740 -0.3965 -0.1645
  793TIP3    H226575   1.970   1.655   8.393 -0.2301 -0.5486 -1.2180
  794TIP3   OH226576   3.779   2.370   9.075  0.6306  0.0327 -0.4132
  794TIP3    H126577   3.778   2.458   9.040 -4.0642  0.4097  0.1170
  794TIP3    H226578   3.747   2.315   9.004 -0.4488 -0.5446  0.4833
  795TIP3   OH226579   2.951   2.774   9.250 -0.4104 -0.1721 -0.3581
  795TIP3    H126580   3.044   2.768   9.272 -0.0903  2.1642 -0.8055
  795TIP3    H226581   2.950   2.778   9.154 -0.9055  0.4592 -0.3307
  796TIP3   OH226582   3.304   5.212  11.411 -0.5878 -0.2340  0.4751
  796TIP3    H126583   3.245   5.237  11.340  0.9169  0.3438 -0.5997
  796TIP3    H226584   3.350   5.135  11.379 -0.6411 -0.5951  1.2491
  797TIP3   OH226585   6.505   4.089  11.453 -0.0965  0.1121  0.5837
  797TIP3    H126586   6.431   4.029  11.450  0.1571 -0.2204  0.8848
  797TIP3    H226587   6.567   4.054  11.388 -0.1379  0.3037  0.4407
  798TIP3   OH226588   4.024   6.137   7.992 -0.1470 -0.3291 -0.5130
  798TIP3    H126589   3.975   6.218   7.976 -0.1565 -0.1867  0.2037
  798TIP3    H226590   4.100   6.165   8.044 -0.7423 -0.9258  0.7213
  799TIP3   OH226591   1.154   1.500  10.000  0.0991 -0.2028  0.4800
  799TIP3    H126592   1.155   1.407  10.022  0.1366  0.0338  1.4923
  799TIP3    H226593   1.150   1.545  10.084 -2.5427  0.6869 -0.0209
  800TIP3   OH226594   6.056   1.525  10.601 -0.3540  0.1067  0.1809
  800TIP3    H126595   6.057   1.619  10.581  0.3965  0.3402  1.2525
  800TIP3    H226596   6.140   1.492  10.569 -0.2500 -0.0243  0.5810
  801TIP3   OH226597   3.544   5.181   9.318  0.0301  0.8104 -0.5804
  801TIP3    H126598   3.481   5.250   9.301 -3.0289 -1.7213 -0.4789
  801TIP3    H226599   3.511   5.136   9.395  0.1370 -2.4790 -2.2745
  802TIP3   OH226600   6.479   5.531   9.059 -0.1380 -0.3147 -0.4557
  802TIP3    H126601   6.555   5.536   9.001 -0.3898 -0.6541 -0.8203
  802TIP3    H226602   6.437   5.448   9.036 -0.9286  0.1293 -0.6427
  803TIP3   OH226603   2.441   5.182  11.017 -0.6301 -0.4573 -0.5232
  803TIP3    H126604   2.485   5.128  10.952 -2.0432 -2.7331  0.2820
  803TIP3    H226605   2.507   5.196  11.085 -0.8378 -3.2956  0.3893
  804TIP3   OH226606   6.834   3.820   9.906 -0.0630  0.1703 -0.2312
  804TIP3    H126607   6.752   3.859   9.937  1.3324  1.5717  2.0331
  804TIP3    H226608   6.819   3.800   9.814 -2.8730  0.4938  0.0859
  805TIP3   OH226609   0.462   6.029  10.516 -0.2912 -0.1523  0.4225
  805TIP3    H126610   0.500   5.942  10.529  0.5284  0.2218  0.5854
  805TIP3    H226611   0.500   6.082  10.586  0.6975  0.7938 -0.7689
  806TIP3   OH226612   4.211   0.073  12.013 -0.0119 -0.3748 -0.0736
  806TIP3    H126613   4.284   0.104  12.067  1.4057 -0.4526 -1.8294
  806TIP3    H226614   4.250   0.060  11.926 -1.8805 -1.5489 -0.7904
  807TIP3   OH226615   2.956   0.313   8.369 -0.4875  0.4589  0.5020
  807TIP3    H126616   2.900   0.325   8.292 -1.8888 -1.6476  1.0996
  807TIP3    H226617   2.952   0.219   8.387  3.1816  0.2092  0.7083
  808TIP3   OH226618   4.794   3.157   9.084 -0.2143  0.4828 -0.2862
  808TIP3    H126619   4.808   3.102   9.007  3.7439  0.2676  0.3965
  808TIP3    H226620   4.758   3.097   9.150 -2.2129  0.3444 -1.4084
  809TIP3   OH226621   3.004   0.642   9.478 -0.4097  0.1116  0.1803
  809TIP3    H126622   3.045   0.693   9.548 -0.1898  0.3677 -0.1340
  809TIP3    H226623   2.937   0.590   9.522 -0.8407  0.8936  0.4591
  810TIP3   OH226624   5.421   6.595  10.546 -0.0212 -0.0210 -0.4111
  810TIP3    H126625   5.494   6.533  10.536  0.1590  0.4014 -1.8759
  810TIP3    H226626   5.343   6.540  10.541  0.1666 -0.3338  0.0075
  811TIP3   OH226627   2.434   6.099  10.604  0.3112  0.3688  1.1640
  811TIP3    H126628   2.475   6.154  10.538  0.7973  0.3906  1.4766
  811TIP3    H226629   2.347   6.137  10.617 -0.3355 -0.4842 -0.4777
  812TIP3   OH226630   5.489   5.222  11.051 -1.3313  0.0735 -0.5276
  812TIP3    H126631   5.520   5.299  11.098 -0.8272 -0.3184 -0.2045
  812TIP3    H226632   5.442   5.170  11.116 -0.3378 -0.6375 -0.3382
  813TIP3   OH226633   0.685   1.429  10.165  0.0358  0.2552  0.0271
  813TIP3    H126634   0.604   1.475  10.189 -0.4980  0.2447 -1.6446
  813TIP3    H226635   0.656   1.349  10.122  0.9665 -0.5394  0.8230
  814TIP3   OH226636   4.555   2.860  10.243 -0.6242 -0.2967  0.2560
  814TIP3    H126637   4.521   2.837  10.157 -0.4139  1.1029 -0.2413
  814TIP3    H226638   4.478   2.884  10.294 -0.5326  3.4203 -1.0396
  815TIP3   OH226639   1.302   3.658   9.568 -0.2416 -0.0447  0.7682
  815TIP3    H126640   1.268   3.747   9.555  0.5421  0.1013 -0.3708
  815TIP3    H226641   1.396   3.669   9.576 -0.2174 -0.6931  1.5871
  816TIP3   OH226642   3.629   5.546  10.447  0.7715 -0.0269  0.4009
  816TIP3    H126643   3.680   5.469  10.473  1.6299  0.9336  1.7351
  816TIP3    H226644   3.590   5.577  10.529  0.1319  0.7296 -0.1799
  817TIP3   OH226645   4.524   3.978   9.934 -0.2525  0.1183 -0.2462
  817TIP3    H126646   4.481   4.022  10.008 -0.7590 -0.5285 -0.1476
  817TIP3    H226647   4.523   3.886   9.957  1.7546  0.1148  0.0437
  818TIP3   OH226648   2.709   0.730  11.572 -0.1572 -0.3914  0.7650
  818TIP3    H126649   2.666   0.652  11.539 -1.6520 -0.0944  1.8739
  818TIP3    H226650   2.802   0.715  11.557 -0.5494 -1.5831 -0.6582
  819TIP3   OH226651   1.183   4.374   9.343  0.5193  0.3608 -0.1797
  819TIP3    H126652   1.122   4.413   9.405  1.0699 -0.8839  1.2009
  819TIP3    H226653   1.140   4.293   9.314 -0.6013  1.8285 -2.9917
  820TIP3   OH226654   4.281   0.713  11.685  0.4144  0.5153  0.3080
  820TIP3    H126655   4.321   0.798  11.665  0.1442  0.8178  1.0093
  820TIP3    H226656   4.202   0.735  11.734 -1.9736  0.0429 -3.0295
  821TIP3   OH226657   3.574   6.288   9.977  0.4205 -0.3220 -0.2158
  821TIP3    H126658   3.647   6.228   9.994 -0.2485 -1.6731 -1.8416
  821TIP3    H226659   3.605   6.344   9.906 -0.5364 -1.8158 -1.8918
  822TIP3   OH226660   0.562   4.570   8.450 -0.0610  0.0219  0.5381
  822TIP3    H126661   0.467   4.561   8.461  0.2257 -3.7453  1.3230
  822TIP3    H226662   0.591   4.482   8.426  3.1721  1.2947 -0.7084
  823TIP3   OH226663   4.873   0.312   8.885 -0.2101 -0.5011 -0.1023
  823TIP3    H126664   4.833   0.366   8.953 -0.7555  2.1839 -2.3620
  823TIP3    H226665   4.800   0.288   8.828  0.5572 -0.5639 -1.0855
  824TIP3   OH226666   2.420   4.427   8.856  0.2137  0.7051 -0.1170
  824TIP3    H126667   2.364   4.488   8.806 -0.3962 -0.3285 -0.7412
  824TIP3    H226668   2.470   4.381   8.789 -0.8923 -0.9791  0.1394
  825TIP3   OH226669   5.875   5.889   8.883  0.0481 -0.4859  0.3352
  825TIP3    H126670   5.807   5.936   8.834  0.3354 -1.7334 -1.3504
  825TIP3    H226671   5.955   5.906   8.834  0.9414  0.6671  2.0975
  826TIP3   OH226672   2.369   5.380  11.307 -0.3008 -0.4973 -0.0080
  826TIP3    H126673   2.428   5.444  11.346 -0.1940  1.2035 -2.7432
  826TIP3    H226674   2.282   5.421  11.314 -0.0379  0.8221 -3.1901
  827TIP3   OH226675   0.295   1.903   9.545 -0.9585 -0.1691  0.3801
  827TIP3    H126676   0.216   1.939   9.504 -1.5175 -1.0489  0.6704
  827TIP3    H226677   0.316   1.826   9.492 -0.1730  0.1758  0.1857
  828TIP3   OH226678   2.905   2.189   9.607  0.3994  0.5157 -0.5486
  828TIP3    H126679   2.940   2.117   9.554  0.9890  0.8656 -0.6425
  828TIP3    H226680   2.822   2.155   9.641  1.8994 -1.2450  1.6514
  829TIP3   OH226681   4.935   5.435  11.111 -0.7039 -0.3038 -0.0474
  829TIP3    H126682   5.010   5.451  11.169 -1.8897  1.1454  1.1899
  829TIP3    H226683   4.972   5.439  11.023  1.0347 -1.8684  0.5550
  830TIP3   OH226684   3.249   5.503   9.697 -0.3202  0.2195 -0.1777
  830TIP3    H126685   3.283   5.585   9.732 -1.7010  0.6173  0.2954
  830TIP3    H226686   3.234   5.448   9.774 -2.0957  0.6058 -0.1890
  831TIP3   OH226687   2.407   4.039   9.907  1.2089 -0.3750 -0.3432
  831TIP3    H126688   2.375   3.971   9.967 -2.9990  1.4678 -0.0966
  831TIP3    H226689   2.415   3.995   9.823  2.1815 -1.8967  0.4996
  832TIP3   OH226690   6.572   2.568  10.907 -0.8771 -0.6070 -0.2080
  832TIP3    H126691   6.517   2.635  10.868  2.2810  0.9212 -2.4740
  832TIP3    H226692   6.570   2.496  10.844  0.5433 -0.0518 -0.9320
  833TIP3   OH226693   0.623   2.897  10.182 -0.0004  0.1668 -0.6883
  833TIP3    H126694   0.571   2.926  10.258 -0.5238  0.2412 -1.0681
  833TIP3    H226695   0.642   2.978  10.135 -0.4404  0.0294 -1.1100
  834TIP3   OH226696   5.098   1.115  11.432  0.6021  0.1492  0.1324
  834TIP3    H126697   5.085   1.038  11.488  1.5363 -0.2631 -0.1920
  834TIP3    H226698   5.025   1.173  11.454  0.6447 -0.2366  1.3834
  835TIP3   OH226699   4.449   5.695   9.427 -0.1960 -0.0532 -0.3629
  835TIP3    H126700   4.414   5.685   9.516  0.2192  1.1338 -0.0487
  835TIP3    H226701   4.544   5.684   9.438 -0.0119  1.3252 -0.4381
  836TIP3   OH226702   5.295   2.480  11.102 -0.2023  0.5571 -0.1893
  836TIP3    H126703   5.328   2.450  11.018  1.9859  0.4546  0.6384
  836TIP3    H226704   5.201   2.495  11.088  0.1563  0.7897 -2.6762
  837TIP3   OH226705   4.700   4.222   9.322  0.0693  0.3546  0.6872
  837TIP3    H126706   4.659   4.229   9.236  0.2845  1.4795  0.6602
  837TIP3    H226707   4.785   4.266   9.312  0.1701  0.3391  1.4255
  838TIP3   OH226708   1.308   2.155  11.418  0.2214 -0.2269 -0.2603
  838TIP3    H126709   1.339   2.230  11.367  1.3245 -0.5422 -0.0921
  838TIP3    H226710   1.215   2.171  11.431  0.4251  1.0780 -0.2843
  839TIP3   OH226711   4.444   2.568   9.299  0.2735  0.2740  0.4025
  839TIP3    H126712   4.399   2.510   9.237  0.8467 -0.9791  1.1068
  839TIP3    H226713   4.530   2.526   9.313  0.8938  1.5592  0.5766
  840TIP3   OH226714   4.687   2.461   9.268  0.1959  0.1794 -0.2722
  840TIP3    H126715   4.767   2.485   9.222 -0.0018  1.1865 -0.1221
  840TIP3    H226716   4.709   2.381   9.315  1.4813  1.0362  0.6592
  841TIP3   OH226717   5.330   5.419  10.315  0.1738  1.1172  0.1706
  841TIP3    H126718   5.370   5.334  10.334 -1.2553 -0.2260 -2.2087
  841TIP3    H226719   5.254   5.422  10.373 -0.6571 -0.0297 -0.7978
  842TIP3   OH226720   2.729   1.209   9.229  0.0334 -0.3176 -0.5445
  842TIP3    H126721   2.685   1.213   9.144 -1.4227 -0.6473  0.1720
  842TIP3    H226722   2.665   1.170   9.288 -0.7578  3.9236  1.7818
  843TIP3   OH226723   0.403   4.601   9.558  0.3097  0.4172  0.6083
  843TIP3    H126724   0.413   4.507   9.568 -0.7732  0.3067  0.8274
  843TIP3    H226725   0.313   4.618   9.587  0.1158  1.3602 -0.5028
  844TIP3   OH226726   0.641   4.578  11.029 -0.7911 -0.2043  0.5464
  844TIP3    H126727   0.685   4.593  10.945 -0.9551  0.7757  0.6281
  844TIP3    H226728   0.560   4.628  11.022 -1.0541 -0.5491  1.0940
  845TIP3   OH226729   5.203   2.218  10.402 -0.1644 -0.7445  0.5580
  845TIP3    H126730   5.227   2.153  10.467 -1.5644 -0.5614  1.2792
  845TIP3    H226731   5.271   2.210  10.334  1.1733 -1.1097  1.8853
  846TIP3   OH226732   1.757   5.769   9.889 -0.0449  0.0435 -0.0050
  846TIP3    H126733   1.696   5.842   9.897 -1.1698 -0.9191  0.5756
  846TIP3    H226734   1.701   5.691   9.892  0.9937 -0.8338 -1.7126
  847TIP3   OH226735   0.547   0.396  11.501 -0.0130  0.2999  0.3675
  847TIP3    H126736   0.597   0.401  11.582 -0.2412 -1.1308  0.6194
  847TIP3    H226737   0.491   0.319  11.511 -1.7298  1.4028 -0.2253
  848TIP3   OH226738   2.662   5.172  10.220  0.1847 -0.0917 -0.3091
  848TIP3    H126739   2.643   5.170  10.127  1.6854 -0.1103 -0.6380
  848TIP3    H226740   2.648   5.081  10.249 -0.0571 -0.1331 -0.5490
  849TIP3   OH226741   0.912   0.553  10.543  0.2741  0.1428 -0.3651
  849TIP3    H126742   0.832   0.527  10.589  0.0906 -1.7069 -1.6336
  849TIP3    H226743   0.967   0.591  10.612 -0.7426 -0.7795  1.0212
  850TIP3   OH226744   5.346   0.512  10.981 -0.1642  0.0146 -0.2377
  850TIP3    H126745   5.380   0.592  11.023  0.1136 -0.0691 -0.2993
  850TIP3    H226746   5.315   0.459  11.054  0.2054 -0.0784 -0.1438
  851TIP3   OH226747   4.436   5.109  10.619  0.2646  0.3217 -0.8152
  851TIP3    H126748   4.439   5.082  10.528 -1.2117  0.6473 -0.9830
  851TIP3    H226749   4.420   5.028  10.668 -1.9691  0.5324 -1.1284
  852TIP3   OH226750   5.738   1.714   9.041  0.4624 -0.5795 -0.5513
  852TIP3    H126751   5.760   1.807   9.039  0.1658 -0.4923 -3.1981
  852TIP3    H226752   5.665   1.708   9.103  0.3050  0.9772 -0.5533
  853TIP3   OH226753   6.482   2.826  10.213  0.1724 -0.1064  0.1271
  853TIP3    H126754   6.548   2.870  10.159 -0.3151  0.4312 -0.0412
  853TIP3    H226755   6.424   2.897  10.241 -0.0486 -0.5049  0.6791
  854TIP3   OH226756   6.125   1.084  10.300 -0.2640 -0.0720 -0.1920
  854TIP3    H126757   6.093   0.994  10.305  1.6329 -0.8277 -0.8809
  854TIP3    H226758   6.174   1.088  10.218 -0.9096  1.8215 -0.5332
  855TIP3   OH226759   1.621   0.401   8.801  0.7200 -0.1310  0.4331
  855TIP3    H126760   1.708   0.442   8.796  0.5774  0.0714 -0.4914
  855TIP3    H226761   1.560   0.472   8.779  0.4296 -0.6597 -0.5182
  856TIP3   OH226762   4.583   3.560   9.733  0.4068  0.1032  0.2860
  856TIP3    H126763   4.525   3.486   9.716 -0.0040  0.2704  0.9257
  856TIP3    H226764   4.657   3.546   9.674  0.2030 -0.6636  0.2007
  857TIP3   OH226765   1.493   2.360   8.736  0.4012 -0.0332 -0.2602
  857TIP3    H126766   1.538   2.367   8.652  0.5120 -0.5666 -0.2511
  857TIP3    H226767   1.400   2.356   8.713  0.4497 -0.5173 -0.3802
  858TIP3   OH226768   5.788   3.384   8.161  0.3575 -0.1905 -0.3471
  858TIP3    H126769   5.796   3.428   8.076  2.2289  0.8886  0.3128
  858TIP3    H226770   5.858   3.319   8.161  0.0301 -0.5497  0.1625
  859TIP3   OH226771   5.947   4.460  11.457  0.0449  0.8625  0.8642
  859TIP3    H126772   6.040   4.465  11.481 -0.4897  2.7850  2.8649
  859TIP3    H226773   5.946   4.411  11.375  2.9687  1.9776  0.0273
  860TIP3   OH226774   4.323   3.489  10.694 -0.1147 -0.0716  0.1846
  860TIP3    H126775   4.358   3.578  10.688  1.9552 -0.6692  1.9244
  860TIP3    H226776   4.297   3.479  10.786 -1.3347 -0.9225 -0.2287
  861TIP3   OH226777   0.370   0.079  10.245 -0.1129  0.3900  0.3920
  861TIP3    H126778   0.291   0.062  10.192  1.8168  1.9891 -3.3867
  861TIP3    H226779   0.413  -0.007  10.251 -1.3582 -0.2068  1.1794
  862TIP3   OH226780   3.633   5.469   9.188 -0.0545 -0.5444 -0.5758
  862TIP3    H126781   3.728   5.478   9.180  0.1918 -1.5197  0.8548
  862TIP3    H226782   3.618   5.453   9.281 -1.5020 -1.5861 -0.9473
  863TIP3   OH226783   4.289   1.942   9.348  0.2265 -0.1764  0.1766
  863TIP3    H126784   4.282   2.037   9.334  0.1059  0.0403  1.5212
  863TIP3    H226785   4.231   1.904   9.282  0.1033  0.6929 -0.2374
  864TIP3   OH226786   1.595   5.577  12.085  0.2111  0.8358 -0.1596
  864TIP3    H126787   1.503   5.581  12.108  0.2977 -1.7761  0.9567
  864TIP3    H226788   1.598   5.604  11.993 -1.4608  2.0923  0.1175
  865TIP3   OH226789   3.437   6.233   8.619 -0.1520  0.7928 -0.3263
  865TIP3    H126790   3.467   6.218   8.709 -1.6897  0.6687  0.2069
  865TIP3    H226791   3.494   6.302   8.586 -0.6640  2.1125  1.3803
  866TIP3   OH226792   3.672   1.027  10.394  0.2481 -0.3522  0.0131
  866TIP3    H126793   3.727   0.949  10.404 -0.2441 -0.7309 -0.1850
  866TIP3    H226794   3.599   1.012  10.454  0.8498  0.6066  1.0228
  867TIP3   OH226795   3.966   0.455   8.378  0.3778  0.7147  0.0489
  867TIP3    H126796   3.944   0.463   8.471 -2.8223 -1.2354 -0.3893
  867TIP3    H226797   3.915   0.524   8.335 -1.5374 -0.9914 -0.5677
  868TIP3   OH226798   5.572   4.766  11.500 -0.3454  0.2981 -0.4420
  868TIP3    H126799   5.573   4.702  11.571 -1.4167  0.9122  0.1543
  868TIP3    H226800   5.658   4.758  11.459 -0.7504 -2.1447 -0.9668
  869TIP3   OH226801   0.904   2.711  11.815 -0.4710 -0.1145  0.1753
  869TIP3    H126802   0.907   2.793  11.765  0.1335  1.6779  2.9517
  869TIP3    H226803   0.812   2.683  11.809 -0.4272  0.0402 -1.8367
  870TIP3   OH226804   2.419   4.630   9.116 -0.5160  0.0070  0.1100
  870TIP3    H126805   2.436   4.672   9.200 -2.5573 -0.3311  0.7615
  870TIP3    H226806   2.399   4.539   9.139 -0.3840 -0.2684 -0.8229
  871TIP3   OH226807   3.156   4.220  11.002  0.1722  0.6517  0.4966
  871TIP3    H126808   3.181   4.132  11.030  0.7833  0.6493 -0.0285
  871TIP3    H226809   3.171   4.274  11.079 -2.4525 -0.0506  1.5994
  872TIP3   OH226810   1.494   0.549  10.738  0.5990 -0.6775 -0.1796
  872TIP3    H126811   1.525   0.568  10.827  1.5424  0.1180 -0.6565
  872TIP3    H226812   1.573   0.523  10.690  0.5208  1.0977 -1.3513
  873TIP3   OH226813   3.193   4.136   7.952 -0.0692  0.2060  0.6632
  873TIP3    H126814   3.157   4.192   7.883 -0.4228  0.6350  1.1986
  873TIP3    H226815   3.146   4.160   8.031 -0.8475 -1.4421  0.7445
  874TIP3   OH226816   6.565   5.549   8.438 -0.0140 -0.0780  0.1572
  874TIP3    H126817   6.534   5.487   8.372 -1.7085 -0.2573  1.0703
  874TIP3    H226818   6.566   5.633   8.392  0.1390 -0.4145 -0.4653
  875TIP3   OH226819   2.730   6.741  11.645 -0.1504  0.0737 -0.3154
  875TIP3    H126820   2.656   6.681  11.630 -0.2438  0.6094 -2.2897
  875TIP3    H226821   2.808   6.685  11.639 -0.3213 -0.6829  2.7599
  876TIP3   OH226822   0.174   4.906   8.734  0.0945  0.3609  0.9882
  876TIP3    H126823   0.104   4.867   8.785  1.7916 -0.9767  2.4145
  876TIP3    H226824   0.177   4.853   8.654  0.6075 -0.7533  1.7161
  877TIP3   OH226825   5.559   4.494  10.966  0.0447  0.0917  0.5067
  877TIP3    H126826   5.577   4.532  11.052  0.8661  1.1530 -0.1095
  877TIP3    H226827   5.644   4.486  10.924 -0.5224  2.1582 -1.2265
  878TIP3   OH226828   3.464   6.576  11.212 -0.6956 -0.1158 -0.6249
  878TIP3    H126829   3.559   6.565  11.225 -1.1307 -2.3214  1.2743
  878TIP3    H226830   3.444   6.661  11.252  0.1177 -0.8010  1.3360
  879TIP3   OH226831   2.841   1.713  10.215 -0.4530  0.0515 -0.1998
  879TIP3    H126832   2.797   1.751  10.291 -0.5923 -1.8065  0.7224
  879TIP3    H226833   2.826   1.774  10.144 -0.1640  1.9586  1.3091
  880TIP3   OH226834   4.697   3.739   8.790 -0.2313 -0.8638 -0.7253
  880TIP3    H126835   4.635   3.689   8.843 -2.9246 -0.0773 -2.9124
  880TIP3    H226836   4.705   3.689   8.709 -0.5202  0.6365 -1.7096
  881TIP3   OH226837   3.730   6.029   9.970  0.2460  0.9893 -0.0219
  881TIP3    H126838   3.748   5.938   9.995  1.6038  1.3677  0.4315
  881TIP3    H226839   3.769   6.038   9.883  1.2881  1.4878  0.4800
  882TIP3   OH226840   5.868   1.941   9.331  0.4077 -0.1037 -0.3114
  882TIP3    H126841   5.901   1.979   9.250 -0.5081  0.5475 -0.3905
  882TIP3    H226842   5.861   1.848   9.313 -1.3609  0.2288 -1.5552
  883TIP3   OH226843   6.292   5.129  10.401 -0.4974 -0.0451 -0.3646
  883TIP3    H126844   6.367   5.093  10.354  0.5575  1.4895  0.0665
  883TIP3    H226845   6.216   5.105  10.347  0.3887 -0.8140 -1.3026
  884TIP3   OH226846   1.038   1.486  11.704 -0.0928  0.2263  0.2802
  884TIP3    H126847   0.987   1.513  11.780 -1.6916 -0.3568 -0.5540
  884TIP3    H226848   1.001   1.535  11.631  1.6880  1.0959 -0.1011
  885TIP3   OH226849   6.391   5.331   9.455 -0.1966  0.1022 -0.5110
  885TIP3    H126850   6.465   5.392   9.459 -0.0468 -0.1210  0.1681
  885TIP3    H226851   6.391   5.299   9.365 -0.0691  0.8499 -0.7817
  886TIP3   OH226852   1.936   3.804  11.573  0.2155 -0.0107  0.5127
  886TIP3    H126853   1.914   3.724  11.622 -2.0203  0.8337  1.0327
  886TIP3    H226854   1.912   3.783  11.482  1.1416 -0.4341  0.3544
  887TIP3   OH226855   6.338   4.551  10.292 -0.5354 -0.2192  0.9856
  887TIP3    H126856   6.366   4.628  10.341  1.3233  0.1924 -0.6231
  887TIP3    H226857   6.284   4.502  10.354 -0.4368  1.5567  2.5611
  888TIP3   OH226858   2.618   5.048   8.883  0.2419 -0.0080  0.2331
  888TIP3    H126859   2.668   4.985   8.831  1.0184  0.3836  0.4971
  888TIP3    H226860   2.565   4.993   8.941 -0.2082 -0.4334 -0.5749
  889TIP3   OH226861   5.832   0.850   9.841  1.1090  0.0131  0.3256
  889TIP3    H126862   5.754   0.795   9.851  1.9303 -1.1297  0.6467
  889TIP3    H226863   5.839   0.898   9.924  0.2853  0.7637 -0.0258
  890TIP3   OH226864   1.411   4.614  10.410  0.4474 -0.0217  0.0778
  890TIP3    H126865   1.332   4.647  10.367  1.7515  1.0959 -1.5992
  890TIP3    H226866   1.408   4.652  10.498 -0.3483  0.9214 -0.3348
  891TIP3   OH226867   5.163   4.517  11.569 -0.1574 -0.4430 -0.8104
  891TIP3    H126868   5.204   4.436  11.597 -0.6975 -1.2889 -2.3525
  891TIP3    H226869   5.086   4.489  11.519 -1.0802  1.0453 -0.3168
  892TIP3   OH226870   5.991   2.495  10.617  0.4528  0.8393 -0.3492
  892TIP3    H126871   6.060   2.487  10.684 -0.5757 -0.2715  0.6063
  892TIP3    H226872   5.942   2.414  10.623  0.6451  0.4823 -2.8681
  893TIP3   OH226873   0.096   5.625   9.001 -0.3538 -0.5217  0.0256
  893TIP3    H126874   0.114   5.697   8.941 -2.1813  0.2192  0.2997
  893TIP3    H226875   0.121   5.546   8.952 -0.7298  0.1328 -1.2778
  894TIP3   OH226876   1.723   2.524   9.041 -0.1086  0.7555 -0.3419
  894TIP3    H126877   1.793   2.459   9.039  0.6061  1.5150 -0.7001
  894TIP3    H226878   1.713   2.550   8.949  1.2885  2.8705  0.0386
  895TIP3   OH226879   1.719   4.280  10.057  0.5148  0.2985 -0.5083
  895TIP3    H126880   1.756   4.202  10.015 -1.6855  0.2358 -2.5068
  895TIP3    H226881   1.780   4.350  10.034  1.1536 -0.3631 -0.8898
  896TIP3   OH226882   1.929   2.299  10.825 -0.2888 -0.2653  0.1590
  896TIP3    H126883   1.845   2.266  10.794 -0.9585 -0.6402  2.2062
  896TIP3    H226884   1.933   2.389  10.793 -1.3965 -0.3010 -0.1096
  897TIP3   OH226885   3.069   1.340  10.346 -0.1732  0.9698  0.7484
  897TIP3    H126886   3.137   1.294  10.396 -0.9352  0.1308  1.0157
  897TIP3    H226887   3.119   1.398  10.288  0.7434  1.8465  2.3234
  898TIP3   OH226888   0.185   6.593  11.367  0.4194  0.1092  0.0727
  898TIP3    H126889   0.276   6.603  11.394  0.6594  0.8507 -0.9708
  898TIP3    H226890   0.159   6.508  11.402  0.0022  1.8231  4.5177
  899TIP3   OH226891   0.834   4.982  11.598  0.4482  0.0060 -0.2918
  899TIP3    H126892   0.827   5.060  11.653  1.4912  0.0769 -0.2490
  899TIP3    H226893   0.873   5.013  11.516  0.7657 -0.4430 -0.3150
  900TIP3   OH226894   2.586   5.354   9.255 -0.0121  0.1016  0.4423
  900TIP3    H126895   2.654   5.405   9.299  0.3946  0.7709 -0.9199
  900TIP3    H226896   2.511   5.412   9.251  0.2557  0.4008 -0.5619
  901TIP3   OH226897   0.312   3.017  10.316 -0.2176  0.2517 -0.1116
  901TIP3    H126898   0.385   3.077  10.332 -0.5963  0.3825  1.2851
  901TIP3    H226899   0.282   3.038  10.228  2.8156 -1.3024 -1.7004
  902TIP3   OH226900   0.161   1.322  11.360  0.0142 -0.2169  0.0223
  902TIP3    H126901   0.106   1.355  11.432  0.2216 -1.7431  0.9306
  902TIP3    H226902   0.101   1.270  11.307  0.2658 -0.6655  0.1762
  903TIP3   OH226903   5.384   1.506  11.260  0.3060 -0.2708 -0.1603
  903TIP3    H126904   5.310   1.564  11.276  0.8022  0.4498 -0.4296
  903TIP3    H226905   5.356   1.421  11.294 -1.0429 -0.2777 -1.2023
  904TIP3   OH226906   5.259   5.156   9.658 -0.0726 -0.0257  0.9433
  904TIP3    H126907   5.262   5.066   9.625 -0.5806 -0.5673  2.2966
  904TIP3    H226908   5.249   5.146   9.752 -0.2005  1.4609  1.1039
  905TIP3   OH226909   5.283   5.949   9.407  0.3138 -0.2453 -0.4528
  905TIP3    H126910   5.324   5.919   9.488 -0.3316 -2.1652 -0.8046
  905TIP3    H226911   5.248   6.036   9.429  1.0462 -0.2852  1.0040
  906TIP3   OH226912   6.033   0.899   8.534  0.5699 -0.4046  0.2796
  906TIP3    H126913   6.004   0.983   8.499 -1.3057 -0.8095  0.7356
  906TIP3    H226914   6.115   0.919   8.580  1.2785  0.7495 -1.3716
  907TIP3   OH226915   4.016   5.841  11.523  0.5785  0.1967 -0.3185
  907TIP3    H126916   3.960   5.764  11.528  0.8592  0.0290  0.5273
  907TIP3    H226917   4.008   5.872  11.433  2.2131 -2.1191 -1.3551
  908TIP3   OH226918   3.791   6.223   8.814 -0.2718  0.5789 -0.0561
  908TIP3    H126919   3.712   6.186   8.853  1.1818 -1.5885  1.0447
  908TIP3    H226920   3.802   6.175   8.733 -1.0975  2.2705 -1.2222
  909TIP3   OH226921   0.377   0.780   9.852  0.1118 -0.4977  0.2246
  909TIP3    H126922   0.317   0.795   9.925  0.4679  1.0221  0.2504
  909TIP3    H226923   0.464   0.793   9.890  0.2928  0.4656 -0.4705
  910TIP3   OH226924   4.259   4.969   9.556  0.1831 -0.1644 -0.3404
  910TIP3    H126925   4.242   4.969   9.650 -0.7479  1.3622 -0.4786
  910TIP3    H226926   4.348   5.003   9.548 -0.1221  0.7297 -0.0431
  911TIP3   OH226927   6.632   5.250   9.909  0.3276 -0.4282 -0.2703
  911TIP3    H126928   6.561   5.185   9.917 -0.0494 -0.0609 -0.5906
  911TIP3    H226929   6.586   5.333   9.894  0.7919 -0.0367  0.3988
  912TIP3   OH226930   6.157   3.903   8.119  0.0514 -0.0651  0.0503
  912TIP3    H126931   6.231   3.888   8.059  0.0943  1.7238 -0.3925
  912TIP3    H226932   6.080   3.872   8.071  0.3994 -1.2305  0.2103
  913TIP3   OH226933   4.050   0.708   8.908 -0.3284  0.2598 -0.3868
  913TIP3    H126934   4.057   0.752   8.823  0.2734 -1.9534 -1.5683
  913TIP3    H226935   4.138   0.717   8.946 -0.6101  1.2906  0.0632
  914TIP3   OH226936   2.927   0.974   9.668 -0.0575 -0.0305 -0.1443
  914TIP3    H126937   2.843   0.947   9.630  0.4549 -0.0810 -1.2846
  914TIP3    H226938   2.939   0.916   9.743 -0.2365 -1.1986 -0.9876
  915TIP3   OH226939   3.248   0.259  10.128 -0.0016 -0.3212  0.0891
  915TIP3    H126940   3.192   0.296  10.196 -0.0034  1.5259 -0.8419
  915TIP3    H226941   3.217   0.169  10.117 -0.9804 -0.1859  1.4636
  916TIP3   OH226942   2.235   5.144  11.573 -0.1175 -0.2458 -0.0276
  916TIP3    H126943   2.298   5.138  11.502 -1.3918 -1.3911 -1.1233
  916TIP3    H226944   2.276   5.097  11.646  1.2017  0.9578  0.0529
  917TIP3   OH226945   4.357   4.732   8.112  0.3535  0.1489 -0.1340
  917TIP3    H126946   4.381   4.640   8.118 -0.4482 -0.0707 -0.1367
  917TIP3    H226947   4.273   4.738   8.158  0.0868  0.7547 -0.6798
  918TIP3   OH226948   2.878   2.575  10.808 -0.4628  0.4677  0.1977
  918TIP3    H126949   2.811   2.579  10.740  0.0663  0.9897 -0.3205
  918TIP3    H226950   2.836   2.532  10.882 -1.2085  0.3403 -0.2879
  919TIP3   OH226951   5.333   4.058   8.006 -0.0858 -0.3417 -0.1546
  919TIP3    H126952   5.247   4.063   8.048  0.2477 -0.1075  0.5050
  919TIP3    H226953   5.326   3.985   7.945 -1.0719  0.2808 -0.8318
  920TIP3   OH226954   2.746   3.488   9.692  0.1341  0.0993 -0.1115
  920TIP3    H126955   2.772   3.397   9.680 -2.0565 -0.6481  0.4510
  920TIP3    H226956   2.777   3.510   9.780  1.3503  0.1807 -0.5412
  921TIP3   OH226957   3.897   5.614   9.478 -0.6275  0.6768 -0.0973
  921TIP3    H126958   3.896   5.524   9.448 -1.6538  0.4109  0.6710
  921TIP3    H226959   3.810   5.648   9.458 -0.7217  1.0535  0.8505
  922TIP3   OH226960   5.254   0.358  10.071  0.0911  0.0070  0.0777
  922TIP3    H126961   5.198   0.290  10.110  1.9017 -0.8799  1.2696
  922TIP3    H226962   5.341   0.338  10.104  0.7329  2.8102  0.2718
  923TIP3   OH226963   2.037   6.025   8.583 -0.5093  0.0953  0.4773
  923TIP3    H126964   2.052   6.108   8.629  0.0946  0.1538  0.1829
  923TIP3    H226965   1.957   6.039   8.533 -0.0741  0.7166 -0.0580
  924TIP3   OH226966   5.737   0.259   8.603 -0.5528 -0.4004 -0.1925
  924TIP3    H126967   5.821   0.266   8.647 -0.7309 -0.7648  0.2265
  924TIP3    H226968   5.717   0.347   8.573  0.6918 -0.5812 -1.6657
  925TIP3   OH226969   4.638   4.372  10.834 -0.0964  1.0253 -0.0107
  925TIP3    H126970   4.705   4.438  10.850  1.3054  0.1372 -1.8639
  925TIP3    H226971   4.593   4.401  10.756 -0.4522  0.5303  0.0022
  926TIP3   OH226972   1.533   4.500   9.108  0.4821  0.3030  0.5341
  926TIP3    H126973   1.443   4.528   9.119  0.2820 -0.0189 -0.2184
  926TIP3    H226974   1.561   4.540   9.026  0.1905 -1.6310 -0.5850
  927TIP3   OH226975   3.179   6.106   9.240  0.8770 -0.1446  0.5903
  927TIP3    H126976   3.189   6.201   9.254 -0.6707  0.2296 -0.5113
  927TIP3    H226977   3.088   6.089   9.266  0.5890 -0.9793 -0.9196
  928TIP3   OH226978   1.902   0.702  11.682 -0.0462 -0.5412  0.0264
  928TIP3    H126979   1.906   0.766  11.753  0.3579  0.3633 -0.7807
  928TIP3    H226980   1.808   0.684  11.672 -0.3757  1.5001 -1.0584
  929TIP3   OH226981   5.595   3.074   9.955  1.0046  0.5910  0.3460
  929TIP3    H126982   5.676   3.041   9.993  1.2376  2.3619  1.4742
  929TIP3    H226983   5.619   3.158   9.917  0.6329 -0.7279 -3.2414
  930TIP3   OH226984   5.682   2.566  11.284  0.2195  0.0816 -0.2271
  930TIP3    H126985   5.635   2.587  11.204 -0.0240 -0.4295 -0.2225
  930TIP3    H226986   5.735   2.644  11.303  0.4385  0.1254 -0.9952
  931TIP3   OH226987   4.947   3.612   9.794 -0.4033 -0.0886  0.0514
  931TIP3    H126988   4.902   3.540   9.838 -1.1956 -0.7716 -1.7789
  931TIP3    H226989   4.938   3.686   9.854 -3.1948 -0.4292  0.1967
  932TIP3   OH226990   0.460   4.523  11.262  0.5093 -1.1153  0.3591
  932TIP3    H126991   0.412   4.565  11.333  2.1934 -1.0553  1.5027
  932TIP3    H226992   0.392   4.501  11.197 -1.0264 -0.9460  1.8468
  933TIP3   OH226993   6.667   4.751  10.247 -0.3070  0.3086 -0.0368
  933TIP3    H126994   6.751   4.706  10.243 -1.2881 -2.3101  3.9690
  933TIP3    H226995   6.605   4.691  10.206 -1.0083 -0.2743  1.8035
  934TIP3   OH226996   4.082   0.283  10.919 -0.1155  0.1338 -0.7052
  934TIP3    H126997   4.010   0.345  10.931 -0.6015 -0.4837 -0.3637
  934TIP3    H226998   4.109   0.295  10.828 -0.9280  0.0923 -0.9664
  935TIP3   OH226999   1.030   5.898   9.883  0.3462  0.0885  0.4117
  935TIP3    H127000   0.957   5.905   9.822  0.9581  0.4454 -0.2918
  935TIP3    H227001   1.079   5.821   9.853  0.7602  0.3824  0.3301
  936TIP3   OH227002   0.133   4.926   9.902 -0.0676  0.0623 -0.6169
  936TIP3    H127003   0.223   4.929   9.935  0.0921 -0.1377 -1.0310
  936TIP3    H227004   0.108   4.834   9.910  0.1850 -0.1046 -1.6095
  937TIP3   OH227005   2.183   0.303  11.562 -0.0450  0.1340 -0.1834
  937TIP3    H127006   2.155   0.374  11.620 -0.2568  1.0312 -1.3601
  937TIP3    H227007   2.275   0.289  11.584 -0.5200 -0.6179  1.4508
  938TIP3   OH227008   2.014   6.282   8.690 -0.1514 -0.6467  0.0311
  938TIP3    H127009   2.096   6.266   8.737 -0.0309 -0.6174 -0.1689
  938TIP3    H227010   2.022   6.372   8.658 -0.0662 -0.8009 -0.3819
  939TIP3   OH227011   6.635   3.685  11.091 -0.6419 -0.0032 -0.3209
  939TIP3    H127012   6.693   3.668  11.017 -0.5587 -1.1399 -0.0097
  939TIP3    H227013   6.636   3.604  11.142 -0.6910  0.7647  0.9367
  940TIP3   OH227014   5.894   4.129   9.128 -0.1648 -0.3869  0.3672
  940TIP3    H127015   5.962   4.066   9.151 -0.0397 -0.3778  0.0398
  940TIP3    H227016   5.820   4.076   9.098  0.0109 -0.3764 -0.0947
  941TIP3   OH227017   0.933   1.793  10.762  0.1156  0.1537 -0.0999
  941TIP3    H127018   0.972   1.879  10.747  0.8016 -0.4035 -1.6512
  941TIP3    H227019   0.985   1.733  10.710 -1.0434 -1.0519  0.0688
  942TIP3   OH227020   6.812   4.042   8.850  0.2304 -0.2825 -0.8490
  942TIP3    H127021   6.844   4.058   8.761 -0.0491  1.3501 -0.6916
  942TIP3    H227022   6.725   4.005   8.838  0.6189 -1.0754 -1.2544
  943TIP3   OH227023   4.897   0.524   9.492 -0.3045  0.2389  0.5908
  943TIP3    H127024   4.893   0.596   9.430  1.5991  0.5568  0.7658
  943TIP3    H227025   4.916   0.566   9.576  1.1231 -0.4370  0.6446
  944TIP3   OH227026   1.142   6.558  10.507  0.3222 -0.1471  0.0708
  944TIP3    H127027   1.104   6.497  10.570  1.8965 -1.2525  0.0147
  944TIP3    H227028   1.206   6.506  10.459  0.2354  1.0512 -1.4266
  945TIP3   OH227029   0.145   3.481   8.995  0.4397 -0.0532  0.2951
  945TIP3    H127030   0.198   3.560   8.994 -0.2542  0.4457  1.4736
  945TIP3    H227031   0.209   3.410   8.990  1.2600  0.5363  1.6419
  946TIP3   OH227032   4.021   2.875  11.547  0.1790  0.7953 -0.1808
  946TIP3    H127033   3.966   2.917  11.613 -0.2317  0.0334 -0.0206
  946TIP3    H227034   3.995   2.783  11.549  0.4073  0.6906 -1.1594
  947TIP3   OH227035   0.799   1.609   8.958  0.4588 -0.1519  0.2401
  947TIP3    H127036   0.863   1.554   8.913 -0.2291 -0.0850 -0.8520
  947TIP3    H227037   0.851   1.680   8.995  1.1551 -0.6863  0.3103
  948TIP3   OH227038   2.170   5.381   9.658  0.1731  0.6771  0.1242
  948TIP3    H127039   2.157   5.434   9.579  1.2572  0.0931 -0.4671
  948TIP3    H227040   2.116   5.424   9.725  0.5228  2.1344 -0.4981
  949TIP3   OH227041   3.030   0.053  10.482 -0.1059  0.3425  0.1200
  949TIP3    H127042   2.950   0.001  10.491  0.6062 -0.9107 -0.5309
  949TIP3    H227043   3.092  -0.005  10.439  1.2905  1.1704  0.9433
  950TIP3   OH227044   1.447   4.713  10.669 -0.2664 -0.1576 -0.7410
  950TIP3    H127045   1.479   4.794  10.710 -1.0627 -0.2352  0.0807
  950TIP3    H227046   1.517   4.650  10.685 -0.5551 -0.1862  0.5603
  951TIP3   OH227047   4.225   1.623  11.487  0.4281  0.8480 -0.1397
  951TIP3    H127048   4.266   1.700  11.447  0.3783  0.1561 -1.5594
  951TIP3    H227049   4.295   1.581  11.536  1.0083  0.5813 -1.1891
  952TIP3   OH227050   2.041   2.531   9.842  0.5245 -0.3805  0.2644
  952TIP3    H127051   2.000   2.446   9.856  1.3618 -1.0664 -1.2564
  952TIP3    H227052   1.969   2.587   9.812 -0.0333 -0.5242  1.2821
  953TIP3   OH227053   1.315   4.445  10.780  0.1440 -0.4748  0.2397
  953TIP3    H127054   1.378   4.514  10.799  0.5865 -0.6391 -0.5860
  953TIP3    H227055   1.349   4.403  10.701  0.1116 -1.9083  0.9564
  954TIP3   OH227056   1.418   2.193   9.008 -0.0416 -0.2800  0.3300
  954TIP3    H127057   1.347   2.164   8.950 -0.8911 -0.6176  1.5028
  954TIP3    H227058   1.402   2.287   9.018 -0.8706 -0.5143  1.3005
  955TIP3   OH227059   3.606   3.635   9.558  0.6211  0.3447  0.5007
  955TIP3    H127060   3.538   3.611   9.621 -0.5926 -1.4820 -1.3626
  955TIP3    H227061   3.668   3.562   9.560  2.0315  1.5179  1.4341
  956TIP3   OH227062   1.804   4.217   8.918 -0.0174 -0.3909  0.1789
  956TIP3    H127063   1.812   4.256   8.831 -1.3165  0.2918  0.3353
  956TIP3    H227064   1.892   4.222   8.955  0.0219  1.8764 -0.0675
  957TIP3   OH227065   5.462   0.345   9.169 -0.1093 -0.1265 -0.3696
  957TIP3    H127066   5.466   0.337   9.265  2.7876  2.2247 -0.1351
  957TIP3    H227067   5.369   0.343   9.149 -0.9420  0.9360  2.7167
  958TIP3   OH227068   4.774   6.092  10.130  0.0525 -0.4153  0.1455
  958TIP3    H127069   4.762   6.187  10.139 -0.9224 -0.6094  1.0515
  958TIP3    H227070   4.704   6.065  10.070 -0.5927 -0.7599  1.0367
  959TIP3   OH227071   6.356   3.092   9.836 -0.4182 -0.2181  0.1913
  959TIP3    H127072   6.349   3.181   9.802 -0.2754 -0.2872 -0.0237
  959TIP3    H227073   6.327   3.037   9.763  0.0464 -0.3753  0.1247
  960TIP3   OH227074   2.363   2.953   9.049 -0.1435  0.0879 -0.5182
  960TIP3    H127075   2.372   2.869   9.095  0.6122  0.4369 -0.0137
  960TIP3    H227076   2.274   2.982   9.071 -1.4667 -1.7779 -2.8019
  961TIP3   OH227077   2.598   3.067   9.908 -0.4906  0.3436 -0.6418
  961TIP3    H127078   2.645   3.149   9.918 -0.4382  0.0807  1.8720
  961TIP3    H227079   2.653   3.014   9.851  2.2037  0.1601  1.9113
  962TIP3   OH227080   1.689   3.712  10.921 -0.2592 -0.1225  0.5342
  962TIP3    H127081   1.692   3.808  10.928 -3.3472 -0.0122  2.8910
  962TIP3    H227082   1.716   3.693  10.832  0.1923  2.9685 -0.1025
  963TIP3   OH227083   0.427   3.443  11.068  0.0525  0.2006 -0.2012
  963TIP3    H127084   0.453   3.456  11.159 -0.3072 -1.7432  0.2213
  963TIP3    H227085   0.402   3.530  11.038  0.0382  0.8675  1.6113
  964TIP3   OH227086   3.489   6.751   9.704 -0.4811 -0.5725 -0.3310
  964TIP3    H127087   3.584   6.748   9.717 -0.6936  0.2222  1.8523
  964TIP3    H227088   3.475   6.830   9.651 -0.1050  1.3873  2.3027
  965TIP3   OH227089   0.445   6.659   8.806 -0.2999 -0.3659 -0.1965
  965TIP3    H127090   0.448   6.751   8.833 -0.6564 -0.2852 -0.4243
  965TIP3    H227091   0.397   6.660   8.723  0.0561 -0.7091 -0.4076
  966TIP3   OH227092   4.310   4.814   8.805 -0.0218 -0.6460  0.0625
  966TIP3    H127093   4.327   4.856   8.721 -1.4668 -0.8737 -0.3635
  966TIP3    H227094   4.222   4.843   8.830 -0.2038 -1.7360  0.7776
  967TIP3   OH227095   3.381   3.507  11.834 -0.4675  0.3833 -0.3038
  967TIP3    H127096   3.324   3.437  11.867 -1.0551 -0.8583 -3.5700
  967TIP3    H227097   3.324   3.585  11.831 -0.3176  0.6147  1.6527
  968TIP3   OH227098   3.978   6.214   9.895 -0.2444  0.4757 -0.4117
  968TIP3    H127099   3.991   6.119   9.904 -2.3841  0.0314 -1.3506
  968TIP3    H227100   3.966   6.245   9.985  0.5063 -0.1244 -0.0886
  969TIP3   OH227101   1.523   3.327   9.212 -0.1002  0.0137  0.0688
  969TIP3    H127102   1.567   3.317   9.297 -0.0704  0.3287  0.0922
  969TIP3    H227103   1.585   3.378   9.159  0.4795 -1.3472 -0.6038
  970TIP3   OH227104   1.580   4.403  11.119  0.1010 -0.0709  0.6359
  970TIP3    H127105   1.488   4.407  11.090  0.3717 -1.2852 -0.4734
  970TIP3    H227106   1.589   4.478  11.178 -1.3492  0.6192  0.0426
  971TIP3   OH227107   0.162   4.857  11.560 -0.1389  0.2191 -0.2659
  971TIP3    H127108   0.090   4.919  11.556 -0.8514 -0.2490  2.7701
  971TIP3    H227109   0.122   4.772  11.542  0.4260  0.3483 -2.2948
  972TIP3   OH227110   2.794   4.770  10.473 -0.4265  0.2441 -0.4687
  972TIP3    H127111   2.731   4.705  10.504 -0.1362  0.6376  1.0244
  972TIP3    H227112   2.741   4.836  10.428 -1.0619  0.4211  0.5144
  973TIP3   OH227113   5.637   2.208   8.859 -0.2006  0.6629  0.6537
  973TIP3    H127114   5.591   2.273   8.806 -0.4226  1.6816  2.0444
  973TIP3    H227115   5.696   2.164   8.797 -2.3311 -0.0656 -0.9988
  974TIP3   OH227116   4.697   0.863  11.287 -0.2978  0.2041 -0.5074
  974TIP3    H127117   4.743   0.849  11.204 -0.7285  2.1303 -1.1157
  974TIP3    H227118   4.605   0.872  11.262 -0.4027  1.0257  0.1490
  975TIP3   OH227119   2.286   4.366  11.443 -0.3999  0.1632 -0.1689
  975TIP3    H127120   2.214   4.423  11.469 -0.0577  0.9638 -0.9351
  975TIP3    H227121   2.244   4.286  11.412 -0.8957  0.1034  0.6253
  976TIP3   OH227122   3.867   6.603   9.537 -0.0308 -0.0678 -0.0436
  976TIP3    H127123   3.838   6.677   9.590 -2.1514 -1.2901  0.6201
  976TIP3    H227124   3.870   6.529   9.598 -1.9284 -1.3846 -1.4394
  977TIP3   OH227125   4.583   4.616  10.120 -0.2222 -0.8332 -0.3655
  977TIP3    H127126   4.594   4.650  10.032  3.7135 -0.2896  0.1590
  977TIP3    H227127   4.650   4.547  10.128 -1.2913 -1.7194  1.8096
  978TIP3   OH227128   4.152   2.493  11.558 -0.0285 -0.3246  0.3683
  978TIP3    H127129   4.162   2.451  11.643 -0.1904 -0.1501  0.4724
  978TIP3    H227130   4.191   2.580  11.569  1.0940 -0.7474 -0.0881
  979TIP3   OH227131   0.995   1.249   9.104  0.7258  0.0971 -0.8095
  979TIP3    H127132   1.015   1.341   9.122 -0.5316  0.7670 -2.5713
  979TIP3    H227133   0.900   1.243   9.111  0.5071 -0.4006 -3.3169
  980TIP3   OH227134   4.138   2.518  11.279 -0.0288  0.3628 -0.2756
  980TIP3    H127135   4.050   2.503  11.244 -0.1609  1.7143 -0.6023
  980TIP3    H227136   4.128   2.508  11.374 -0.5866  0.7236 -0.2914
  981TIP3   OH227137   2.622   5.242   9.607 -0.2759  0.3951  0.3771
  981TIP3    H127138   2.571   5.315   9.642  0.0539  0.1971  1.3031
  981TIP3    H227139   2.561   5.169   9.604 -0.5565  0.6532 -0.3729
  982TIP3   OH227140   6.204   2.373   9.259 -0.0728 -0.3360  0.2733
  982TIP3    H127141   6.163   2.363   9.345  0.6270 -0.7207  0.5665
  982TIP3    H227142   6.199   2.287   9.219  2.3555 -0.9779  1.1890
  983TIP3   OH227143   1.400   1.336  11.033  0.0533 -0.1154  0.1802
  983TIP3    H127144   1.378   1.291  10.951 -1.0334 -1.5455  1.2268
  983TIP3    H227145   1.322   1.389  11.052 -0.4091 -1.1294  1.1713
  984TIP3   OH227146   1.188   3.923  11.161  0.3363 -0.1682 -0.1545
  984TIP3    H127147   1.182   3.829  11.142 -0.7073 -0.1872  0.1882
  984TIP3    H227148   1.132   3.964  11.095  1.3396  0.2870 -0.7413
  985TIP3   OH227149   2.652   2.612   9.955 -0.1044 -0.0129 -0.1489
  985TIP3    H127150   2.714   2.685   9.964 -1.7223  1.5933 -1.1826
  985TIP3    H227151   2.566   2.654   9.949 -1.2399 -2.1054  0.3895
  986TIP3   OH227152   5.941   3.629  11.152  0.4098  0.8424  0.0549
  986TIP3    H127153   5.932   3.535  11.132  1.8606  0.4957  0.8779
  986TIP3    H227154   6.002   3.632  11.225 -0.7519  2.3772  1.0237
  987TIP3   OH227155   1.920   5.699  11.647 -0.3876  0.3300  0.1044
  987TIP3    H127156   1.969   5.617  11.654  0.6656  0.7548 -1.6063
  987TIP3    H227157   1.961   5.745  11.574 -0.5687  2.6626  1.3737
  988TIP3   OH227158   6.699   4.570  11.538  0.0215 -0.3909  0.1607
  988TIP3    H127159   6.752   4.548  11.461  0.7053 -1.3764  0.8906
  988TIP3    H227160   6.639   4.496  11.547  1.5563 -1.5006  1.9545
  989TIP3   OH227161   1.737   5.064  10.427  0.0518  0.0947  0.0158
  989TIP3    H127162   1.736   5.105  10.514  0.8470  1.1759 -0.4474
  989TIP3    H227163   1.815   5.008  10.428  0.4738  0.6544 -0.2056
  990TIP3   OH227164   1.906   6.081   8.984 -0.1735 -0.1759  0.0968
  990TIP3    H127165   1.955   6.149   8.937 -1.8160  1.5970  0.8193
  990TIP3    H227166   1.824   6.074   8.935 -0.1748 -1.3901  0.2617
  991TIP3   OH227167   0.795   2.830  10.740 -0.1745  0.5497 -0.5114
  991TIP3    H127168   0.852   2.755  10.754 -1.8181 -0.5339  0.7619
  991TIP3    H227169   0.834   2.900  10.793  0.3739  0.0722 -0.2722
  992TIP3   OH227170   3.948   6.836  10.705  0.0575  0.0288  0.3035
  992TIP3    H127171   3.950   6.758  10.650 -0.7906 -0.5692  1.0927
  992TIP3    H227172   3.989   6.904  10.652 -2.8881  0.1400 -2.0537
  993TIP3   OH227173   1.235   2.840   9.992 -0.5739 -0.1009  0.1713
  993TIP3    H127174   1.156   2.886  10.019 -0.8921  0.7695 -2.0378
  993TIP3    H227175   1.204   2.771   9.934  0.1617 -1.0180  0.8507
  994TIP3   OH227176   2.584   1.662   8.576  0.1491 -0.2588 -0.3829
  994TIP3    H127177   2.539   1.699   8.501 -1.9888  0.7084  1.2604
  994TIP3    H227178   2.624   1.737   8.620  1.5850 -0.8380 -0.6394
  995TIP3   OH227179   6.331   2.615   9.945 -0.3976  0.4469  0.1117
  995TIP3    H127180   6.280   2.621   9.864  0.0002  0.4170 -0.1396
  995TIP3    H227181   6.299   2.535   9.988 -0.0037 -0.0056 -0.4311
  996TIP3   OH227182   4.399   3.382  11.344  0.4738 -0.1898  0.4379
  996TIP3    H127183   4.494   3.378  11.328  0.3976  1.2889 -0.5572
  996TIP3    H227184   4.369   3.456  11.292 -1.3236 -0.9075  0.3867
  997TIP3   OH227185   5.311   1.187  10.261  0.0321  0.0218 -0.1279
  997TIP3    H127186   5.347   1.125  10.324  2.2923  0.0021 -1.3491
  997TIP3    H227187   5.266   1.132  10.196  0.6378 -0.2269 -0.3421
  998TIP3   OH227188   1.597   2.936   9.015  0.3241  0.1688 -0.0780
  998TIP3    H127189   1.542   2.905   9.086  1.1714 -0.0900  0.4828
  998TIP3    H227190   1.674   2.974   9.058  0.1266  1.4790 -0.8011
  999TIP3   OH227191   1.998   5.615   9.733  0.0770 -0.4082  0.3563
  999TIP3    H127192   2.044   5.682   9.782 -0.9167 -1.1578  2.4633
  999TIP3    H227193   1.923   5.660   9.693 -2.1289 -0.5370  3.9274
 1000TIP3   OH227194   1.895   5.489   8.755  0.2232  0.2877 -0.3671
 1000TIP3    H127195   1.891   5.406   8.708  0.6543  1.3170 -2.3580
 1000TIP3    H227196   1.937   5.549   8.693  1.1937  1.6647  1.5208
 1001TIP3   OH227197   2.099   4.968   9.226  0.0063 -0.2836 -0.0594
 1001TIP3    H127198   2.088   4.905   9.296 -0.7407 -0.1385 -0.0327
 1001TIP3    H227199   2.037   4.940   9.158 -0.7747  0.7462  0.2010
 1002TIP3   OH227200   0.978   1.915  10.991 -0.0255  0.1793 -0.2478
 1002TIP3    H127201   1.060   1.888  11.033 -0.0553 -1.1662 -0.9798
 1002TIP3    H227202   0.969   1.855  10.917 -1.8857  0.0332  0.0542
 1003TIP3   OH227203   4.832   4.867  10.758  0.7715  0.5770 -0.1703
 1003TIP3    H127204   4.761   4.932  10.749 -1.3477 -1.7097 -1.3045
 1003TIP3    H227205   4.825   4.814  10.679  2.0341 -1.4004  0.9733
 1004TIP3   OH227206   4.830   2.994   9.541 -0.1597 -0.0530  0.3242
 1004TIP3    H127207   4.849   2.903   9.560  2.3839  0.6512  1.6901
 1004TIP3    H227208   4.838   3.038   9.626  4.2741  2.1588 -0.8987
 1005TIP3   OH227209   5.547   1.947   8.849  0.1495 -0.4359  0.1647
 1005TIP3    H127210   5.517   1.943   8.940  0.4423 -1.3168  0.2280
 1005TIP3    H227211   5.601   2.027   8.845 -0.4141 -0.0261  0.5855
 1006TIP3   OH227212   4.504   4.033   9.040  0.9126 -0.4935  0.4771
 1006TIP3    H127213   4.500   3.951   9.088  0.4802 -1.1338 -0.5945
 1006TIP3    H227214   4.586   4.028   8.991  0.6792 -0.4980  0.0776
 1007TIP3   OH227215   0.049   2.785  11.209 -0.4213  0.0062  0.4454
 1007TIP3    H127216   0.082   2.806  11.122 -1.1798 -1.7746 -0.3157
 1007TIP3    H227217  -0.041   2.757  11.194 -1.5100  2.2346  2.1496
 1008TIP3   OH227218   0.771   4.791   8.876  0.2847  0.0619  0.5118
 1008TIP3    H127219   0.749   4.863   8.936 -1.7037 -1.1850  1.3576
 1008TIP3    H227220   0.688   4.766   8.837  0.8004 -2.2508  0.7745
 1009TIP3   OH227221   0.463   6.644   9.099 -0.0099 -0.5565  0.6529
 1009TIP3    H127222   0.460   6.600   9.014  0.0495 -0.2113  0.4710
 1009TIP3    H227223   0.543   6.696   9.096 -0.4225  0.0891  0.6039
 1010TIP3   OH227224   3.989   6.240  10.774  0.7463  0.5864  0.4610
 1010TIP3    H127225   3.998   6.335  10.782  1.5261  0.7130 -1.3201
 1010TIP3    H227226   3.895   6.224  10.782  0.7262  1.3513  2.0145
 1011TIP3   OH227227   4.816   1.355  10.818  0.4149  0.4954  0.6237
 1011TIP3    H127228   4.784   1.280  10.768  0.5798  1.1070 -0.4112
 1011TIP3    H227229   4.792   1.335  10.909  0.8690 -1.0255  0.4300
 1012TIP3   OH227230   2.097   0.815   8.984 -0.5579  0.3250  0.2468
 1012TIP3    H127231   2.026   0.803   9.047 -0.2822 -0.7679  0.3682
 1012TIP3    H227232   2.118   0.726   8.953  0.1140  0.7218 -0.4973
 1013TIP3   OH227233   2.853   6.509  11.149 -0.6486 -0.7044 -0.7087
 1013TIP3    H127234   2.771   6.460  11.141 -1.2672 -0.1131  1.3876
 1013TIP3    H227235   2.825   6.600  11.160  0.3437 -0.3692 -0.9116
 1014TIP3   OH227236   1.374   6.540  11.227 -0.1085  0.7636  0.1937
 1014TIP3    H127237   1.356   6.596  11.151 -0.2553  0.2705 -0.1445
 1014TIP3    H227238   1.470   6.534  11.229 -0.1221  0.2610 -0.3452
 1015TIP3   OH227239   5.214   2.899  11.078 -0.2186  0.6170 -0.5404
 1015TIP3    H127240   5.290   2.955  11.061 -0.1323  0.2047 -1.5785
 1015TIP3    H227241   5.153   2.956  11.125  1.3558  0.4851  1.8415
 1016TIP3   OH227242   4.060   4.746  11.094  0.3059  0.3302 -0.1299
 1016TIP3    H127243   3.968   4.732  11.070  0.0375  0.1657  0.9485
 1016TIP3    H227244   4.079   4.676  11.156 -0.5805  3.5191  4.2114
 1017TIP3   OH227245   6.644   2.632  11.172  0.4065  0.2697  0.1162
 1017TIP3    H127246   6.608   2.618  11.085 -3.5491 -1.1486  1.7442
 1017TIP3    H227247   6.710   2.563  11.182 -1.2497 -1.5352 -0.7591
 1018TIP3   OH227248   6.528   4.354  11.516  0.4587 -0.1405  0.3467
 1018TIP3    H127249   6.502   4.272  11.474 -0.1571  0.6773 -0.9578
 1018TIP3    H227250   6.532   4.334  11.609  0.7739 -1.7578  0.0176
 1019TIP3   OH227251   3.905   1.866   9.762  0.0330 -0.1653  0.3729
 1019TIP3    H127252   3.923   1.840   9.672 -1.8818 -2.1260  0.4531
 1019TIP3    H227253   3.976   1.827   9.813  0.9541  0.6871 -0.2330
 1020TIP3   OH227254   1.221   5.532   9.338  0.7319 -0.0489 -0.2766
 1020TIP3    H127255   1.188   5.465   9.397  0.4775 -0.1154 -0.4934
 1020TIP3    H227256   1.256   5.483   9.264 -0.5223  0.0933 -0.9820
 1021TIP3   OH227257   1.750   2.303  11.439  0.2341 -0.2835 -0.0221
 1021TIP3    H127258   1.812   2.281  11.369  2.1321  0.6837  1.2987
 1021TIP3    H227259   1.793   2.371  11.489 -0.8645 -1.2671  2.3902
 1022TIP3   OH227260   2.245   2.672  10.463  0.1548 -0.9720 -0.3459
 1022TIP3    H127261   2.199   2.622  10.531 -0.6244  0.8386  0.5364
 1022TIP3    H227262   2.297   2.736  10.512 -0.8878  0.7745 -1.4079
 1023TIP3   OH227263   4.522   1.388  10.044 -0.3396 -0.0448 -0.0126
 1023TIP3    H127264   4.445   1.436  10.073 -2.1630 -2.7257 -0.0641
 1023TIP3    H227265   4.506   1.367   9.952  1.3135  0.8386 -0.5502
 1024TIP3   OH227266   5.221   5.127   9.944 -0.1528  0.4777  0.5764
 1024TIP3    H127267   5.237   5.043   9.986 -2.5147 -1.5092 -2.1131
 1024TIP3    H227268   5.154   5.169   9.999  0.2522  0.1203  1.3511
 1025TIP3   OH227269   4.828   0.835   9.571 -0.7792  0.3654 -0.0205
 1025TIP3    H127270   4.902   0.886   9.606 -0.5588  0.9471 -1.3021
 1025TIP3    H227271   4.754   0.859   9.628 -0.2116  0.5249  0.6713
 1026TIP3   OH227272   0.728   2.087  10.314 -0.3271  0.4300 -0.3438
 1026TIP3    H127273   0.695   2.141  10.242 -0.4707 -0.4515 -0.9627
 1026TIP3    H227274   0.654   2.082  10.375 -0.2543  1.0574 -0.1928
 1027TIP3   OH227275   4.583   5.677   8.443 -0.3605  0.2950  0.1527
 1027TIP3    H127276   4.558   5.768   8.425  0.0347  0.1003 -1.5886
 1027TIP3    H227277   4.525   5.625   8.387 -0.2059 -0.4909  0.7137
 1028TIP3   OH227278   4.016   6.760   8.734 -0.3241  0.5365  0.1219
 1028TIP3    H127279   4.108   6.743   8.756 -0.5664  0.2139  0.9272
 1028TIP3    H227280   4.020   6.824   8.663  0.5370 -0.2335 -0.5504
 1029TIP3   OH227281   4.552   6.636   8.832 -0.2015  0.2130 -0.1861
 1029TIP3    H127282   4.559   6.574   8.905  0.0792 -0.5449 -0.8364
 1029TIP3    H227283   4.626   6.614   8.775 -0.2668  0.9629 -0.5693
 1030TIP3   OH227284   4.399   4.461  11.717  0.7335  0.1245 -0.5133
 1030TIP3    H127285   4.489   4.454  11.748  1.0306  1.1896 -1.0598
 1030TIP3    H227286   4.401   4.535  11.655 -0.5290  0.2246 -0.4634
 1031TIP3   OH227287   4.913   4.986  11.454  0.3796 -0.1480  0.1539
 1031TIP3    H127288   4.977   5.054  11.431  1.0115 -0.7724  0.0409
 1031TIP3    H227289   4.948   4.906  11.414 -0.3313 -0.5485  0.3307
 1032TIP3   OH227290   2.710   3.634   9.478 -0.1309 -0.1811  0.0333
 1032TIP3    H127291   2.620   3.661   9.498 -0.1825  1.2759 -1.9268
 1032TIP3    H227292   2.733   3.575   9.550 -1.8543  1.1407  1.7881
 1033TIP3   OH227293   4.819   0.510   9.117  0.6318 -0.3271 -0.0447
 1033TIP3    H127294   4.851   0.429   9.157  2.5915  0.4460  0.0964
 1033TIP3    H227295   4.881   0.577   9.148 -1.4412  1.3970  0.5788
 1034TIP3   OH227296   6.322   3.883  10.075  0.0373  0.0103 -0.0251
 1034TIP3    H127297   6.250   3.895  10.136 -0.6586 -2.5042 -0.2079
 1034TIP3    H227298   6.282   3.893   9.988 -0.9936 -4.1900 -0.2749
 1035TIP3   OH227299   5.538   3.874  11.573  0.3408 -0.1392 -0.2945
 1035TIP3    H127300   5.629   3.872  11.605  0.0853 -0.1706  0.4552
 1035TIP3    H227301   5.526   3.789  11.531  0.6640 -0.1302 -0.4094
 1036TIP3   OH227302   5.007   4.415  10.834 -0.0384  0.2632  0.2678
 1036TIP3    H127303   4.993   4.392  10.926  1.7522 -0.6384  0.3499
 1036TIP3    H227304   5.100   4.436  10.828 -0.2657  0.9774 -1.2160
 1037TIP3   OH227305   6.505   3.564  10.726  0.0850 -0.1972 -0.4091
 1037TIP3    H127306   6.506   3.475  10.693  1.1081 -1.8078  3.4302
 1037TIP3    H227307   6.592   3.577  10.763 -0.0079  2.4768 -0.9208
 1038TIP3   OH227308   6.635   0.899  11.052  0.1503  0.3846  0.1370
 1038TIP3    H127309   6.582   0.835  11.100  0.0139  0.5801  0.2488
 1038TIP3    H227310   6.572   0.955  11.008  0.2795 -0.6560 -1.4363
 1039TIP3   OH227311   2.196   3.483  10.893 -0.4840  0.1540  0.9209
 1039TIP3    H127312   2.112   3.447  10.921 -0.1144 -1.2738  0.2650
 1039TIP3    H227313   2.260   3.445  10.952 -0.2676  1.1975  1.3876
 1040TIP3   OH227314   3.598   5.169   8.139  0.0946  0.2660  0.3496
 1040TIP3    H127315   3.656   5.142   8.210 -1.4608  0.8766  1.9296
 1040TIP3    H227316   3.610   5.102   8.072  1.8386 -0.1708  1.0217
 1041TIP3   OH227317   6.059   1.380   9.996  0.7752  0.1675 -0.5404
 1041TIP3    H127318   5.997   1.307   9.988  2.0416 -0.8139 -2.0573
 1041TIP3    H227319   6.103   1.364  10.080 -1.3328  1.2094  0.8584
 1042TIP3   OH227320   5.423   3.713   9.682 -0.7566  0.3204  0.3239
 1042TIP3    H127321   5.376   3.776   9.627 -0.6888  0.3454  0.2939
 1042TIP3    H227322   5.382   3.629   9.663 -1.3982  0.4756  0.9784
 1043TIP3   OH227323   3.464   3.989   9.690 -0.4665  0.2996  0.9970
 1043TIP3    H127324   3.543   4.000   9.637 -0.3668  0.0318  1.0848
 1043TIP3    H227325   3.392   4.013   9.631 -0.4092 -0.6970  0.4965
 1044TIP3   OH227326   0.061   4.178  10.122  0.3133  0.0488  0.1658
 1044TIP3    H127327   0.076   4.136  10.037  0.8241 -1.1342  0.8174
 1044TIP3    H227328   0.131   4.243  10.128 -1.0723  1.7910 -1.2894
 1045TIP3   OH227329   6.570   1.495   8.571 -0.3610 -0.6718 -0.7981
 1045TIP3    H127330   6.547   1.578   8.612 -1.3315  0.7226 -3.8269
 1045TIP3    H227331   6.486   1.452   8.554  0.0106 -1.2602 -1.1935
 1046TIP3   OH227332   3.805   4.909  10.102 -0.0022 -0.6909  0.1356
 1046TIP3    H127333   3.832   4.833  10.153 -1.5815 -0.1250  1.9282
 1046TIP3    H227334   3.721   4.935  10.139  0.8197  2.3928  0.1557
 1047TIP3   OH227335   1.795   4.367   8.116 -0.0942  0.0981  0.7295
 1047TIP3    H127336   1.883   4.341   8.089 -0.2683  0.5400 -0.3065
 1047TIP3    H227337   1.737   4.332   8.048 -0.7450 -0.3777  1.5164
 1048TIP3   OH227338   6.252   6.058   9.266 -0.1514 -0.6155  0.4359
 1048TIP3    H127339   6.325   6.119   9.256  0.8230 -1.4295  2.1405
 1048TIP3    H227340   6.180   6.112   9.298 -0.0765  0.0548 -0.4843
 1049TIP3   OH227341   4.097   0.244  11.198 -0.1301 -0.1229  0.4511
 1049TIP3    H127342   4.071   0.328  11.236  0.1418  0.8879 -1.4572
 1049TIP3    H227343   4.078   0.253  11.104  1.1674 -1.6831 -0.0111
 1050TIP3   OH227344   1.808   4.877   8.245  0.8336  0.2465 -0.6016
 1050TIP3    H127345   1.849   4.889   8.330 -1.4473 -0.2424  0.6662
 1050TIP3    H227346   1.754   4.955   8.232 -1.5233 -1.1487  0.1210
 1051TIP3   OH227347   2.505   4.561   9.384 -0.5305 -0.0142 -1.1068
 1051TIP3    H127348   2.547   4.501   9.446 -1.3680 -0.0899 -0.5886
 1051TIP3    H227349   2.416   4.527   9.376 -0.2573 -0.4207 -2.9092
 1052TIP3   OH227350   6.575   5.358  11.583  0.3429  0.3550  0.0751
 1052TIP3    H127351   6.520   5.288  11.547  0.0978  0.6249 -0.0783
 1052TIP3    H227352   6.575   5.425  11.515 -1.0633  1.3766  1.0351
 1053TIP3   OH227353   1.976   2.879  10.268 -0.3131 -0.0362  0.1619
 1053TIP3    H127354   2.004   2.911  10.354  0.1436 -2.5293  1.0280
 1053TIP3    H227355   1.895   2.830  10.285 -0.4452 -0.2286 -0.9080
 1054TIP3   OH227356   5.123   3.477   8.834  0.1855  0.2252 -0.6732
 1054TIP3    H127357   5.159   3.402   8.882 -0.8195 -0.1129 -0.4371
 1054TIP3    H227358   5.115   3.446   8.744 -0.4412 -0.0312 -0.5317
 1055TIP3   OH227359   1.289   3.508  10.931 -0.2034  0.3851  0.2404
 1055TIP3    H127360   1.236   3.587  10.937 -2.5307 -0.7778 -2.4982
 1055TIP3    H227361   1.231   3.438  10.963  0.7767 -0.5607  0.0108
 1056TIP3   OH227362   2.076   5.129  10.268  0.0596 -0.5530 -0.0672
 1056TIP3    H127363   2.016   5.063  10.302  0.5729 -1.7765 -1.4224
 1056TIP3    H227364   2.019   5.199  10.236 -0.6815 -1.5477 -1.0436
 1057TIP3   OH227365   3.205   6.160  11.277  0.2300 -0.5659  0.4739
 1057TIP3    H127366   3.200   6.191  11.186 -0.8822 -0.0870  0.6778
 1057TIP3    H227367   3.146   6.217  11.325 -0.8084 -2.1071  1.1243
 1058TIP3   OH227368   4.090   6.548   8.114  0.4782  0.1108 -0.0891
 1058TIP3    H127369   4.087   6.573   8.207 -0.5075 -0.7466  0.1201
 1058TIP3    H227370   4.154   6.608   8.076  0.2048  1.1043  0.9520
 1059TIP3   OH227371   2.997   1.969   9.470  0.8511 -0.2139 -0.2789
 1059TIP3    H127372   2.938   1.945   9.398 -0.7435  0.1726  0.8515
 1059TIP3    H227373   3.036   1.886   9.496  0.0037 -0.6579 -0.3726
 1060TIP3   OH227374   0.026   4.698  11.942 -0.0903 -0.0095 -0.8352
 1060TIP3    H127375  -0.020   4.688  12.025  2.3421 -0.4615  0.5540
 1060TIP3    H227376   0.042   4.609  11.912  0.3879  0.1211 -0.9807
 1061TIP3   OH227377   0.234   2.314  11.276  0.2793 -0.2698 -1.0248
 1061TIP3    H127378   0.160   2.254  11.271 -0.0800 -0.1639  1.7554
 1061TIP3    H227379   0.310   2.261  11.252 -0.2973 -1.2125 -0.7993
 1062TIP3   OH227380   6.042   4.072  11.177  0.3025  0.4682  0.5052
 1062TIP3    H127381   5.996   4.008  11.122 -0.6080  0.2525  1.4822
 1062TIP3    H227382   6.131   4.037  11.185  0.3584  0.3341 -0.5422
 1063TIP3   OH227383   0.422   4.689  10.938  0.2015  0.4945  0.2903
 1063TIP3    H127384   0.431   4.783  10.923  1.0478  0.6876  1.8314
 1063TIP3    H227385   0.374   4.657  10.861 -0.8029  2.3030  0.1049
 1064TIP3   OH227386   5.188   5.269   7.857 -0.3350  0.1396  0.1681
 1064TIP3    H127387   5.234   5.334   7.806  0.7653 -0.1322  0.7872
 1064TIP3    H227388   5.247   5.194   7.861 -1.7648 -1.1146 -0.9501
 1065TIP3   OH227389   4.943   0.769  10.732  0.0252  0.0958 -0.0638
 1065TIP3    H127390   4.850   0.779  10.753  0.0578 -0.5337  0.4017
 1065TIP3    H227391   4.952   0.811  10.646 -0.9129 -0.7726 -0.6132
 1066TIP3   OH227392   1.336   0.563   9.836 -0.1102 -0.0113  0.4181
 1066TIP3    H127393   1.380   0.492   9.790 -1.9370 -1.3095  0.5677
 1066TIP3    H227394   1.246   0.561   9.803 -0.3775  1.8415  0.9002
 1067TIP3   OH227395   0.416   5.101  11.135 -0.0667 -0.1587  0.0823
 1067TIP3    H127396   0.404   5.023  11.189  1.8413 -1.5419 -1.3303
 1067TIP3    H227397   0.416   5.174  11.197 -2.7560 -1.0998  1.3692
 1068TIP3   OH227398   1.092   3.961   9.876 -0.2811  0.7982  0.2587
 1068TIP3    H127399   1.149   4.037   9.871  0.2902  0.4729  1.4138
 1068TIP3    H227400   1.152   3.886   9.876 -0.7794  0.3954  0.0862
 1069TIP3   OH227401   1.278   4.855   9.880 -0.0347  0.1986 -0.0844
 1069TIP3    H127402   1.327   4.795   9.823 -0.4386 -0.8831  0.6719
 1069TIP3    H227403   1.342   4.923   9.903  0.5314 -0.1063 -0.6952
 1070TIP3   OH227404   0.137   4.840  11.067 -0.1631 -0.1639  0.1707
 1070TIP3    H127405   0.052   4.858  11.109 -0.2134 -1.1948  0.5282
 1070TIP3    H227406   0.202   4.868  11.132 -0.2422 -1.2731  0.7453
 1071TIP3   OH227407   1.935   5.038   9.778 -0.1640 -0.3824  0.8426
 1071TIP3    H127408   1.842   5.053   9.761 -0.1888  0.9052  1.9162
 1071TIP3    H227409   1.939   5.007   9.868  0.4047 -1.2335  0.5398
 1072TIP3   OH227410   6.148   4.682  11.144  0.6070  0.7324 -0.5144
 1072TIP3    H127411   6.242   4.691  11.129  0.9042 -0.7997  0.2602
 1072TIP3    H227412   6.136   4.590  11.164 -1.1337  0.8201 -1.0180
 1073TIP3   OH227413   2.134   2.957   9.180 -0.1217 -0.3200  0.1560
 1073TIP3    H127414   2.097   2.890   9.123  0.1633 -0.9072  0.6577
 1073TIP3    H227415   2.068   3.027   9.179  0.2735  0.0812 -1.5820
 1074TIP3   OH227416   0.002   4.684   9.935 -0.0860  0.2909  0.4293
 1074TIP3    H127417  -0.025   4.601   9.896 -2.5093  0.7240  1.0003
 1074TIP3    H227418  -0.057   4.749   9.895 -0.9830  1.1077  2.8900
 1075TIP3   OH227419   6.446   6.602   9.814 -0.5634  0.1171  0.0894
 1075TIP3    H127420   6.421   6.680   9.862  0.0096 -0.0394  0.6511
 1075TIP3    H227421   6.363   6.557   9.796 -0.6850 -1.0079  2.9437
 1076TIP3   OH227422   3.934   4.302  10.470 -0.4652 -0.4224 -0.0087
 1076TIP3    H127423   3.866   4.319  10.536  0.0874  1.9437  0.0669
 1076TIP3    H227424   4.015   4.330  10.512  0.2558 -1.2172 -0.8472
 1077TIP3   OH227425   2.559   5.931  10.346 -0.2961  0.2336  0.1207
 1077TIP3    H127426   2.627   5.869  10.369  0.3416  0.6347 -0.6365
 1077TIP3    H227427   2.490   5.878  10.306  0.2710  0.0169 -0.5765
 1078TIP3   OH227428   6.436   1.602  11.154  0.2067  0.9439  0.1433
 1078TIP3    H127429   6.351   1.610  11.112 -0.2790 -0.2140  0.8593
 1078TIP3    H227430   6.437   1.670  11.220  0.3231  1.7129 -0.6275
 1079TIP3   OH227431   6.071   5.513   9.912  0.1639  0.4228  0.1339
 1079TIP3    H127432   6.077   5.599   9.871 -2.8110 -0.4331 -2.5452
 1079TIP3    H227433   6.022   5.528   9.993 -0.4190  1.2804 -0.3627
 1080TIP3   OH227434   6.617   1.002   9.154  0.4537 -0.6512 -0.8752
 1080TIP3    H127435   6.672   0.927   9.176 -0.3339 -0.4578  2.2212
 1080TIP3    H227436   6.679   1.070   9.127  1.6978 -0.8976  1.1133
 1081TIP3   OH227437   5.612   5.382   9.018  0.2983 -0.8207 -0.0573
 1081TIP3    H127438   5.527   5.342   9.037 -0.2678  0.4824  0.2973
 1081TIP3    H227439   5.594   5.442   8.945 -0.5348  3.8017  3.4866
 1082TIP3   OH227440   0.884   4.122   9.080  0.2236  0.8432 -0.4863
 1082TIP3    H127441   0.811   4.152   9.134  0.4104 -0.1518  0.3578
 1082TIP3    H227442   0.851   4.124   8.990 -0.9370  0.1616 -0.0907
 1083TIP3   OH227443   2.217   5.091   8.880  0.4913  0.5818  0.1401
 1083TIP3    H127444   2.132   5.118   8.916  0.4907 -0.0968  0.6659
 1083TIP3    H227445   2.281   5.122   8.944  0.6560  1.1865 -0.3103
 1084TIP3   OH227446   0.142   6.205  10.418 -0.2972  0.3690 -0.4356
 1084TIP3    H127447   0.207   6.274  10.434  1.5144 -1.7549  2.2983
 1084TIP3    H227448   0.158   6.177  10.328  3.1218 -0.4357  0.2732
 1085TIP3   OH227449   1.966   4.910  10.438  0.2443 -1.1753 -0.6264
 1085TIP3    H127450   1.914   4.832  10.422  0.4988 -1.6189  0.5745
 1085TIP3    H227451   2.003   4.896  10.525  0.5040  0.1697 -0.5018
 1086TIP3   OH227452   1.839   0.696   9.124  0.4101 -0.3042 -0.0043
 1086TIP3    H127453   1.804   0.740   9.202 -0.8798  2.1441 -1.8066
 1086TIP3    H227454   1.898   0.629   9.158 -1.1493 -0.2693  3.0721
 1087TIP3   OH227455   0.228   2.151  10.612  0.8411  0.3584  0.2186
 1087TIP3    H127456   0.178   2.233  10.604 -1.7724 -1.2118 -1.0182
 1087TIP3    H227457   0.254   2.148  10.704  0.4328  2.2582  0.4404
 1088TIP3   OH227458   0.423   2.284  10.278 -0.9171 -0.1478  0.1742
 1088TIP3    H127459   0.424   2.222  10.351 -2.1840  0.0443  0.3758
 1088TIP3    H227460   0.420   2.370  10.319 -1.9398 -0.0463 -0.0921
 1089TIP3   OH227461   6.582   1.120  11.291  0.0151 -0.8416 -0.2483
 1089TIP3    H127462   6.677   1.125  11.302  0.0842  1.1877 -1.3661
 1089TIP3    H227463   6.549   1.200  11.330 -1.1819 -1.2049 -0.4861
 1090TIP3   OH227464   2.902   4.457   9.438 -0.2546 -0.0674  0.0690
 1090TIP3    H127465   2.906   4.452   9.534 -1.2577  0.4248  0.1483
 1090TIP3    H227466   2.991   4.477   9.411  0.0250 -0.1483  0.9035
 1091TIP3   OH227467   2.621   4.273  10.818 -0.9556  0.0871 -0.1936
 1091TIP3    H127468   2.597   4.298  10.908  0.1958  0.5045  0.0207
 1091TIP3    H227469   2.717   4.274  10.819 -0.8334 -3.2134 -0.4992
 1092TIP3   OH227470   6.387   2.482   8.486  0.2866  0.1626  0.3872
 1092TIP3    H127471   6.377   2.387   8.480 -0.1209 -0.0578  3.1703
 1092TIP3    H227472   6.299   2.514   8.503  0.5652  0.9545  0.3851
 1093TIP3   OH227473   3.939   0.609  10.016  0.0936 -0.0054 -0.4938
 1093TIP3    H127474   3.904   0.697  10.001  0.4760  0.3350  0.4771
 1093TIP3    H227475   4.010   0.622  10.080 -0.9498 -1.2050  0.9948
 1094TIP3   OH227476   4.491   5.382   8.818 -0.0978 -0.3657 -0.0206
 1094TIP3    H127477   4.550   5.341   8.881 -1.9640  0.0280  2.0791
 1094TIP3    H227478   4.520   5.473   8.813 -0.6486 -0.1097  1.1996
 1095TIP3   OH227479   0.393   1.477  11.968 -0.0311  0.0638  0.2185
 1095TIP3    H127480   0.360   1.540  12.032  0.3503 -0.7830  1.3002
 1095TIP3    H227481   0.359   1.507  11.884  0.0635  1.6323  0.7109
 1096TIP3   OH227482   6.268   4.259  11.360 -0.3595 -0.1976 -0.4744
 1096TIP3    H127483   6.298   4.170  11.339  2.2346  0.5278 -0.2481
 1096TIP3    H227484   6.255   4.258  11.455  2.4556  0.3044  0.0026
 1097TIP3   OH227485   2.722   4.924  11.154 -0.2457  0.1754  0.3489
 1097TIP3    H127486   2.814   4.923  11.129 -0.7250  1.1335 -1.6753
 1097TIP3    H227487   2.676   4.888  11.079 -1.5066 -0.8331  1.5464
 1098TIP3   OH227488   4.951   5.414   7.935 -0.0663 -0.2457  0.2437
 1098TIP3    H127489   5.008   5.352   7.888 -1.4261 -0.7622 -0.7828
 1098TIP3    H227490   5.012   5.472   7.981  1.2735 -1.6948  0.3988
 1099TIP3   OH227491   6.300   2.884   8.893 -0.7303 -0.2138  0.5998
 1099TIP3    H127492   6.388   2.919   8.881 -1.9176  3.0564  0.6867
 1099TIP3    H227493   6.292   2.814   8.828  1.3300  0.5464 -0.5245
 1100TIP3   OH227494   4.922   0.890  10.489 -0.3013  0.4175  0.3065
 1100TIP3    H127495   4.881   0.967  10.529 -0.1031  0.6203  0.1244
 1100TIP3    H227496   4.850   0.844  10.447 -0.2911  0.9928 -0.3684
 1101TIP3   OH227497   0.321   6.194  10.876 -0.1371 -0.0468 -0.1209
 1101TIP3    H127498   0.233   6.156  10.874  0.1202 -0.7232  0.8770
 1101TIP3    H227499   0.380   6.120  10.889  0.4690  0.5453  0.6722
 1102TIP3   OH227500   2.669   1.253  11.010 -0.1519  0.2962  0.3338
 1102TIP3    H127501   2.604   1.317  11.038  1.2236  2.8252 -1.7745
 1102TIP3    H227502   2.751   1.285  11.048  0.2938 -1.4900  0.9909
 1103TIP3   OH227503   6.444   5.679   9.284 -0.8461  0.4032  0.3239
 1103TIP3    H127504   6.495   5.627   9.346  0.1307  1.4289  0.4052
 1103TIP3    H227505   6.461   5.637   9.199 -1.3730 -0.3822  0.5902
 1104TIP3   OH227506   0.658   6.456   9.934  0.3109 -0.2160 -0.3855
 1104TIP3    H127507   0.722   6.517   9.898  1.0725 -1.2870 -0.9166
 1104TIP3    H227508   0.692   6.435  10.021 -0.0907  0.2967 -0.0970
 1105TIP3   OH227509   0.612   5.573  10.149  0.2043  0.3591  0.4379
 1105TIP3    H127510   0.659   5.651  10.176  1.3602 -0.2463  0.2188
 1105TIP3    H227511   0.658   5.501  10.192 -1.7447 -0.1179  1.8665
 1106TIP3   OH227512   3.272   1.539  11.646 -0.5908  0.2968  0.5862
 1106TIP3    H127513   3.218   1.522  11.569 -0.8879  1.9537  0.3740
 1106TIP3    H227514   3.286   1.634  11.644  2.5536 -0.0665  0.4774
 1107TIP3   OH227515   6.586   1.183  10.139 -0.4483 -0.8202  0.1146
 1107TIP3    H127516   6.646   1.149  10.205 -0.0227  1.5142  1.0211
 1107TIP3    H227517   6.637   1.181  10.057  0.5956  0.2630  0.7004
 1108TIP3   OH227518   3.109   0.645  11.153 -0.0213 -0.4656 -0.0245
 1108TIP3    H127519   3.022   0.624  11.187  0.9565  0.4521  3.4244
 1108TIP3    H227520   3.093   0.675  11.064 -3.2448 -0.2044  0.5184
 1109TIP3   OH227521   1.824   3.750  11.319 -0.8490  0.0910  0.0538
 1109TIP3    H127522   1.763   3.819  11.343 -1.3465  0.1168 -1.2144
 1109TIP3    H227523   1.844   3.767  11.227 -1.2127 -1.6123 -0.3738
 1110TIP3   OH227524   2.456   3.551   9.248 -0.2324  0.2988  0.3532
 1110TIP3    H127525   2.537   3.597   9.225 -0.6379  0.2388 -1.2626
 1110TIP3    H227526   2.393   3.622   9.262 -0.5123  0.3042 -0.8219
 1111TIP3   OH227527   2.207   5.799  10.061 -0.0394  0.6961 -0.0875
 1111TIP3    H127528   2.252   5.873  10.020 -1.3598  1.1918 -0.6951
 1111TIP3    H227529   2.135   5.838  10.110 -0.4000 -0.1396  0.0743
 1112TIP3   OH227530   0.848   4.679   9.194  0.2472  0.3357 -0.5167
 1112TIP3    H127531   0.824   4.704   9.283 -2.2431 -0.7187 -0.8007
 1112TIP3    H227532   0.873   4.761   9.152 -1.8507  1.4584  0.2458
 1113TIP3   OH227533   5.978   1.566   9.076  0.1778  0.1024  0.6243
 1113TIP3    H127534   5.887   1.592   9.062  0.6401  1.5554  0.0891
 1113TIP3    H227535   6.005   1.526   8.993  0.5088  1.2224  0.1779
 1114TIP3   OH227536   1.042   4.511   9.526  0.9877  0.0854 -0.0551
 1114TIP3    H127537   0.960   4.492   9.571  2.7175 -1.7983  2.6220
 1114TIP3    H227538   1.072   4.594   9.563  0.5694  0.5008 -0.6365
 1115TIP3   OH227539   2.279   5.605  10.721  0.1070  0.3746  0.0895
 1115TIP3    H127540   2.314   5.692  10.701  0.5099  0.4299  0.9537
 1115TIP3    H227541   2.246   5.572  10.638 -2.4657  2.4072  0.1469
 1116TIP3   OH227542   0.071   6.748  10.715  0.0349 -0.3814 -0.0670
 1116TIP3    H127543   0.052   6.842  10.718  1.1113 -0.1566  0.0512
 1116TIP3    H227544   0.098   6.726  10.804  0.6185 -0.6241 -0.3049
 1117TIP3   OH227545   5.273   2.981  10.424  0.4311 -0.1470 -0.2328
 1117TIP3    H127546   5.364   2.991  10.454  0.3656 -0.4185  0.0688
 1117TIP3    H227547   5.277   2.997  10.330  0.8201 -0.3120 -0.2496
 1118TIP3   OH227548   6.276   6.717  10.984 -0.4933 -0.1547 -0.3240
 1118TIP3    H127549   6.360   6.711  10.936  0.3277 -1.4223  1.1737
 1118TIP3    H227550   6.218   6.657  10.937 -0.0188 -0.6061 -0.3404
 1119TIP3   OH227551   0.968   6.766  11.016  0.2013 -0.2332  0.1493
 1119TIP3    H127552   0.968   6.856  10.984  0.4558  0.1520  1.1939
 1119TIP3    H227553   0.921   6.717  10.949 -1.1113  0.9097  0.1879
 1120TIP3   OH227554   0.134   5.931  11.888  0.1249 -0.0476  0.1239
 1120TIP3    H127555   0.051   5.966  11.922  0.1063 -0.0358  0.0672
 1120TIP3    H227556   0.107   5.869  11.820  0.1851  0.6663 -0.5623
 1121TIP3   OH227557   3.158   3.318  11.242  0.6038 -0.9637 -0.2124
 1121TIP3    H127558   3.226   3.325  11.175 -0.2025  0.9933 -0.9074
 1121TIP3    H227559   3.159   3.403  11.286  0.1175 -1.7040  1.2829
 1122TIP3   OH227560   1.468   2.850  11.425  0.0195  0.4257  0.5032
 1122TIP3    H127561   1.444   2.799  11.503  0.2629 -0.0501  0.2710
 1122TIP3    H227562   1.384   2.876  11.387 -0.1333 -0.6754  0.0536
 1123TIP3   OH227563   4.459   4.523  11.365  0.1119 -0.5627 -0.2406
 1123TIP3    H127564   4.382   4.468  11.355 -0.0214 -0.5653  0.7285
 1123TIP3    H227565   4.436   4.586  11.433  0.4430  0.3833 -0.9605
 1124TIP3   OH227566   5.812   0.495  11.001 -0.3428 -0.0287 -0.3659
 1124TIP3    H127567   5.855   0.564  11.051  2.3906 -2.2124  0.5501
 1124TIP3    H227568   5.730   0.478  11.048 -0.2782  1.4669  0.3186
 1125TIP3   OH227569   2.321   6.761  10.039  0.4234  0.2464 -0.6046
 1125TIP3    H127570   2.368   6.844  10.050  0.6948 -0.0869  0.9791
 1125TIP3    H227571   2.365   6.718   9.966  1.0543  0.9773 -0.6681
 1126TIP3   OH227572   4.597   5.915  11.055 -0.0564 -0.0318  0.3106
 1126TIP3    H127573   4.504   5.896  11.044 -0.1288 -0.0510  0.9478
 1126TIP3    H227574   4.638   5.881  10.975 -0.8225  1.6381 -0.8410
 1127TIP3   OH227575   1.797   4.272  11.007 -0.1778  0.3591  0.1491
 1127TIP3    H127576   1.721   4.318  11.043  0.9864  1.5032  1.2560
 1127TIP3    H227577   1.866   4.286  11.072  1.2671  0.1881 -1.2857
 1128TIP3   OH227578   2.934   0.537  10.912 -0.3449  0.4698 -0.1738
 1128TIP3    H127579   2.898   0.566  10.828  0.5300 -0.5391 -0.9261
 1128TIP3    H227580   3.011   0.486  10.888 -0.7844 -0.9016  1.1760
 1129TIP3   OH227581   2.175   2.243  10.931  0.1188 -0.5053  0.1273
 1129TIP3    H127582   2.095   2.237  10.878 -0.1564  0.2669  0.4374
 1129TIP3    H227583   2.202   2.334  10.923  0.9365 -0.7479  0.0803
 1130TIP3   OH227584   0.629   0.827   9.974  0.2230  0.0281 -0.4103
 1130TIP3    H127585   0.681   0.885  10.030 -0.2522  1.4375 -1.3864
 1130TIP3    H227586   0.660   0.739   9.996  0.5146  0.5834  1.5599
 1131TIP3   OH227587   3.930   0.454  11.809 -0.8550  0.5699  0.4214
 1131TIP3    H127588   3.951   0.436  11.717  1.2174  1.5732  0.6522
 1131TIP3    H227589   3.939   0.370  11.853 -1.0158  0.2524 -0.1471
 1132TIP3   OH227590   2.631   3.855  11.780 -0.2571  0.9361 -0.6254
 1132TIP3    H127591   2.672   3.894  11.703  0.5146 -0.0033 -0.7176
 1132TIP3    H227592   2.649   3.916  11.851  1.6893  0.3982 -0.5787
 1133TIP3   OH227593   2.371   3.673  10.461  0.0362 -0.5156  0.4490
 1133TIP3    H127594   2.305   3.738  10.438  1.7445  0.5737 -1.7837
 1133TIP3    H227595   2.430   3.718  10.521  0.8825 -0.1503 -0.6251
 1134TIP3   OH227596   5.874   6.413  10.335 -0.0778  0.4951 -0.2139
 1134TIP3    H127597   5.932   6.488  10.320 -1.0076  0.9957 -1.5034
 1134TIP3    H227598   5.885   6.359  10.256 -1.6262  0.7987 -0.6717
 1135TIP3   OH227599   5.929   1.188   9.733 -0.2987 -0.2577  0.0958
 1135TIP3    H127600   5.971   1.108   9.703 -0.0787 -0.2870  0.4795
 1135TIP3    H227601   5.905   1.170   9.824 -1.2194 -0.2709 -0.1415
 1136TIP3   OH227602   3.778   6.093  11.656 -0.3980 -0.2675 -0.1067
 1136TIP3    H127603   3.697   6.059  11.694  1.0681 -1.5517  2.0874
 1136TIP3    H227604   3.804   6.027  11.592  0.3724 -1.3848  1.2989
 1137TIP3   OH227605   5.336   3.971  11.370 -0.5564  0.0995  0.3259
 1137TIP3    H127606   5.321   3.947  11.462 -0.4178 -1.2910  0.0022
 1137TIP3    H227607   5.403   3.910  11.340 -0.1304  0.9664 -0.5343
 1138TIP3   OH227608   1.688   3.618  10.662  0.2299 -0.0631  0.5440
 1138TIP3    H127609   1.746   3.662  10.599 -0.1559 -1.6333 -1.0154
 1138TIP3    H227610   1.741   3.547  10.697  0.3718  0.6845  1.8819
 1139TIP3   OH227611   3.328   3.600  11.022 -0.0873 -0.0278  0.2156
 1139TIP3    H127612   3.345   3.587  11.115 -2.6743  0.7284  0.8864
 1139TIP3    H227613   3.299   3.691  11.016  1.5961  0.4491 -1.6437
 1140TIP3   OH227614   2.884   2.784   9.976 -0.2751 -0.6028 -0.5640
 1140TIP3    H127615   2.894   2.864  10.028  2.1062 -1.0282 -0.2790
 1140TIP3    H227616   2.934   2.801   9.896 -1.9316 -0.8644 -1.7153
 1141TIP3   OH227617   6.078   4.730   8.749 -0.0702  0.4431  0.1303
 1141TIP3    H127618   6.036   4.814   8.732  0.3490  1.2412  2.6588
 1141TIP3    H227619   6.155   4.730   8.691  0.5246  2.3247  0.8547
 1142TIP3   OH227620   3.545   1.298   8.722 -0.3045  0.1287 -0.1446
 1142TIP3    H127621   3.520   1.371   8.779  1.7543  1.5248 -0.9232
 1142TIP3    H227622   3.515   1.324   8.635  0.2847 -0.0180 -0.3960
 1143TIP3   OH227623   5.450   3.577   8.501 -0.3610 -0.1054 -0.2640
 1143TIP3    H127624   5.415   3.491   8.522  2.9413 -1.3385  0.7636
 1143TIP3    H227625   5.508   3.563   8.426  1.6362  0.7541  1.0164
 1144TIP3   OH227626   5.721   5.473  10.252  0.3378 -0.2815 -0.3852
 1144TIP3    H127627   5.713   5.494  10.345  0.3242 -0.5599 -0.3236
 1144TIP3    H227628   5.676   5.389  10.242  0.2136 -0.1794 -0.6697
 1145TIP3   OH227629   3.447   2.261  10.116  0.6789 -0.0052  0.0378
 1145TIP3    H127630   3.428   2.203  10.041  1.5341  0.3282 -0.4474
 1145TIP3    H227631   3.512   2.214  10.167 -0.2866 -0.4687  0.8844
 1146TIP3   OH227632   1.538   4.014  10.497 -0.6562  0.2948  0.0931
 1146TIP3    H127633   1.468   4.012  10.432  0.4866  0.2629 -1.1900
 1146TIP3    H227634   1.588   4.093  10.475  0.0413  0.0102  0.6198
 1147TIP3   OH227635   1.617   3.851   9.979  0.2934  0.5120  0.1553
 1147TIP3    H127636   1.562   3.823   9.906  0.2970 -0.1606  0.4115
 1147TIP3    H227637   1.656   3.933   9.949  0.9533 -0.1833 -0.9435
 1148TIP3   OH227638   6.609   4.817   9.912 -0.4070 -0.0740  0.2628
 1148TIP3    H127639   6.539   4.813   9.847 -0.2020 -0.8574  0.0743
 1148TIP3    H227640   6.596   4.739   9.966  0.4397 -0.3491  0.0953
 1149TIP3   OH227641   4.880   4.389   9.600  0.2746  0.2935  0.2721
 1149TIP3    H127642   4.787   4.414   9.602 -0.3691 -1.8786  0.4435
 1149TIP3    H227643   4.910   4.415   9.512 -0.6769  0.4399 -0.0215
 1150TIP3   OH227644   5.844   6.519   9.340 -0.5613  0.1989  0.2718
 1150TIP3    H127645   5.861   6.447   9.279  0.9554  0.5065  0.3046
 1150TIP3    H227646   5.776   6.484   9.398 -0.6786 -0.7794 -0.4219
 1151TIP3   OH227647   2.159   4.404  11.080 -0.1301 -0.5157 -0.0003
 1151TIP3    H127648   2.238   4.441  11.120  0.0583 -0.8780 -0.0378
 1151TIP3    H227649   2.186   4.318  11.050 -0.4847 -0.5527 -0.2078
 1152TIP3   OH227650   5.858   0.930   8.829  0.1560  0.5237 -0.2393
 1152TIP3    H127651   5.928   0.978   8.785  0.9403 -0.1296  0.2470
 1152TIP3    H227652   5.866   0.840   8.796 -0.9898  0.6204 -0.7955
 1153TIP3   OH227653   2.214   4.171  10.884  0.1261 -0.2423 -0.0158
 1153TIP3    H127654   2.291   4.115  10.884 -0.8956 -1.7063 -1.0551
 1153TIP3    H227655   2.141   4.112  10.870 -1.0827  1.2611 -0.3587
 1154TIP3   OH227656   2.530   2.909  10.134  0.2885  0.2543 -0.0869
 1154TIP3    H127657   2.556   2.974  10.069  3.2511 -1.2204 -0.5257
 1154TIP3    H227658   2.474   2.848  10.085  0.9561  0.1883 -0.7944
 1155TIP3   OH227659   6.524   5.754   8.833  0.4439 -0.2112  0.2880
 1155TIP3    H127660   6.494   5.796   8.753 -0.0560 -0.2874  0.4339
 1155TIP3    H227661   6.550   5.826   8.891  0.2840 -0.1378  0.2656
 1156TIP3   OH227662   6.104   5.204   9.139 -0.1815 -0.2671 -0.0293
 1156TIP3    H127663   6.122   5.238   9.227  0.3896  0.6533 -0.4786
 1156TIP3    H227664   6.057   5.122   9.153 -0.8774  0.3143  1.1203
 1157TIP3   OH227665   6.651   3.746   9.145 -0.5788  0.4753 -0.3465
 1157TIP3    H127666   6.721   3.774   9.204 -0.1983 -0.9668 -0.0777
 1157TIP3    H227667   6.674   3.785   9.061  0.3351  0.3495 -0.1695
 1158TIP3   OH227668   0.370   0.081   8.872 -0.4949 -0.2539 -0.4713
 1158TIP3    H127669   0.407   0.143   8.934  1.0466 -0.5005 -1.1069
 1158TIP3    H227670   0.288   0.122   8.843 -0.2351  0.7824  0.2175
 1159TIP3   OH227671   4.270   3.600  10.266 -0.0857  0.1670 -0.5753
 1159TIP3    H127672   4.222   3.520  10.288 -0.2562  0.3441 -0.2914
 1159TIP3    H227673   4.254   3.613  10.173 -0.4517  0.1314 -0.5183
 1160TIP3   OH227674   2.555   6.623  10.465 -0.2912 -0.0991 -0.8600
 1160TIP3    H127675   2.605   6.619  10.546  0.8356  0.7017 -1.4963
 1160TIP3    H227676   2.595   6.558  10.408 -0.7301 -0.2743 -0.9779
 1161TIP3   OH227677   3.730   0.435   8.893 -0.6595  0.0287  0.5720
 1161TIP3    H127678   3.684   0.472   8.817 -2.4006 -0.4808  1.3317
 1161TIP3    H227679   3.783   0.364   8.856 -0.5434  0.5633 -0.3236
 1162TIP3   OH227680   6.680   5.946  11.923 -0.0970  0.9425  0.3157
 1162TIP3    H127681   6.585   5.943  11.908 -0.1201  2.3688 -0.0191
 1162TIP3    H227682   6.703   5.857  11.947 -1.1551 -0.0154 -1.9044
 1163TIP3   OH227683   3.104   5.631  11.608  0.4484  0.0491 -0.4600
 1163TIP3    H127684   3.192   5.616  11.573  0.4018 -0.4674 -0.3555
 1163TIP3    H227685   3.079   5.548  11.648  0.4596  0.5859  0.7275
 1164TIP3   OH227686   6.415   5.382  11.162  0.2512  0.0853 -0.1314
 1164TIP3    H127687   6.478   5.352  11.227  0.6779  0.1696 -0.5011
 1164TIP3    H227688   6.464   5.442  11.106 -0.5330  1.3072  0.4480
 1165TIP3   OH227689   0.218   1.660   9.082 -0.2815 -0.4911 -0.8028
 1165TIP3    H127690   0.158   1.585   9.087 -0.6907 -0.1330 -0.1574
 1165TIP3    H227691   0.292   1.634   9.137 -0.4122 -0.4381 -0.5988
 1166TIP3   OH227692   2.005   5.317  10.674 -0.1141 -0.1763  0.1607
 1166TIP3    H127693   1.930   5.263  10.649  0.1245 -0.4171 -0.0352
 1166TIP3    H227694   2.076   5.255  10.689  0.2578  0.1075 -0.4200
 1167TIP3   OH227695   6.517   2.008   9.633  0.5177  0.9088 -0.4409
 1167TIP3    H127696   6.461   2.017   9.710  0.5707  1.5397 -0.4706
 1167TIP3    H227697   6.604   1.988   9.668  0.4037  0.5333 -0.3688
 1168TIP3   OH227698   4.857   0.093  11.476 -0.5216 -0.0897  0.3379
 1168TIP3    H127699   4.890   0.095  11.566 -0.7977 -0.3139  0.4445
 1168TIP3    H227700   4.846   0.000  11.456  1.5656 -0.1868 -0.6766
 1169TIP3   OH227701   4.427   3.172  11.666  0.2504  0.1275  0.6165
 1169TIP3    H127702   4.427   3.267  11.654 -0.2535  0.1895  1.1030
 1169TIP3    H227703   4.365   3.156  11.737  0.2731 -0.5738  0.4862
 1170TIP3   OH227704   3.638   3.010  11.906 -0.5727 -0.1213  0.3102
 1170TIP3    H127705   3.593   2.989  11.988 -0.8642 -1.6187 -0.1977
 1170TIP3    H227706   3.597   3.091  11.876  0.2842  1.0730  2.1591
 1171TIP3   OH227707   0.546   5.200  10.932 -0.6301  0.3618 -0.3691
 1171TIP3    H127708   0.516   5.173  11.019 -0.8985  1.0996 -0.2247
 1171TIP3    H227709   0.471   5.246  10.894 -0.3825  0.3853 -0.8359
 1172TIP3   OH227710   3.606   4.202  10.067  0.4394 -0.0525  0.0062
 1172TIP3    H127711   3.675   4.265  10.087  0.7320  0.1095 -1.4238
 1172TIP3    H227712   3.548   4.247  10.006  0.8997 -1.2714 -1.4037
 1173TIP3   OH227713   5.335   4.706  11.322 -0.2163  0.1690  0.0670
 1173TIP3    H127714   5.409   4.747  11.367 -0.5058  0.3815  0.3579
 1173TIP3    H227715   5.336   4.615  11.350  1.6495 -0.5813 -2.1268
 1174TIP3   OH227716   5.095   3.455  11.915 -0.1070 -0.1132  0.5940
 1174TIP3    H127717   5.093   3.385  11.849  0.6365 -1.2442  1.7418
 1174TIP3    H227718   5.106   3.410  11.998  2.0845  1.4561  1.2249
 1175TIP3   OH227719   6.195   3.111  11.189  0.1641  0.0358  0.4386
 1175TIP3    H127720   6.280   3.067  11.187  0.4936  0.5701  1.6447
 1175TIP3    H227721   6.198   3.165  11.268 -0.2708  2.1165 -0.9018
 1176TIP3   OH227722   3.885   4.145  10.764  0.4561  0.4126 -0.1506
 1176TIP3    H127723   3.866   4.052  10.776  0.5639  0.3118 -0.7174
 1176TIP3    H227724   3.935   4.170  10.841  0.3453  0.0210  0.0471
 1177TIP3   OH227725   2.821   6.262   9.674  0.0882 -0.0489 -0.1844
 1177TIP3    H127726   2.831   6.188   9.734 -0.3607  0.9134  1.1288
 1177TIP3    H227727   2.737   6.247   9.631  0.0946 -0.4006 -0.0784
 1178TIP3   OH227728   5.367   1.511   8.331 -0.4324 -0.3821  0.1189
 1178TIP3    H127729   5.443   1.510   8.272 -1.5308  0.9987 -1.4133
 1178TIP3    H227730   5.401   1.549   8.413  0.4835  0.4766 -0.6385
 1179TIP3   OH227731   4.917   5.670   8.827  0.0062 -0.0172  0.1358
 1179TIP3    H127732   4.936   5.577   8.815 -0.5377 -0.0130 -0.8718
 1179TIP3    H227733   4.867   5.674   8.909  0.5647 -0.5344  0.5070
 1180TIP3   OH227734   2.677   6.444   9.218 -0.0207  0.1297 -0.1258
 1180TIP3    H127735   2.720   6.387   9.281 -0.5985  0.4860  0.5953
 1180TIP3    H227736   2.747   6.470   9.158  0.7538  0.5713  0.9385
 1181TIP3   OH227737   6.354   0.949   9.163 -0.7672  0.1478  0.1273
 1181TIP3    H127738   6.365   0.865   9.118  0.7952  0.2415  0.3079
 1181TIP3    H227739   6.442   0.985   9.171 -1.2180  1.0327  1.5535
 1182TIP3   OH227740   5.850   0.999  11.214  0.6095  0.0363 -0.0236
 1182TIP3    H127741   5.776   1.003  11.153 -0.1518  0.6936  0.9141
 1182TIP3    H227742   5.890   0.914  11.197 -1.4163 -1.1372  0.6403
 1183TIP3   OH227743   6.691   5.677   9.703  0.3135  0.4459 -0.3531
 1183TIP3    H127744   6.784   5.678   9.726  0.3855  0.3846 -0.6343
 1183TIP3    H227745   6.680   5.755   9.648 -0.6561  2.8501  2.9320
 1184TIP3   OH227746   0.806   0.819  11.201  0.3043 -0.2252 -0.3893
 1184TIP3    H127747   0.773   0.791  11.287  2.7751  1.2021  1.1634
 1184TIP3    H227748   0.774   0.753  11.140 -1.1754 -1.5521  1.6850
 1185TIP3   OH227749   6.479   1.432  10.095  0.0668 -0.3506  0.2525
 1185TIP3    H127750   6.525   1.349  10.109  0.6169 -0.1979 -0.5491
 1185TIP3    H227751   6.425   1.416  10.017 -0.6213 -0.2717  0.7070
 1186TIP3   OH227752   0.008   1.121  11.280 -0.1181 -0.0899 -0.5048
 1186TIP3    H127753   0.075   1.096  11.216 -0.2466  0.1664 -0.7444
 1186TIP3    H227754  -0.022   1.039  11.317  0.1638 -0.2215 -0.5685
 1187TIP3   OH227755   4.353   4.290   9.811  0.0612 -0.4935 -0.4146
 1187TIP3    H127756   4.366   4.330   9.896 -1.9741 -0.0014 -0.2789
 1187TIP3    H227757   4.347   4.196   9.829 -1.4572 -0.3103  0.1793
 1188TIP3   OH227758   2.477   5.334  10.341 -0.3597 -0.1251 -0.0094
 1188TIP3    H127759   2.558   5.289  10.314  0.6567  0.7845  1.3796
 1188TIP3    H227760   2.467   5.404  10.277 -0.5550 -0.7859 -0.7130
 1189TIP3   OH227761   6.269   3.441   9.160  0.1201  0.3294  0.4048
 1189TIP3    H127762   6.202   3.491   9.207  1.6604  2.6956  0.2052
 1189TIP3    H227763   6.234   3.433   9.071 -0.5594  0.2037  0.6728
 1190TIP3   OH227764   1.924   2.282  11.230  0.2277  0.0628 -0.0141
 1190TIP3    H127765   2.013   2.271  11.194 -0.3198  0.2818 -1.5108
 1190TIP3    H227766   1.900   2.371  11.206  0.0891  0.4647  1.5545
 1191TIP3   OH227767   1.596   5.109  11.187  0.5852  0.2977 -1.0323
 1191TIP3    H127768   1.558   5.099  11.100  0.2428 -0.2885 -0.8148
 1191TIP3    H227769   1.633   5.198  11.187 -2.2460  1.5834 -0.6812
 1192TIP3   OH227770   4.359   3.200  10.847 -0.3551 -0.1850  0.6601
 1192TIP3    H127771   4.321   3.141  10.913 -0.2189  0.0051  0.9088
 1192TIP3    H227772   4.298   3.273  10.843 -1.3289 -1.0333 -0.7414
 1193TIP3   OH227773   3.068   3.565  11.527 -0.1170  0.3780  0.1972
 1193TIP3    H127774   3.081   3.578  11.621  0.4592  0.5484  0.0950
 1193TIP3    H227775   2.978   3.533  11.520  0.4668 -1.5791  1.0014
 1194TIP3   OH227776   4.420   6.339   9.747  0.2788  0.1376 -0.2321
 1194TIP3    H127777   4.345   6.292   9.710  2.5557 -3.7077 -0.4674
 1194TIP3    H227778   4.385   6.383   9.824 -2.0659 -2.6063  0.4440
 1195TIP3   OH227779   5.486   2.161   9.935  0.1137 -0.2136 -0.1253
 1195TIP3    H127780   5.537   2.082   9.918 -1.0455 -0.6809 -1.7597
 1195TIP3    H227781   5.542   2.233   9.903  1.2503 -0.3033  1.5423
 1196TIP3   OH227782   1.668   4.608  11.274  0.2903 -0.2416 -0.2291
 1196TIP3    H127783   1.681   4.703  11.281 -0.2264 -0.1575 -0.3741
 1196TIP3    H227784   1.687   4.575  11.361 -2.7566  0.3980  0.7967
 1197TIP3   OH227785   1.797   2.306   9.290 -0.1555 -0.3191 -0.0213
 1197TIP3    H127786   1.840   2.232   9.247 -2.3021 -1.0809 -1.0120
 1197TIP3    H227787   1.705   2.297   9.267 -1.0118  0.7939  2.6092
 1198TIP3   OH227788   3.924   0.914  10.887  0.0334 -0.0401 -0.0444
 1198TIP3    H127789   3.910   0.942  10.978 -0.0575 -0.8776  0.2031
 1198TIP3    H227790   3.845   0.866  10.864  0.8208 -1.4286  0.0562
 1199TIP3   OH227791   5.206   0.696   9.254  0.1471 -0.5541  0.2890
 1199TIP3    H127792   5.259   0.775   9.239 -1.3599  0.6708  1.1413
 1199TIP3    H227793   5.257   0.646   9.318  0.4047  0.4811  0.9215
 1200TIP3   OH227794   5.402   2.173  10.190 -0.3095  0.0048 -0.2841
 1200TIP3    H127795   5.474   2.180  10.252 -0.3356 -1.8062  0.0165
 1200TIP3    H227796   5.441   2.191  10.105  0.1141  0.6915  0.0436
 1201TIP3   OH227797   5.567   6.720   9.767 -0.1375 -0.2943 -0.4156
 1201TIP3    H127798   5.500   6.721   9.836 -0.0517 -0.0538 -0.3334
 1201TIP3    H227799   5.518   6.705   9.686 -0.2698 -0.3073 -0.3336
 1202TIP3   OH227800   4.684   5.402   8.572  0.3887 -0.3298 -0.0330
 1202TIP3    H127801   4.645   5.398   8.485  0.2861 -2.0473  0.0578
 1202TIP3    H227802   4.619   5.362   8.630  1.0959 -0.6347  0.5740
 1203TIP3   OH227803   4.279   2.226  10.509 -0.1258  0.0138  0.3595
 1203TIP3    H127804   4.341   2.167  10.552 -0.1116 -1.2629 -1.3106
 1203TIP3    H227805   4.193   2.184  10.521 -0.0393 -0.7516 -1.3853
 1204TIP3   OH227806   1.105   1.327   9.667 -0.1467  0.6763  0.0591
 1204TIP3    H127807   1.033   1.333   9.729  0.8970 -0.2151  1.4324
 1204TIP3    H227808   1.182   1.353   9.718  1.1045 -2.2715 -0.1099
 1205TIP3   OH227809   4.845   4.902   8.535  0.5046 -0.4173 -0.2819
 1205TIP3    H127810   4.813   4.871   8.451 -1.4387 -0.4699  0.4267
 1205TIP3    H227811   4.923   4.954   8.514  0.1137 -0.5092 -2.0802
 1206TIP3   OH227812   6.036   3.768  11.495  0.2575  0.6224  0.0533
 1206TIP3    H127813   6.081   3.823  11.559  1.1611  1.1511 -0.9881
 1206TIP3    H227814   5.964   3.822  11.463  1.7366  1.7026 -1.7091
 1207TIP3   OH227815   6.160   5.982  10.557  0.5072 -0.1301 -0.0685
 1207TIP3    H127816   6.077   6.027  10.537 -0.2237 -1.5467 -0.3309
 1207TIP3    H227817   6.213   5.993  10.477  1.3006  2.2355  0.6888
 1208TIP3   OH227818   3.536   1.107   9.332  0.0736  0.2117  0.2974
 1208TIP3    H127819   3.545   1.148   9.246 -0.9515 -0.0496  0.0455
 1208TIP3    H227820   3.474   1.162   9.379 -1.3214 -0.9912 -0.0466
 1209TIP3   OH227821   0.820   1.813  11.213 -0.0761  1.0304 -0.1366
 1209TIP3    H127822   0.856   1.857  11.136  1.5917  0.9878  0.5901
 1209TIP3    H227823   0.806   1.722  11.184  0.2566  1.0839 -0.4740
 1210TIP3   OH227824   0.585   0.467  11.226  0.0623  0.1225  0.2312
 1210TIP3    H127825   0.596   0.449  11.319 -0.2639 -0.4803  0.1582
 1210TIP3    H227826   0.525   0.541  11.222 -0.5238 -0.3367  0.4853
 1211TIP3   OH227827   3.691   3.991   9.893 -0.1434 -0.0318 -0.8690
 1211TIP3    H127828   3.604   3.960   9.867 -0.3530 -1.5190  1.2662
 1211TIP3    H227829   3.676   4.035   9.977  0.9403  1.3314 -1.3537
 1212TIP3   OH227830   5.370   6.615   8.425 -0.2462  0.0474  0.4805
 1212TIP3    H127831   5.436   6.560   8.467  0.4026  2.2816  2.6153
 1212TIP3    H227832   5.413   6.650   8.347 -0.3471 -1.6053 -0.3672
 1213TIP3   OH227833   2.199   1.243   8.807 -0.1499  0.1283 -0.0407
 1213TIP3    H127834   2.242   1.227   8.891 -0.4560  1.8964  0.4926
 1213TIP3    H227835   2.137   1.170   8.797 -0.5838  0.2325  1.5852
 1214TIP3   OH227836   4.101   6.710  11.636  0.3007 -0.2497  0.6522
 1214TIP3    H127837   4.045   6.720  11.713  0.6742  2.9591  0.6195
 1214TIP3    H227838   4.190   6.706  11.670  0.6007  2.7344  0.4425
 1215TIP3   OH227839   5.802   5.978   9.145 -0.4004 -0.2303  0.4997
 1215TIP3    H127840   5.795   6.072   9.134 -3.9465 -0.4494 -0.2818
 1215TIP3    H227841   5.855   5.949   9.071  1.8232  1.1531  1.4344
 1216TIP3   OH227842   0.366   3.751  10.444 -0.2731  0.4849 -0.0152
 1216TIP3    H127843   0.435   3.799  10.399  0.8599  0.0472  1.1720
 1216TIP3    H227844   0.301   3.733  10.376  1.1455  0.2309 -1.3717
 1217TIP3   OH227845   5.267   4.609   8.972 -0.2459 -0.4631  0.1634
 1217TIP3    H127846   5.221   4.527   8.957 -1.2105 -0.2092  1.5462
 1217TIP3    H227847   5.202   4.667   9.011  1.2714 -0.1865  2.4976
 1218TIP3   OH227848   2.466   5.536  10.149 -0.0449 -1.1217  0.2952
 1218TIP3    H127849   2.538   5.594  10.127  0.0491 -1.0293  0.8553
 1218TIP3    H227850   2.424   5.518  10.065 -0.8028  0.6974  0.2433
 1219TIP3   OH227851   3.560   6.104   8.843 -0.0371 -0.0601  0.0077
 1219TIP3    H127852   3.527   6.031   8.789 -2.3939  0.4137  0.6830
 1219TIP3    H227853   3.527   6.085   8.931  1.9154  0.3072  0.8610
 1220TIP3   OH227854   5.945   1.408   8.847  0.0151 -0.3796  0.1432
 1220TIP3    H127855   5.995   1.330   8.821  0.2506 -0.3542  0.5064
 1220TIP3    H227856   5.904   1.439   8.766  0.4741 -0.4852 -0.1325
 1221TIP3   OH227857   5.248   3.404   9.197 -0.0868 -0.0640 -0.0269
 1221TIP3    H127858   5.160   3.374   9.175 -0.1752  0.8660 -1.0263
 1221TIP3    H227859   5.281   3.338   9.258 -1.3365 -0.6138  0.0879
 1222TIP3   OH227860   1.994   3.208   9.460  0.0283  0.4815 -0.2988
 1222TIP3    H127861   1.962   3.174   9.377 -1.4366  2.5257 -0.6542
 1222TIP3    H227862   1.928   3.181   9.524 -0.7630  1.9321 -0.4631
 1223TIP3   OH227863   4.883   1.305  11.765  0.2875 -0.1308  0.1983
 1223TIP3    H127864   4.876   1.363  11.690 -0.7527 -0.4672  0.0207
 1223TIP3    H227865   4.977   1.295  11.779  0.4944 -0.0466 -1.0372
 1224TIP3   OH227866   4.638   0.615  10.614  0.1252 -0.6119  0.1304
 1224TIP3    H127867   4.544   0.622  10.598  0.4517  1.1555 -1.2560
 1224TIP3    H227868   4.656   0.679  10.684  0.3555 -0.6902  0.1466
 1225TIP3   OH227869   0.390   0.771   9.079 -0.5229 -0.1647  0.2176
 1225TIP3    H127870   0.424   0.682   9.092  1.4636  0.2578 -1.6453
 1225TIP3    H227871   0.323   0.761   9.012  1.6260  0.0054 -2.1019
 1226TIP3   OH227872   2.657   6.657   9.947 -0.2127 -0.0116  0.2389
 1226TIP3    H127873   2.708   6.648   9.867 -1.6671  1.2012 -0.8717
 1226TIP3    H227874   2.574   6.696   9.920 -1.6136 -1.5196  2.0460
 1227TIP3   OH227875   6.831   0.789   9.242  0.0351  0.0874  0.3735
 1227TIP3    H127876   6.909   0.738   9.261 -0.2190 -0.3129  0.3636
 1227TIP3    H227877   6.800   0.754   9.158 -0.4080 -0.0759  0.6006
 1228TIP3   OH227878   4.535   6.314  10.145 -0.2335 -0.5945  0.3728
 1228TIP3    H127879   4.592   6.384  10.114 -2.2209  1.0954  0.3210
 1228TIP3    H227880   4.535   6.250  10.073  0.9686 -0.2807  0.0686
 1229TIP3   OH227881   5.792   6.135  11.536 -0.5184 -0.1526  0.4579
 1229TIP3    H127882   5.834   6.193  11.600 -1.4537  1.0689 -0.0224
 1229TIP3    H227883   5.837   6.051  11.548  1.0091  0.7020  1.0175
 1230TIP3   OH227884   2.445   1.522  11.844  0.1229 -0.2482  0.6791
 1230TIP3    H127885   2.367   1.483  11.883  1.2965 -1.4809  1.9032
 1230TIP3    H227886   2.420   1.613  11.825 -1.3406 -0.3754  1.8387
 1231TIP3   OH227887   0.477   4.961  10.825  0.7509  0.3082  0.2288
 1231TIP3    H127888   0.485   5.051  10.857 -0.1474  0.7178 -0.6348
 1231TIP3    H227889   0.404   4.964  10.763 -0.2357 -1.2971  1.2178
 1232TIP3   OH227890   2.537   0.659   9.124 -0.7741  0.6197  0.3762
 1232TIP3    H127891   2.472   0.730   9.126  0.2979  1.6285  0.9776
 1232TIP3    H227892   2.619   0.703   9.100 -0.4234 -0.7427 -1.0866
 1233TIP3   OH227893   4.669   0.324  10.988 -0.5434 -0.3172 -0.5049
 1233TIP3    H127894   4.675   0.355  10.898 -0.5912  2.2407  0.3010
 1233TIP3    H227895   4.734   0.254  10.993  2.9365  2.5877 -1.3706
 1234TIP3   OH227896   2.850   3.461   8.709 -1.1159  0.3455  0.0927
 1234TIP3    H127897   2.758   3.458   8.683 -0.8430  2.5113 -1.4624
 1234TIP3    H227898   2.896   3.413   8.639 -0.9336  0.8065 -0.1118
 1235TIP3   OH227899   6.483   0.722  11.215 -0.1460 -0.3468  0.2154
 1235TIP3    H127900   6.535   0.651  11.253  1.4933  0.8741  0.3338
 1235TIP3    H227901   6.457   0.776  11.290 -1.1502 -0.6305  0.0955
 1236TIP3   OH227902   3.481   3.892  10.955 -0.3077  0.6788 -0.6094
 1236TIP3    H127903   3.407   3.933  10.999 -0.0140  0.7131 -0.1389
 1236TIP3    H227904   3.530   3.965  10.918  0.9310  0.9218  1.3310
 1237TIP3   OH227905   1.618   5.025  11.557  0.3601  0.7596 -0.1098
 1237TIP3    H127906   1.553   4.957  11.542  0.2928  0.8630 -0.2854
 1237TIP3    H227907   1.567   5.106  11.567  0.5535  1.4271 -3.3175
 1238TIP3   OH227908   5.701   1.027  11.581  0.2287  0.1927 -0.4659
 1238TIP3    H127909   5.764   1.075  11.526  0.4784  0.1676 -0.2021
 1238TIP3    H227910   5.719   1.057  11.670  0.6116 -0.6280 -0.2520
 1239TIP3   OH227911   5.130   6.330   9.573  0.2593  0.4091  0.1958
 1239TIP3    H127912   5.128   6.237   9.553  0.1633 -0.1261  2.4074
 1239TIP3    H227913   5.058   6.367   9.522  0.8771 -0.5361 -1.4185
 1240TIP3   OH227914   2.902   2.165  10.808  0.3125 -0.7536  0.4570
 1240TIP3    H127915   2.906   2.100  10.879 -1.2418 -0.2656  1.0331
 1240TIP3    H227916   2.853   2.121  10.738 -0.1599 -0.4553  0.5919
 1241TIP3   OH227917   0.407   0.270  10.475 -0.0887  0.3058  0.9770
 1241TIP3    H127918   0.394   0.207  10.404 -0.1078 -0.3499  1.5564
 1241TIP3    H227919   0.332   0.257  10.533 -0.3348  1.1875  0.8660
 1242TIP3   OH227920   3.234   2.794   9.210 -0.0203  0.0754 -0.2692
 1242TIP3    H127921   3.285   2.812   9.289 -0.2485 -1.3453  0.2320
 1242TIP3    H227922   3.267   2.710   9.179 -1.3711 -0.3970 -0.4925
 1243TIP3   OH227923   3.999   0.848  10.503 -0.1282 -0.0832  0.1821
 1243TIP3    H127924   4.012   0.783  10.572 -1.5817 -0.9991 -0.3569
 1243TIP3    H227925   3.920   0.819  10.458 -1.8280  2.9216  0.9369
 1244TIP3   OH227926   3.302   3.069  12.032  0.8104 -0.0055  0.3781
 1244TIP3    H127927   3.339   2.992  12.073  0.0703 -0.1579  0.7717
 1244TIP3    H227928   3.324   3.060  11.939  1.3239 -0.3358  0.5319
 1245TIP3   OH227929   3.059   4.046  11.366 -0.1228 -1.1500  0.5487
 1245TIP3    H127930   3.130   4.010  11.313  1.4469  1.5003  0.6742
 1245TIP3    H227931   2.981   4.037  11.311  1.2242  0.3756 -1.7864
 1246TIP3   OH227932   1.924   3.146  11.497 -0.0384 -0.2308  0.1911
 1246TIP3    H127933   1.975   3.113  11.571 -2.1345 -0.1594  1.7443
 1246TIP3    H227934   1.835   3.117  11.514 -1.0481  1.8960 -1.0273
 1247TIP3   OH227935   2.433   5.657   9.146 -0.1463  0.5401 -0.5072
 1247TIP3    H127936   2.357   5.716   9.139 -0.5388 -0.1154 -2.4209
 1247TIP3    H227937   2.396   5.574   9.175 -0.1785  0.2298 -1.4052
 1248TIP3   OH227938   0.240   4.403   9.104  0.2486 -0.2768  0.4531
 1248TIP3    H127939   0.174   4.390   9.173  0.8870 -2.2002  0.7539
 1248TIP3    H227940   0.204   4.357   9.028  1.4470 -1.8895  0.7962
 1249TIP3   OH227941   3.298   4.152   8.698 -0.6218  0.4096  0.2298
 1249TIP3    H127942   3.279   4.092   8.625  0.4229  1.6122 -1.0945
 1249TIP3    H227943   3.394   4.158   8.699 -0.7250  2.7422 -0.2860
 1250TIP3   OH227944   5.833   6.697  11.637  0.2767  0.0629 -0.6494
 1250TIP3    H127945   5.765   6.732  11.695 -1.6128 -3.0405 -0.7195
 1250TIP3    H227946   5.794   6.701  11.550  2.2277  2.6676 -1.5107
 1251TIP3   OH227947   0.853   5.603  11.465 -0.3265  0.3815 -0.5747
 1251TIP3    H127948   0.934   5.654  11.469 -1.3335  2.0666 -0.6540
 1251TIP3    H227949   0.801   5.635  11.539 -0.4749 -1.5171  0.1937
 1252TIP3   OH227950   1.369   3.006   8.638 -0.3165  0.1029 -0.0738
 1252TIP3    H127951   1.403   2.933   8.690 -2.7947 -0.3263  1.0436
 1252TIP3    H227952   1.406   3.084   8.679  1.5429 -0.4103 -0.6605
 1253TIP3   OH227953   6.475   4.223   9.778 -0.4795  0.1813  0.4620
 1253TIP3    H127954   6.544   4.164   9.749  0.7367  0.7888  1.9858
 1253TIP3    H227955   6.440   4.261   9.697  0.9775 -0.1272 -0.3455
 1254TIP3   OH227956   3.099   3.918   8.692 -0.6212  0.8150 -0.0497
 1254TIP3    H127957   3.133   3.830   8.713 -1.0755  0.6785  0.1294
 1254TIP3    H227958   3.138   3.939   8.607 -0.6263  0.3778 -0.1638
 1255TIP3   OH227959   6.600   4.687   9.038 -0.4852 -0.2203 -0.2974
 1255TIP3    H127960   6.662   4.735   8.984  0.3862 -0.7376  0.2169
 1255TIP3    H227961   6.618   4.595   9.019 -0.3997 -0.4005  0.6091
 1256TIP3   OH227962   1.942   4.738   9.744  0.1811 -0.7106 -0.1399
 1256TIP3    H127963   1.961   4.828   9.717  0.5906 -1.2242 -1.6308
 1256TIP3    H227964   1.852   4.741   9.776  0.4915  0.4028  0.7199
 1257TIP3   OH227965   6.509   1.227  11.049  0.4514  0.0363 -0.2711
 1257TIP3    H127966   6.534   1.182  11.130  2.3607 -0.9434 -1.3296
 1257TIP3    H227967   6.457   1.163  11.002  0.9564 -0.1109 -0.6357
 1258TIP3   OH227968   2.361   5.145   8.635 -0.8131  0.1820 -0.4055
 1258TIP3    H127969   2.337   5.133   8.727  0.0938  0.4402 -0.1279
 1258TIP3    H227970   2.350   5.239   8.619  0.3504  0.3677 -0.1682
 1259TIP3   OH227971   1.660   0.829   8.980 -0.0973 -0.2930  0.2503
 1259TIP3    H127972   1.711   0.787   9.049 -1.7118 -0.6961  1.2372
 1259TIP3    H227973   1.569   0.808   9.000 -0.8052  1.7492 -0.5331
 1260TIP3   OH227974   6.744   4.777   9.297  0.0135 -0.4357 -0.4383
 1260TIP3    H127975   6.721   4.866   9.272 -0.6709 -0.5120 -0.0905
 1260TIP3    H227976   6.719   4.724   9.222 -1.9440 -0.6513  0.3106
 1261TIP3   OH227977   4.944   1.920  11.189 -0.2867 -0.0355 -0.0792
 1261TIP3    H127978   4.952   1.949  11.280 -0.5481  2.9850 -0.9101
 1261TIP3    H227979   5.021   1.865  11.175 -0.8260 -1.5118  2.2298
 1262TIP3   OH227980   6.697   1.567  11.254  0.4053  0.2084  0.1928
 1262TIP3    H127981   6.728   1.501  11.192  0.3071  1.9623 -1.8394
 1262TIP3    H227982   6.604   1.579  11.232  0.6699  1.7469 -0.2092
 1263TIP3   OH227983   5.265   6.739   9.023 -0.3606 -0.3199  0.2273
 1263TIP3    H127984   5.221   6.824   9.020 -1.0653 -0.6826  0.0795
 1263TIP3    H227985   5.317   6.737   8.943 -0.7102 -0.2222 -0.0059
 1264TIP3   OH227986   3.082   3.250  10.972 -0.3773 -0.4992  0.2522
 1264TIP3    H127987   2.999   3.226  10.929  0.1090 -0.3929 -0.7853
 1264TIP3    H227988   3.061   3.253  11.065 -1.3950 -1.0786  0.0558
 1265TIP3   OH227989   4.123   1.672  10.288  0.2664 -0.2631  0.5412
 1265TIP3    H127990   4.171   1.750  10.263  0.1332 -0.0533  0.9357
 1265TIP3    H227991   4.068   1.699  10.362  1.6939 -1.1904  2.0336
 1266TIP3   OH227992   2.352   2.041   8.482 -0.4765 -0.3431  0.1856
 1266TIP3    H127993   2.262   2.070   8.496 -0.5212 -1.2458  2.1780
 1266TIP3    H227994   2.397   2.063   8.564  0.3581 -2.4992  0.3838
 1267TIP3   OH227995   2.394   0.879   9.023  0.4393 -0.2652 -0.0550
 1267TIP3    H127996   2.299   0.883   9.013  0.3486 -0.2475  0.7713
 1267TIP3    H227997   2.426   0.853   8.936 -0.1054  2.4408 -1.1711
 1268TIP3   OH227998   3.239   5.872   8.769 -0.0250 -0.3560 -0.1934
 1268TIP3    H127999   3.232   5.928   8.845  1.6575 -0.7216  0.2610
 1268TIP3    H228000   3.148   5.853   8.745 -0.6238  1.8386  0.1326
 1269TIP3   OH228001   3.478   1.849  10.237 -0.1257 -0.0776 -0.2931
 1269TIP3    H128002   3.542   1.794  10.283 -0.0621  0.4399  0.2604
 1269TIP3    H228003   3.529   1.924  10.206 -0.0102 -0.8140 -1.9423
 1270TIP3   OH228004   1.592   5.385  10.099 -0.3770  0.2122 -0.0576
 1270TIP3    H128005   1.543   5.452  10.051 -1.8334 -0.2143  0.7832
 1270TIP3    H228006   1.533   5.357  10.169  0.5376 -1.3436  0.1371
 1271TIP3   OH228007   5.553   2.436   8.690  0.1493 -0.0505 -0.2251
 1271TIP3    H128008   5.575   2.527   8.669 -1.7677  0.0244 -2.2106
 1271TIP3    H228009   5.457   2.434   8.690  0.1520 -2.2009 -0.7883
 1272TIP3   OH228010   6.677   5.368  11.280  0.2831  0.1414 -0.2722
 1272TIP3    H128011   6.644   5.457  11.296 -1.4317 -0.4739 -0.1147
 1272TIP3    H228012   6.731   5.348  11.356 -2.2413 -0.2178  1.5601
 1273TIP3   OH228013   0.109   0.673  10.311  0.9409 -0.2489 -0.1667
 1273TIP3    H128014   0.155   0.644  10.389  0.8105 -1.3434 -0.4843
 1273TIP3    H228015   0.061   0.751  10.339  1.9019  0.1110  0.5064
 1274TIP3   OH228016   0.200   4.563  11.104 -0.0075 -0.2446 -0.0220
 1274TIP3    H128017   0.160   4.507  11.038  1.4699 -0.8390 -0.4473
 1274TIP3    H228018   0.200   4.650  11.064 -0.3623 -0.3422 -0.2409
 1275TIP3   OH228019   6.345   2.891  11.589  0.2599 -0.0598  0.2753
 1275TIP3    H128020   6.437   2.868  11.580  0.1560 -1.5208  2.3185
 1275TIP3    H228021   6.329   2.891  11.684 -2.0142 -0.6795 -0.0436
 1276TIP3   OH228022   1.934   5.998   9.939 -0.0613  0.2483  0.3917
 1276TIP3    H128023   1.892   5.951   9.867 -0.8424 -0.2239  1.1374
 1276TIP3    H228024   1.879   6.075   9.953  0.5980  0.8293 -0.0942
 1277TIP3   OH228025   0.569   6.424   8.866  0.0731  0.3465  0.5637
 1277TIP3    H128026   0.483   6.393   8.895 -0.5153 -0.5172 -1.8113
 1277TIP3    H228027   0.550   6.507   8.821  0.3489 -0.1348 -0.4789
 1278TIP3   OH228028   0.562   3.105  10.360  0.0067  0.2754  0.4107
 1278TIP3    H128029   0.612   3.187  10.355 -0.9707  0.9548  1.2957
 1278TIP3    H228030   0.619   3.045  10.409  0.1052  0.9443  1.1464
 1279TIP3   OH228031   0.797   2.973   8.710  0.0844  0.0353  0.1598
 1279TIP3    H128032   0.730   2.950   8.647 -1.0220 -0.7878  1.5636
 1279TIP3    H228033   0.769   3.057   8.747 -0.0516 -0.1915  0.5783
 1280TIP3   OH228034   4.793   2.733   9.629  0.1198  0.2521  0.3018
 1280TIP3    H128035   4.775   2.785   9.707  2.7262  0.3374  0.9179
 1280TIP3    H228036   4.842   2.657   9.661  0.9782  0.1328 -1.1959
 1281TIP3   OH228037   2.548   6.005  11.538  0.1347  0.0416  0.0671
 1281TIP3    H128038   2.631   5.963  11.516  0.3489 -0.7147  2.1430
 1281TIP3    H228039   2.559   6.036  11.628 -1.6866  0.2925  0.2476
 1282TIP3   OH228040   2.496   6.111   9.254  0.1796  0.2155  0.8879
 1282TIP3    H128041   2.491   6.176   9.184  1.2439 -0.1601  0.4407
 1282TIP3    H228042   2.423   6.052   9.237 -0.7595  1.2380  1.2616
 1283TIP3   OH228043   4.224   6.596  10.650 -0.2198 -0.2925  0.0506
 1283TIP3    H128044   4.239   6.688  10.672  1.0963 -1.0257  2.6574
 1283TIP3    H228045   4.150   6.570  10.705 -1.0314 -0.6735 -1.1702
 1284TIP3   OH228046   3.372   5.701   9.467  0.4374  0.3498 -0.2391
 1284TIP3    H128047   3.306   5.632   9.463  0.5706  0.1151  1.0688
 1284TIP3    H228048   3.357   5.753   9.388 -0.6002 -0.3260 -0.5156
 1285TIP3   OH228049   2.870   3.628  11.243 -0.0477 -0.5867  0.2119
 1285TIP3    H128050   2.808   3.610  11.313 -0.4966 -0.8592 -0.2522
 1285TIP3    H228051   2.843   3.570  11.172  0.9357 -0.9610  0.1178
 1286TIP3   OH228052   2.778   6.806  10.904  0.2610 -0.0487  0.3950
 1286TIP3    H128053   2.705   6.792  10.965  0.4000  0.4650  0.6852
 1286TIP3    H228054   2.779   6.900  10.888 -1.0796 -0.3643 -2.0683
 1287TIP3   OH228055   6.601   5.615  11.382  0.3608 -0.3898 -0.5292
 1287TIP3    H128056   6.518   5.649  11.416  0.4575 -0.2939 -0.3871
 1287TIP3    H228057   6.654   5.694  11.367  0.1649 -0.4009 -1.3145
 1288TIP3   OH228058   5.649   4.838   9.328 -0.4414 -0.3704 -0.1185
 1288TIP3    H128059   5.627   4.899   9.258 -0.3595 -0.0285  0.1483
 1288TIP3    H228060   5.643   4.890   9.408 -2.3194 -1.1844  0.3185
 1289TIP3   OH228061   3.854   1.515  10.481 -0.1733  0.5312  0.1169
 1289TIP3    H128062   3.821   1.496  10.569  0.1756 -0.5160  0.0405
 1289TIP3    H228063   3.920   1.447  10.466  0.2654  1.1241 -0.6814
 1290TIP3   OH228064   0.759   4.777   9.625 -0.1266  0.1086  0.1589
 1290TIP3    H128065   0.676   4.788   9.671 -0.9039  3.3926 -1.6773
 1290TIP3    H228066   0.749   4.695   9.576 -1.4252 -0.6007  1.5438
 1291TIP3   OH228067   1.529   1.638  10.158  0.3889 -0.4584  0.8635
 1291TIP3    H128068   1.467   1.585  10.208  1.4148 -0.1482  2.5458
 1291TIP3    H228069   1.505   1.728  10.179 -0.9785 -0.1834 -1.5207
 1292TIP3   OH228070   3.277   0.490   8.613 -0.8228  0.4971 -0.0624
 1292TIP3    H128071   3.332   0.490   8.535 -1.4701 -0.4399 -0.5499
 1292TIP3    H228072   3.321   0.429   8.673  0.1129  1.8396  0.6558
 1293TIP3   OH228073   2.296   4.007  10.597 -0.1606 -0.4629  0.3983
 1293TIP3    H128074   2.365   3.945  10.618  1.1848  0.6172 -0.6050
 1293TIP3    H228075   2.294   4.067  10.672  1.4259  0.6811 -0.4324
 1294TIP3   OH228076   5.757   4.323  10.137 -0.3846  0.9395  0.0936
 1294TIP3    H128077   5.742   4.418  10.133  0.0734  0.9838 -1.5338
 1294TIP3    H228078   5.687   4.285  10.085 -1.5946  0.1965  2.1528
 1295TIP3   OH228079   6.009   5.437  11.757  0.2835 -0.0958  0.7362
 1295TIP3    H128080   6.090   5.397  11.791 -0.7620 -2.0491  1.0564
 1295TIP3    H228081   5.947   5.429  11.829 -0.5258  0.3567  0.0960
 1296TIP3   OH228082   3.078   1.198   9.663 -0.4937 -0.1261  0.2552
 1296TIP3    H128083   3.158   1.160   9.699 -0.2428  0.1114 -0.0450
 1296TIP3    H228084   3.010   1.134   9.682 -0.3860  0.0411  1.2473
 1297TIP3   OH228085   0.610   3.137   9.425  0.0010  0.5356  0.4715
 1297TIP3    H128086   0.665   3.061   9.404  1.3004  1.2402  1.1896
 1297TIP3    H228087   0.526   3.099   9.450 -0.3490 -0.5226 -1.9710
 1298TIP3   OH228088   0.066   6.173   9.102  0.5169 -0.1467 -0.0753
 1298TIP3    H128089   0.112   6.103   9.055  2.5032  0.6930  0.5416
 1298TIP3    H228090   0.078   6.250   9.046  0.5837  0.2625  0.4999
 1299TIP3   OH228091   2.460   6.742  10.987 -0.7235 -0.1647 -0.6869
 1299TIP3    H128092   2.386   6.764  10.931  0.9335  0.2704 -2.8699
 1299TIP3    H228093   2.474   6.648  10.974 -2.2702 -0.7799  1.5881
 1300TIP3   OH228094   4.665   6.395  11.735 -0.4403  0.4903  0.9110
 1300TIP3    H128095   4.616   6.436  11.805 -2.3068  0.0744 -0.0922
 1300TIP3    H228096   4.600   6.346  11.685  1.1279 -0.7653 -0.0154
 1301TIP3   OH228097   1.187   3.631  10.566  0.2071 -0.0570 -0.1646
 1301TIP3    H128098   1.139   3.621  10.648 -0.1318  0.8822 -0.2433
 1301TIP3    H228099   1.254   3.696  10.585  0.9056 -0.7147 -0.3046
 1302TIP3   OH228100   5.534   5.381  11.292  0.4012  0.0548  0.3601
 1302TIP3    H128101   5.509   5.354  11.380 -0.1572 -0.0281  0.1801
 1302TIP3    H228102   5.531   5.477  11.294 -1.5598  0.0486 -0.0971
 1303TIP3   OH228103   1.267   0.976  10.022  0.6429 -0.5441 -0.3039
 1303TIP3    H128104   1.271   0.923   9.943  0.5841 -1.6129  0.3948
 1303TIP3    H228105   1.353   0.967  10.063  0.3106 -0.9449  0.3376
 1304TIP3   OH228106   6.196   4.529   8.351 -0.1447  0.6162 -0.7932
 1304TIP3    H128107   6.205   4.607   8.406  1.9464 -0.6110  0.7579
 1304TIP3    H228108   6.222   4.557   8.264  1.0533  1.5606 -0.1557
 1305TIP3   OH228109   5.308   1.447  10.013  0.3611 -0.1122 -0.4635
 1305TIP3    H128110   5.287   1.356  10.034  1.0456 -0.2778 -0.4681
 1305TIP3    H228111   5.402   1.446   9.994  0.3238  0.5522 -0.7051
 1306TIP3   OH228112   2.445   6.727   9.796  0.5942  0.0241  0.4585
 1306TIP3    H128113   2.483   6.793   9.739 -1.4775  0.1807 -0.8189
 1306TIP3    H228114   2.408   6.661   9.737 -3.1738  1.0589  1.4295
 1307TIP3   OH228115   0.536   3.642   8.539  0.0373 -0.4668 -0.1075
 1307TIP3    H128116   0.621   3.613   8.571 -0.2558 -1.5705 -0.2594
 1307TIP3    H228117   0.522   3.591   8.459 -0.6464 -0.1049 -0.2299
 1308TIP3   OH228118   1.902   6.698  10.174  0.0109 -0.2448  0.0636
 1308TIP3    H128119   1.972   6.738  10.226 -1.3257  0.9211  1.0437
 1308TIP3    H228120   1.895   6.755  10.097  0.2554 -0.4737 -0.1297
 1309TIP3   OH228121   2.560   4.367  11.352 -0.0039  0.9880 -0.5756
 1309TIP3    H128122   2.504   4.429  11.398  1.6477  2.1097  0.0246
 1309TIP3    H228123   2.500   4.311  11.303 -1.5556  2.9917 -1.0557
 1310TIP3   OH228124   1.495   2.783   8.806  0.6421 -0.4327 -0.7001
 1310TIP3    H128125   1.520   2.805   8.896  1.5652  1.3254 -1.3596
 1310TIP3    H228126   1.549   2.707   8.784  1.7819  0.2634 -0.3842
 1311TIP3   OH228127   2.649   6.323  11.154 -0.2021  0.2951 -0.7584
 1311TIP3    H128128   2.643   6.308  11.060 -2.9515  1.0337 -0.8000
 1311TIP3    H228129   2.615   6.243  11.193 -1.1602  0.8073 -0.5068
 1312TIP3   OH228130   6.323   1.499  10.461 -1.0514  0.1954 -0.0460
 1312TIP3    H128131   6.395   1.440  10.481 -0.8202  0.2629 -0.6732
 1312TIP3    H228132   6.352   1.584  10.494 -0.7920  0.2465 -0.3978
 1313TIP3   OH228133   4.545   5.369   9.504  0.2298 -0.4407  0.7993
 1313TIP3    H128134   4.635   5.400   9.514 -0.2267  0.9711  0.7025
 1313TIP3    H228135   4.502   5.397   9.585 -0.7338  1.1766 -0.2180
 1314TIP3   OH228136   5.648   3.544   9.124 -0.2569  0.2760 -0.8010
 1314TIP3    H128137   5.632   3.638   9.130 -0.0822  0.2051  1.3395
 1314TIP3    H228138   5.742   3.534   9.139 -0.6968 -0.3946  2.0485
 1315TIP3   OH228139   5.838   5.154   8.368 -0.3870 -0.1632  0.1135
 1315TIP3    H128140   5.895   5.174   8.443  0.5323  0.0500 -0.6119
 1315TIP3    H228141   5.888   5.090   8.317 -1.0026 -0.3118 -0.3071
 1316TIP3   OH228142   2.103   6.432  11.702 -0.1924  0.2612 -0.0135
 1316TIP3    H128143   2.017   6.446  11.663 -0.7870  3.9120  2.1811
 1316TIP3    H228144   2.165   6.448  11.630 -1.2423 -0.4021 -1.1106
 1317TIP3   OH228145   2.040   4.667  11.103 -0.3418 -0.0744  0.3885
 1317TIP3    H128146   2.066   4.577  11.084  0.0349 -0.5078  2.6983
 1317TIP3    H228147   1.953   4.675  11.064  0.2411 -0.9203 -1.1824
 1318TIP3   OH228148   0.708   0.417  10.979 -0.0229 -0.0429  0.0066
 1318TIP3    H128149   0.666   0.334  10.956 -0.9287  0.2293  0.6408
 1318TIP3    H228150   0.685   0.431  11.071  0.2913  0.8134 -0.0392
 1319TIP3   OH228151   6.441   2.424  10.245  0.4085  0.3923  0.2288
 1319TIP3    H128152   6.431   2.353  10.182  1.7106 -0.1488  0.6030
 1319TIP3    H228153   6.357   2.427  10.291  0.1682 -0.5737 -0.1164
 1320TIP3   OH228154   3.288   4.443  10.515  0.2116 -0.0249 -0.1740
 1320TIP3    H128155   3.249   4.410  10.596 -1.5236 -0.3443 -1.0985
 1320TIP3    H228156   3.305   4.365  10.463 -1.6779  0.3181 -1.3940
 1321TIP3   OH228157   3.937   3.130   8.797  0.4461  0.1338 -0.0972
 1321TIP3    H128158   3.930   3.200   8.733  2.2197  1.3518  0.9481
 1321TIP3    H228159   3.962   3.053   8.746  1.0151  0.8823 -0.9808
 1322TIP3   OH228160   1.327   1.535  10.325  0.3800 -0.3244 -0.9036
 1322TIP3    H128161   1.331   1.577  10.411  0.1495 -1.0478 -0.5316
 1322TIP3    H228162   1.238   1.551  10.294  0.5772  0.2663 -1.1878
 1323TIP3   OH228163   4.841   3.201  10.279  0.0239 -0.0357 -0.4276
 1323TIP3    H128164   4.915   3.217  10.338 -0.2892 -1.9963  0.6200
 1323TIP3    H228165   4.765   3.200  10.337 -0.7867  1.3775 -1.4079
 1324TIP3   OH228166   5.087   6.202  11.151 -0.1090  0.0625  0.0027
 1324TIP3    H128167   5.052   6.238  11.070  2.0120  0.6176 -0.7426
 1324TIP3    H228168   5.092   6.277  11.210  0.2444  0.1003 -0.0693
 1325TIP3   OH228169   2.783   3.891   9.412 -0.1955  0.3327  0.1180
 1325TIP3    H128170   2.767   3.802   9.382  1.6116  0.2487 -0.7005
 1325TIP3    H228171   2.777   3.887   9.507 -0.2516 -0.6190  0.0762
 1326TIP3   OH228172   4.124   2.228  11.169  0.3885 -0.2940  0.1563
 1326TIP3    H128173   4.111   2.235  11.263  1.0461  1.4965  0.1439
 1326TIP3    H228174   4.216   2.251  11.155 -0.2710  1.8914 -1.1031
 1327TIP3   OH228175   1.760   5.099  11.933 -0.0250  0.2574  0.2866
 1327TIP3    H128176   1.811   5.174  11.904  0.9741 -0.5210 -0.0355
 1327TIP3    H228177   1.712   5.130  12.010 -1.4250  1.8669 -1.1759
 1328TIP3   OH228178   6.525   3.497   9.216  0.3070 -0.2075  0.2811
 1328TIP3    H128179   6.557   3.570   9.162 -1.6626  1.1612  0.8324
 1328TIP3    H228180   6.429   3.506   9.213  0.0820 -1.6888  1.8594
 1329TIP3   OH228181   0.329   3.125   9.142 -0.6013  0.6289 -0.1880
 1329TIP3    H128182   0.378   3.118   9.060 -1.4708 -1.0592 -0.6134
 1329TIP3    H228183   0.239   3.143   9.115 -1.1423 -1.1427  0.2713
 1330TIP3   OH228184   3.899   4.713  10.264  0.0483  0.1580  0.1014
 1330TIP3    H128185   3.929   4.622  10.264  1.6630  0.6420 -1.5866
 1330TIP3    H228186   3.898   4.738  10.357  0.5198 -1.2789  0.5178
 1331TIP3   OH228187   1.821   1.317   9.322  0.2871  0.5074  0.0418
 1331TIP3    H128188   1.774   1.351   9.246  2.1055  1.1460 -0.8443
 1331TIP3    H228189   1.835   1.394   9.377 -1.4943 -0.0369  1.3517
 1332TIP3   OH228190   1.161   3.093   8.863  0.4147 -0.2167  0.4063
 1332TIP3    H128191   1.189   3.036   8.792 -2.3077  0.5449 -1.4086
 1332TIP3    H228192   1.164   3.181   8.826 -0.3128  0.2901  1.5067
 1333TIP3   OH228193   6.808   3.475  10.456  0.6196  0.2962  0.0463
 1333TIP3    H128194   6.874   3.410  10.478  0.6693  0.3220 -0.0277
 1333TIP3    H228195   6.744   3.426  10.404  0.9527  0.4441 -0.5037
 1334TIP3   OH228196   0.968   4.906   9.086  0.1596 -0.4590  0.1024
 1334TIP3    H128197   0.921   4.949   9.157 -2.0808 -1.9468 -0.3540
 1334TIP3    H228198   0.951   4.960   9.009 -2.0524 -1.6271 -0.3262
 1335TIP3   OH228199   5.962   1.158   8.459 -0.2901  0.9960  0.0378
 1335TIP3    H128200   5.916   1.163   8.375 -1.6031 -0.8934  0.5894
 1335TIP3    H228201   6.033   1.222   8.451 -1.2320  1.8845 -1.9636
 1336TIP3   OH228202   3.154   0.837   8.768 -0.3044  0.4736 -0.1439
 1336TIP3    H128203   3.083   0.807   8.711  0.6863 -0.6395 -0.8500
 1336TIP3    H228204   3.155   0.932   8.756 -0.8826  0.3788 -1.0861
 1337TIP3   OH228205   3.746   5.232  11.622  0.2951  0.8002 -0.3574
 1337TIP3    H128206   3.709   5.153  11.582 -0.7975  0.0520  1.9610
 1337TIP3    H228207   3.685   5.301  11.598 -0.6795  0.2495  0.4597
 1338TIP3   OH228208   3.613   2.799   9.861  0.0300 -0.0098  0.4274
 1338TIP3    H128209   3.526   2.830   9.886 -0.7917 -1.1816 -0.8421
 1338TIP3    H228210   3.631   2.726   9.920 -1.0386 -1.4786 -0.9825
 1339TIP3   OH228211   3.427   5.953   9.948  0.0738  0.3085  0.1695
 1339TIP3    H128212   3.512   5.993   9.931  0.1646  0.7013  1.4502
 1339TIP3    H228213   3.365   6.025   9.940  0.1187  0.5025  1.4112
 1340TIP3   OH228214   3.031   5.167  10.437 -0.4836  0.2147 -0.1704
 1340TIP3    H128215   2.966   5.228  10.403  0.5842  2.1482  1.0955
 1340TIP3    H228216   3.068   5.125  10.359 -1.4162  0.9972 -1.0569
 1341TIP3   OH228217   6.210   4.375   9.279  0.4134  0.1434  0.0852
 1341TIP3    H128218   6.214   4.326   9.197  2.3748 -0.2601  0.3593
 1341TIP3    H228219   6.260   4.455   9.261  4.8741 -1.8929  1.9868
 1342TIP3   OH228220   6.204   1.193  10.555 -0.0261 -0.0921 -0.3706
 1342TIP3    H128221   6.297   1.170  10.543 -0.2594 -1.6496  0.5289
 1342TIP3    H228222   6.164   1.171  10.471  0.0733 -1.4364 -0.0893
 1343TIP3   OH228223   1.449   2.781  10.134 -0.3237 -0.2257  0.0595
 1343TIP3    H128224   1.465   2.687  10.125  2.3348  0.1251  0.5515
 1343TIP3    H228225   1.378   2.798  10.072  0.1598 -2.2821 -1.1742
 1344TIP3   OH228226   5.220   6.356   8.189 -0.1590  0.4498  0.0276
 1344TIP3    H128227   5.231   6.443   8.152  0.9152  1.9346  3.3850
 1344TIP3    H228228   5.143   6.363   8.246  0.3037 -0.5750  0.8239
 1345TIP3   OH228229   5.163   2.182  11.165  0.4189  0.1060 -0.3848
 1345TIP3    H128230   5.236   2.129  11.132 -0.0427 -2.5686  2.4276
 1345TIP3    H228231   5.201   2.235  11.235  0.1416  0.6082 -0.6106
 1346TIP3   OH228232   0.346   2.061  10.902  0.0808  0.0369  0.0926
 1346TIP3    H128233   0.400   2.140  10.916  1.2578 -0.7975  0.4013
 1346TIP3    H228234   0.395   1.991  10.945 -1.0158 -0.8494 -0.0780
 1347TIP3   OH228235   1.184   5.822  10.596 -0.4866  0.5291  0.2445
 1347TIP3    H128236   1.120   5.892  10.584 -1.0990 -0.3139 -1.8922
 1347TIP3    H228237   1.183   5.804  10.690 -0.4385  3.2234  0.8432
 1348TIP3   OH228238   4.375   3.841  10.383 -0.4044  0.0085 -0.2097
 1348TIP3    H128239   4.365   3.817  10.475 -1.1114 -0.2471 -0.3492
 1348TIP3    H228240   4.345   3.764  10.334  1.1777 -0.3711 -0.6762
 1349TIP3   OH228241   6.569   2.098  10.426 -0.1166 -0.3937 -0.2828
 1349TIP3    H128242   6.546   2.129  10.338 -0.8258 -0.7339 -0.2319
 1349TIP3    H228243   6.536   2.166  10.485  1.8133  0.6299 -0.3375
 1350TIP3   OH228244   5.844   4.673  11.320 -0.1211 -0.5063 -0.4810
 1350TIP3    H128245   5.879   4.760  11.339 -0.8417 -0.2034 -0.5129
 1350TIP3    H228246   5.876   4.619  11.392 -0.9424  0.1337  0.3975
 1351TIP3   OH228247   0.986   4.344  11.480  0.0894  0.1051 -0.2398
 1351TIP3    H128248   0.989   4.256  11.441  0.5746  0.3164 -0.6982
 1351TIP3    H228249   0.943   4.398  11.414 -1.1073  0.0250  0.4478
 1352TIP3   OH228250   4.312   2.426   9.098  0.0792 -0.1753  0.1360
 1352TIP3    H128251   4.315   2.333   9.076 -0.4689 -0.5480  1.5490
 1352TIP3    H228252   4.220   2.445   9.111  0.3425 -0.0063  2.0594
 1353TIP3   OH228253   5.463   0.706  11.150 -0.0712 -0.4772 -0.0950
 1353TIP3    H128254   5.487   0.789  11.109  1.1521 -0.3755  0.7565
 1353TIP3    H228255   5.425   0.732  11.234  1.1674 -0.7765  0.5850
 1354TIP3   OH228256   4.528   1.847   9.399  0.5143  0.2608  0.1090
 1354TIP3    H128257   4.436   1.863   9.374  0.8849  1.9383 -0.2841
 1354TIP3    H228258   4.527   1.847   9.494  0.0547 -0.0059  0.1090
 1355TIP3   OH228259   1.310   5.009  10.250 -0.9201  0.2837 -0.1143
 1355TIP3    H128260   1.289   5.008  10.344 -1.5360 -0.2878 -0.2466
 1355TIP3    H228261   1.400   4.978  10.246 -1.2210 -0.6966  0.2336
 1356TIP3   OH228262   2.708   0.221  10.763 -0.4119 -0.2232  0.5544
 1356TIP3    H128263   2.693   0.293  10.702 -0.1711 -1.8894 -1.5766
 1356TIP3    H228264   2.798   0.194  10.748  0.2504  0.3853  2.9344
 1357TIP3   OH228265   4.497   2.996  10.665 -0.3587  0.2922  0.1496
 1357TIP3    H128266   4.562   3.030  10.603 -1.7450 -0.1112 -1.6206
 1357TIP3    H228267   4.471   3.072  10.717  1.9356  0.3425  1.3691
 1358TIP3   OH228268   4.606   2.165   9.294 -0.1308  0.3740 -0.1531
 1358TIP3    H128269   4.658   2.196   9.369  0.7070  0.1392 -0.6183
 1358TIP3    H228270   4.648   2.082   9.270 -2.4390 -1.2934  1.2058
 1359TIP3   OH228271   0.551   3.928   9.273 -0.0453 -0.4392  0.5418
 1359TIP3    H128272   0.515   3.842   9.252  0.5018 -0.8635  1.3163
 1359TIP3    H228273   0.497   3.959   9.347  0.5953 -0.6900  1.1204
 1360TIP3   OH228274   3.607   0.787  11.481 -0.5963  0.0376 -0.5923
 1360TIP3    H128275   3.664   0.753  11.550  0.3475 -0.5832 -1.6475
 1360TIP3    H228276   3.627   0.881  11.479 -1.6956  0.3386  0.9301
 1361TIP3   OH228277   1.908   1.729   8.769  0.0906  0.4542  0.2726
 1361TIP3    H128278   1.986   1.785   8.774 -0.5614  1.5523 -1.1233
 1361TIP3    H228279   1.935   1.647   8.812  1.6128  1.2262  0.8891
 1362TIP3   OH228280   5.826   2.803   9.206 -0.5328 -0.2865 -0.1975
 1362TIP3    H128281   5.908   2.813   9.158 -0.5949 -0.7651 -0.4172
 1362TIP3    H228282   5.764   2.770   9.140 -1.7956  3.0702 -0.8787
 1363TIP3   OH228283   0.869   3.101   9.032 -0.2732  0.0139 -0.4230
 1363TIP3    H128284   0.896   3.015   9.000  2.4040  0.8321 -0.6151
 1363TIP3    H228285   0.843   3.149   8.954  0.2778  0.0550 -0.5795
 1364TIP3   OH228286   2.477   2.878  10.562 -0.8905  0.3011 -0.3763
 1364TIP3    H128287   2.486   2.854  10.654  0.1567  0.4359 -0.4385
 1364TIP3    H228288   2.553   2.932  10.543 -2.1655  2.0412 -0.7805
 1365TIP3   OH228289   4.794   1.566  11.104  0.5754 -0.1943  0.1956
 1365TIP3    H128290   4.882   1.536  11.125  0.3969 -0.3924  0.6811
 1365TIP3    H228291   4.738   1.523  11.169  0.3398  1.4159  1.1018
 1366TIP3   OH228292   5.395   2.938   9.813  0.2722 -0.3305 -0.3922
 1366TIP3    H128293   5.466   2.981   9.861  0.8376  0.3079 -1.7476
 1366TIP3    H228294   5.351   2.884   9.879  2.4123 -1.2709  0.3890
 1367TIP3   OH228295   1.340   4.723   9.632 -0.6096 -0.3226  0.3217
 1367TIP3    H128296   1.385   4.700   9.551  1.8754  0.3179  1.4205
 1367TIP3    H228297   1.273   4.786   9.605 -0.1948 -0.5166 -1.2773
 1368TIP3   OH228298   6.382   6.162   9.844  0.0204 -0.0726  0.2974
 1368TIP3    H128299   6.297   6.162   9.887 -0.4340  1.1407 -0.5401
 1368TIP3    H228300   6.369   6.214   9.764  1.0599 -1.5069 -0.8533
 1369TIP3   OH228301   5.685   3.267   9.762  0.0955  0.6332  0.2121
 1369TIP3    H128302   5.771   3.299   9.788 -0.1333  2.6622 -1.2819
 1369TIP3    H228303   5.695   3.241   9.670 -1.2123  2.4722 -0.5046
 1370TIP3   OH228304   2.033   0.577  10.706 -0.0945  0.0724 -0.1500
 1370TIP3    H128305   2.006   0.564  10.796 -0.4844  0.5649 -0.1901
 1370TIP3    H228306   2.096   0.507  10.689 -0.0291 -0.0306  0.4969
 1371TIP3   OH228307   5.365   4.919  10.004  0.0767 -0.0538  0.4769
 1371TIP3    H128308   5.318   4.836  10.005 -0.6738  0.3307 -0.7588
 1371TIP3    H228309   5.454   4.895   9.976 -0.1498 -0.4283  0.0697
 1372TIP3   OH228310   2.299   2.102   9.436  0.0991 -0.1596  0.0633
 1372TIP3    H128311   2.212   2.137   9.455  0.5417  0.4005  1.1470
 1372TIP3    H228312   2.311   2.118   9.342 -0.8682 -0.0223 -0.0451
 1373TIP3   OH228313   3.587   1.694   9.163 -0.1867  0.1283  0.2422
 1373TIP3    H128314   3.534   1.617   9.183 -0.5090 -0.0652 -1.2159
 1373TIP3    H228315   3.650   1.699   9.235 -1.7853  0.0239  1.7159
 1374TIP3   OH228316   3.276   0.002   9.822  0.1105 -0.0756  0.4190
 1374TIP3    H128317   3.340   0.071   9.839 -0.6038  1.5454 -2.6447
 1374TIP3    H228318   3.325  -0.064   9.773 -0.0495  0.1612 -0.0718
 1375TIP3   OH228319   4.747   0.896   8.664 -0.1698 -0.5480  0.1582
 1375TIP3    H128320   4.730   0.818   8.715 -0.1888 -0.1800  0.7222
 1375TIP3    H228321   4.677   0.957   8.689  0.2466 -0.1007  0.2429
 1376TIP3   OH228322   2.107   1.711   9.867 -0.2625 -0.1688 -0.1662
 1376TIP3    H128323   2.186   1.657   9.869 -0.4231 -0.4164  2.7185
 1376TIP3    H228324   2.138   1.799   9.890 -0.6840 -0.0260 -0.1404
 1377TIP3   OH228325   3.889   1.040   9.132 -0.3709  0.1469  0.4325
 1377TIP3    H128326   3.970   1.039   9.081 -0.0205  3.4198  0.7350
 1377TIP3    H228327   3.900   0.967   9.194  1.1051 -1.1636 -1.2535
 1378TIP3   OH228328   6.299   1.965   8.060  0.2532 -0.3398  0.4838
 1378TIP3    H128329   6.285   1.872   8.042  2.3933 -0.6440  0.2064
 1378TIP3    H228330   6.393   1.978   8.051 -0.1156  2.1147 -0.6808
 1379TIP3   OH228331   3.560   1.150  11.202  0.3516 -0.4074 -0.7162
 1379TIP3    H128332   3.632   1.179  11.145  1.1301 -0.3826  0.2478
 1379TIP3    H228333   3.552   1.220  11.267 -0.6230 -0.3630 -0.8756
 1380TIP3   OH228334   4.120   0.782   9.675 -0.2971  0.0536  0.3832
 1380TIP3    H128335   4.127   0.798   9.769  1.1062  1.7409  0.0301
 1380TIP3    H228336   4.202   0.815   9.639 -0.8833 -0.4278 -1.4604
 1381TIP3   OH228337   2.067   5.081   8.658  0.6576 -0.0740  0.4344
 1381TIP3    H128338   2.006   5.149   8.686 -0.3060 -0.1110 -1.3961
 1381TIP3    H228339   2.137   5.084   8.723 -0.0344  1.7284  1.1828
 1382TIP3   OH228340   4.643   2.072  11.286  0.1499 -0.0057 -0.8865
 1382TIP3    H128341   4.615   1.981  11.278  0.5289 -0.2021 -0.1323
 1382TIP3    H228342   4.722   2.067  11.340  0.6511  0.6952 -1.5382
 1383TIP3   OH228343   3.764   4.462   8.658  0.2550 -0.1422 -0.8158
 1383TIP3    H128344   3.767   4.389   8.719 -0.2813  1.1593  0.8690
 1383TIP3    H228345   3.783   4.424   8.573  3.8400 -1.6651  0.4784
 1384TIP3   OH228346   5.647   6.436  10.505 -0.1036 -0.9036 -0.0066
 1384TIP3    H128347   5.616   6.373  10.440  0.7960 -0.6099 -0.7453
 1384TIP3    H228348   5.735   6.459  10.476 -0.6046  1.1026 -0.0645
 1385TIP3   OH228349   0.259   1.881  10.520 -0.3280  0.0997 -0.5764
 1385TIP3    H128350   0.259   1.927  10.436  0.2692 -1.0152 -1.1930
 1385TIP3    H228351   0.249   1.951  10.585 -0.5497  0.9958 -1.5479
 1386TIP3   OH228352   0.024   5.884  10.022  0.3448 -0.0939 -0.2713
 1386TIP3    H128353   0.042   5.950   9.956 -1.3009 -0.7620 -1.4400
 1386TIP3    H228354   0.111   5.854  10.051  1.1332 -0.3656 -2.7216
 1387TIP3   OH228355   1.948   1.829   9.112 -0.1427 -0.0947  0.0722
 1387TIP3    H128356   1.981   1.888   9.045 -1.2509  0.0344 -0.3715
 1387TIP3    H228357   2.003   1.751   9.104 -0.1242 -0.0008 -0.8480
 1388TIP3   OH228358   4.640   5.129   8.377 -0.3274 -0.1459  0.2579
 1388TIP3    H128359   4.664   5.174   8.458 -0.8564  0.7700 -0.0739
 1388TIP3    H228360   4.574   5.186   8.337  0.0027 -0.5318 -0.8685
 1389TIP3   OH228361   0.714   4.598  10.191  0.5802 -0.2103  0.3607
 1389TIP3    H128362   0.696   4.504  10.181 -0.5051  0.0438 -0.1712
 1389TIP3    H228363   0.641   4.641  10.148  1.0985  0.8923  0.5611
 1390TIP3   OH228364   2.188   2.811  11.199 -0.4386 -0.1113  0.4691
 1390TIP3    H128365   2.243   2.811  11.278  2.1308  3.6027 -1.0259
 1390TIP3    H228366   2.108   2.857  11.227  0.3357  0.9488  1.0490
 1391TIP3   OH228367   6.628   2.383  11.620 -0.4111  0.5628  0.3944
 1391TIP3    H128368   6.588   2.302  11.589 -0.6246  0.3879  1.0923
 1391TIP3    H228369   6.717   2.358  11.646 -0.6484  0.4180  1.1165
 1392TIP3   OH228370   4.305   0.120   9.101  0.4022  0.1752 -0.7749
 1392TIP3    H128371   4.368   0.135   9.031  0.6277  0.8355 -0.4433
 1392TIP3    H228372   4.284   0.027   9.096  0.5626  0.1800 -1.5903
 1393TIP3   OH228373   2.030   1.350  11.109 -0.4241  0.5964  0.3350
 1393TIP3    H128374   1.967   1.278  11.117 -1.1334  1.1552 -0.0878
 1393TIP3    H228375   2.068   1.339  11.022 -0.2672  0.5190  0.4138
 1394TIP3   OH228376   4.528   5.098   9.585 -0.3471 -0.3897  0.3779
 1394TIP3    H128377   4.562   5.157   9.517 -1.3854  0.0220  0.2032
 1394TIP3    H228378   4.539   5.148   9.666  2.5517 -1.5561  0.8335
 1395TIP3   OH228379   3.438   2.022   9.586 -0.4033 -0.1645  0.0851
 1395TIP3    H128380   3.503   2.092   9.585 -0.4061 -0.1402  0.9393
 1395TIP3    H228381   3.376   2.045   9.517  0.3657 -0.0720 -0.5977
 1396TIP3   OH228382   5.960   4.919  11.272 -0.2479  0.3119 -0.6042
 1396TIP3    H128383   6.021   4.849  11.247  0.7060  0.0764  2.0061
 1396TIP3    H228384   6.012   4.975  11.331 -1.8253  1.6193 -0.3921
 1397TIP3   OH228385   2.665   2.370  10.189  0.1178  0.0914  0.0568
 1397TIP3    H128386   2.716   2.451  10.185 -0.0657  0.2581  0.8885
 1397TIP3    H228387   2.580   2.397  10.223 -0.7463 -0.0935 -1.8083
 1398TIP3   OH228388   1.507   3.430  11.703 -0.2883  0.2779  0.0265
 1398TIP3    H128389   1.432   3.370  11.705 -1.1855  1.3492 -0.2442
 1398TIP3    H228390   1.489   3.488  11.629  0.7902  0.5816 -0.0057
 1399TIP3   OH228391   5.230   0.252  11.400 -0.3263  0.1230 -0.2256
 1399TIP3    H128392   5.258   0.224  11.313 -1.1399  2.4335 -1.2993
 1399TIP3    H228393   5.138   0.276  11.389 -0.2106  1.2668  1.0774
 1400TIP3   OH228394   5.224   0.272  10.539  0.1727 -0.1733 -0.1387
 1400TIP3    H128395   5.241   0.220  10.460  1.3806 -0.8621  0.5451
 1400TIP3    H228396   5.294   0.247  10.600  0.6943  2.1270  0.2938
 1401TIP3   OH228397   6.342   4.728   9.440  0.3096 -0.0467  0.2415
 1401TIP3    H128398   6.359   4.694   9.352  1.4582  1.3426 -0.1093
 1401TIP3    H228399   6.259   4.774   9.433 -0.5136 -1.4661  0.3600
 1402TIP3   OH228400   0.494   1.283  11.815 -0.8045 -0.2572 -0.0592
 1402TIP3    H128401   0.480   1.338  11.893 -1.7038 -1.6725  0.8200
 1402TIP3    H228402   0.455   1.332  11.743  0.0799  1.0987  0.3521
 1403TIP3   OH228403   1.864   5.208  11.522 -0.0009  0.5171 -0.0305
 1403TIP3    H128404   1.864   5.197  11.618  0.4359 -1.0998 -0.1948
 1403TIP3    H228405   1.789   5.157  11.492 -0.2431  1.1654 -0.5587
 1404TIP3   OH228406   6.837   5.134  10.059  0.2069 -0.1247 -0.2481
 1404TIP3    H128407   6.761   5.177  10.018  2.3112  1.9472 -2.2684
 1404TIP3    H228408   6.882   5.091   9.986  1.8952  0.1787  0.5698
 1405TIP3   OH228409   2.532   2.822   8.837  0.5558 -0.6446  0.2527
 1405TIP3    H128410   2.491   2.867   8.911  1.6406  0.5670  0.1468
 1405TIP3    H228411   2.619   2.799   8.868  0.8510 -0.5567 -0.5015
 1406TIP3   OH228412   3.323   3.214   9.818 -0.3455 -0.0720 -0.2854
 1406TIP3    H128413   3.295   3.256   9.899  1.2010  1.5430 -0.5306
 1406TIP3    H228414   3.307   3.120   9.833 -3.2684  0.4515  0.5256
 1407TIP3   OH228415   0.849   1.520  10.379 -0.5687  0.0926  0.2113
 1407TIP3    H128416   0.865   1.431  10.411  1.5389  0.2535 -0.2386
 1407TIP3    H228417   0.798   1.507  10.299 -0.6731 -0.6785  0.3918
 1408TIP3   OH228418   5.672   2.569  10.130 -0.5673 -0.0782 -0.0326
 1408TIP3    H128419   5.732   2.497  10.112 -0.4176  0.1463 -0.4609
 1408TIP3    H228420   5.689   2.593  10.221  1.6699  1.4972 -0.7707
 1409TIP3   OH228421   1.246   0.892   8.780  0.2586 -0.1499  0.3523
 1409TIP3    H128422   1.176   0.846   8.733  1.7120 -1.7275 -0.3858
 1409TIP3    H228423   1.321   0.888   8.721  0.8897  1.8783  0.9427
 1410TIP3   OH228424   0.283   5.205   9.419  1.1744 -0.2106  0.5543
 1410TIP3    H128425   0.310   5.118   9.388  1.0564 -0.0232 -0.0942
 1410TIP3    H228426   0.192   5.212   9.391  1.1013  0.0160  0.8489
 1411TIP3   OH228427   5.757   1.653  11.216 -0.1272  0.6440  0.2250
 1411TIP3    H128428   5.775   1.617  11.130 -2.5395  0.9842 -0.4970
 1411TIP3    H228429   5.824   1.721  11.228  0.9917 -0.2418 -0.8223
 1412TIP3   OH228430   0.755   0.905  10.418 -0.0188  0.0369  0.8629
 1412TIP3    H128431   0.748   0.994  10.452 -0.3519  1.0575 -1.6185
 1412TIP3    H228432   0.848   0.884  10.424  0.3824  1.3502 -0.2270
 1413TIP3   OH228433   4.547   2.718   9.983  0.6009 -0.4751 -0.9095
 1413TIP3    H128434   4.538   2.660   9.907  1.0741 -0.2932 -1.1078
 1413TIP3    H228435   4.503   2.671  10.054 -0.2329 -0.4513 -1.3924
 1414TIP3   OH228436   3.002   3.575  10.121 -0.0083  0.4556 -0.0127
 1414TIP3    H128437   2.975   3.666  10.131  0.9790  0.9271 -1.3442
 1414TIP3    H228438   3.040   3.552  10.206  1.2735  1.8542 -0.1634
 1415TIP3   OH228439   3.805   0.328   9.206  0.4884  0.2406  0.1411
 1415TIP3    H128440   3.895   0.360   9.199 -0.0057  1.6879 -0.0209
 1415TIP3    H228441   3.769   0.336   9.118 -0.4302  1.7636  0.6064
 1416TIP3   OH228442   5.019   0.379  11.856 -0.0885  0.4745 -0.6901
 1416TIP3    H128443   4.954   0.341  11.915 -0.3109  2.7280  0.6242
 1416TIP3    H228444   4.975   0.454  11.817  0.8976  0.4980 -1.7916
 1417TIP3   OH228445   3.999   6.642   8.381 -0.4911  0.0924 -0.0856
 1417TIP3    H128446   3.918   6.607   8.417  0.4333 -0.1685  1.8886
 1417TIP3    H228447   3.977   6.732   8.355 -0.9486  0.7805  2.4359
 1418TIP3   OH228448   5.460   5.255   9.468  1.2364 -0.6973 -0.4412
 1418TIP3    H128449   5.552   5.274   9.451  1.1905  0.2694  0.3439
 1418TIP3    H228450   5.414   5.338   9.455  0.7613 -0.6797  1.1014
 1419TIP3   OH228451   4.056   4.213   9.700  0.5591  0.1921 -0.2838
 1419TIP3    H128452   4.016   4.128   9.681  2.3742 -0.8387  0.2575
 1419TIP3    H228453   4.149   4.194   9.709  1.1398  2.4052 -1.0210
 1420TIP3   OH228454   2.790   0.018  10.071 -0.0933  0.2531  1.0598
 1420TIP3    H128455   2.735  -0.057  10.049  0.8032 -0.6423  1.7807
 1420TIP3    H228456   2.869   0.005  10.020  0.3238  0.3630  1.6705
 1421TIP3   OH228457   6.389   1.979  11.601 -0.3389  0.2903  0.2522
 1421TIP3    H128458   6.300   1.945  11.605 -0.1706 -0.4372 -1.5565
 1421TIP3    H228459   6.441   1.917  11.652 -0.7486  0.3273  0.7158
 1422TIP3   OH228460   2.838   5.903  11.140 -0.2049 -0.2472 -0.6015
 1422TIP3    H128461   2.857   5.990  11.176 -2.5384  0.7451 -1.5670
 1422TIP3    H228462   2.809   5.919  11.051 -1.3970 -1.9527 -0.5762
 1423TIP3   OH228463   3.658   1.659  11.753 -0.1937  0.1465  0.1204
 1423TIP3    H128464   3.633   1.624  11.667  1.1024  2.4325 -1.3103
 1423TIP3    H228465   3.582   1.710  11.781 -0.6208 -0.6056  0.3435
 1424TIP3   OH228466   4.480   5.662  10.525  0.4777  0.3286  0.0475
 1424TIP3    H128467   4.401   5.615  10.553 -0.3153  1.2212 -0.6433
 1424TIP3    H228468   4.514   5.702  10.605  0.3292 -0.2022  0.3795
 1425TIP3   OH228469   0.756   5.786  10.232 -0.7700  0.6097  0.2614
 1425TIP3    H128470   0.840   5.799  10.189 -0.4710 -1.8309 -0.0715
 1425TIP3    H228471   0.769   5.818  10.321  0.0630  1.4954 -0.1729
 1426TIP3   OH228472   1.019   4.186   8.417 -0.0631 -0.4089 -0.6982
 1426TIP3    H128473   0.935   4.168   8.374 -0.8953 -0.3750  0.8527
 1426TIP3    H228474   1.004   4.265   8.468  0.9307 -0.3891 -0.4171
 1427TIP3   OH228475   3.022   1.342  10.939 -0.3967 -0.1368 -0.0048
 1427TIP3    H128476   2.978   1.422  10.965 -0.3676 -0.2522  0.4029
 1427TIP3    H228477   3.053   1.359  10.850 -1.2537 -0.0557 -0.2903
 1428TIP3   OH228478   4.221   4.452  11.198  0.1253  0.1007 -0.6476
 1428TIP3    H128479   4.206   4.440  11.105 -2.6796 -0.0487 -0.2716
 1428TIP3    H228480   4.146   4.409  11.240  0.7927  0.9958  1.6255
 1429TIP3   OH228481   2.246   2.372   8.815  0.2477  0.2857 -0.3259
 1429TIP3    H128482   2.222   2.286   8.850  1.9803 -0.3378 -0.5521
 1429TIP3    H228483   2.341   2.368   8.807  0.1891  1.5251 -2.1720
 1430TIP3   OH228484   2.042   0.993   9.960 -0.3538  0.1567  0.0940
 1430TIP3    H128485   1.983   0.948  10.020  0.2558 -0.0900  0.5201
 1430TIP3    H228486   1.998   1.075   9.940 -1.1229 -0.2795 -0.0764
 1431TIP3   OH228487   5.591   0.358  10.437 -0.8133 -0.5168 -0.6754
 1431TIP3    H128488   5.635   0.339  10.520 -0.5358  0.4543 -0.5883
 1431TIP3    H228489   5.502   0.382  10.461 -1.5579 -2.8622 -0.8791
 1432TIP3   OH228490   0.757   4.272  10.852 -0.2693  0.1413 -0.6806
 1432TIP3    H128491   0.674   4.247  10.812  0.9214 -1.9435 -2.0404
 1432TIP3    H228492   0.769   4.364  10.826 -2.3009  0.6459 -0.0606
 1433TIP3   OH228493   1.064   2.351  10.544 -0.1605  0.0927 -0.0153
 1433TIP3    H128494   1.056   2.282  10.478 -1.5396 -0.5568  0.8010
 1433TIP3    H228495   0.974   2.376  10.565  0.2648  0.5883  1.3098
 1434TIP3   OH228496   1.542   3.664   9.674  0.2646 -0.2469  0.0147
 1434TIP3    H128497   1.625   3.705   9.649  0.8672 -0.7719  1.0806
 1434TIP3    H228498   1.566   3.574   9.697 -0.4788 -0.2073  0.9917
 1435TIP3   OH228499   5.010   4.050   9.502  0.6657  0.9925  0.0987
 1435TIP3    H128500   5.060   3.969   9.502 -0.9149 -0.0323 -0.5757
 1435TIP3    H228501   4.965   4.051   9.587  1.2877  1.5658  0.4267
 1436TIP3   OH228502   6.424   4.197  10.302  0.2456  0.6784 -0.5527
 1436TIP3    H128503   6.377   4.253  10.364 -1.1449 -0.0090 -0.9302
 1436TIP3    H228504   6.404   4.233  10.216  0.0151  0.1072 -0.7445
 1437TIP3   OH228505   5.312   4.614  10.225 -0.2216 -0.6501 -0.2606
 1437TIP3    H128506   5.405   4.594  10.226 -0.3502 -1.4326 -1.4781
 1437TIP3    H228507   5.294   4.642  10.135 -1.5491 -2.6017 -0.6755
 1438TIP3   OH228508   3.491   2.066  11.371  0.1813  0.3922 -0.3564
 1438TIP3    H128509   3.559   2.033  11.430  1.4441  1.8241 -0.9251
 1438TIP3    H228510   3.438   1.990  11.350  1.2872 -0.6741  0.5589
 1439TIP3   OH228511   2.637   5.024  11.416  0.0374  0.8479 -0.3704
 1439TIP3    H128512   2.670   4.961  11.352  1.6200 -0.1049  1.2857
 1439TIP3    H228513   2.577   5.079  11.366  0.8796 -0.0868 -2.5704
 1440TIP3   OH228514   6.633   2.416   8.309  0.4509  0.1717  0.1826
 1440TIP3    H128515   6.660   2.353   8.242  2.0062 -1.9119  2.5804
 1440TIP3    H228516   6.538   2.404   8.317  0.6488 -1.6160  0.2613
 1441TIP3   OH228517   2.747   5.219  10.656  0.3976  0.0762 -0.4943
 1441TIP3    H128518   2.686   5.286  10.627  1.6898 -0.2308 -4.6317
 1441TIP3    H228519   2.828   5.266  10.674  0.8935 -0.1293 -2.0169
 1442TIP3   OH228520   2.106   1.247   9.776  0.2540 -0.5005 -0.1310
 1442TIP3    H128521   2.012   1.261   9.769  0.1201 -1.2375  0.2111
 1442TIP3    H228522   2.144   1.320   9.726 -0.4173  1.3788  1.9615
 1443TIP3   OH228523   1.990   1.443   8.791  0.3586  0.9673  0.1044
 1443TIP3    H128524   2.032   1.372   8.743 -1.0025  1.3391 -1.7564
 1443TIP3    H228525   1.972   1.407   8.878  1.6682 -0.1940 -0.0781
 1444TIP3   OH228526   3.857   6.203   8.543  0.1290  0.5491  0.4347
 1444TIP3    H128527   3.795   6.249   8.488  1.0164  1.6206  0.2988
 1444TIP3    H228528   3.911   6.152   8.482 -0.3344 -0.0472  0.5169
 1445TIP3   OH228529   2.454   2.520  11.328 -1.1654 -0.3614 -0.0413
 1445TIP3    H128530   2.548   2.505  11.330 -0.4898  2.8961 -1.3128
 1445TIP3    H228531   2.429   2.501  11.237 -0.8799  2.4562 -0.7978
 1446TIP3   OH228532   5.808   1.101  11.830  0.1967 -0.5519 -0.1843
 1446TIP3    H128533   5.826   1.016  11.871 -0.6839 -1.6800 -2.0175
 1446TIP3    H228534   5.892   1.147  11.835  0.0865 -0.4243  3.1284
 1447TIP3   OH228535   3.195   5.814   9.996 -0.1811  0.0817 -0.2263
 1447TIP3    H128536   3.286   5.845  10.000 -0.2977  0.2977  1.1534
 1447TIP3    H228537   3.178   5.804   9.903  1.3020 -0.0729 -0.5154
 1448TIP3   OH228538   1.348   5.821  11.612 -0.2299 -0.1021  0.6394
 1448TIP3    H128539   1.345   5.884  11.540  1.0289  0.4861  1.0871
 1448TIP3    H228540   1.418   5.852  11.670  1.6534 -2.7583  0.0267
 1449TIP3   OH228541   0.538   3.077   8.950 -1.2095  0.5856  0.5517
 1449TIP3    H128542   0.531   3.045   8.860  0.3861  2.2607 -0.2411
 1449TIP3    H228543   0.626   3.113   8.956 -1.5354  1.1875  2.5782
 1450TIP3   OH228544   1.029   1.801   9.296 -0.3393  0.0598 -0.0083
 1450TIP3    H128545   1.110   1.846   9.318  0.1424 -0.4444 -0.7268
 1450TIP3    H228546   0.982   1.793   9.379  0.8946 -0.7274  0.6312
 1451TIP3   OH228547   0.771   4.452   9.611 -0.6299  0.4743 -0.0565
 1451TIP3    H128548   0.741   4.382   9.553 -0.7553  1.1935 -0.8885
 1451TIP3    H228549   0.725   4.438   9.693 -3.1340  1.4246 -1.2110
 1452TIP3   OH228550   5.809   0.254  10.272 -0.7439  0.3200  0.4589
 1452TIP3    H128551   5.740   0.301  10.319 -0.7532  0.5484  0.2210
 1452TIP3    H228552   5.869   0.225  10.340 -0.9475  0.3335  0.6457
 1453TIP3   OH228553   5.892   2.178  10.867  0.1388 -0.2166  0.1695
 1453TIP3    H128554   5.894   2.250  10.930 -1.6556 -0.9381  1.1316
 1453TIP3    H228555   5.869   2.219  10.784  0.3944  0.4658  0.4225
 1454TIP3   OH228556   0.673   2.665   8.926 -0.3936 -0.0650  0.2183
 1454TIP3    H128557   0.755   2.713   8.941 -0.0871 -0.3793 -0.4102
 1454TIP3    H228558   0.641   2.645   9.013  1.2056 -1.6251  0.5002
 1455TIP3   OH228559   3.547   6.340  10.900 -0.2894 -0.4038 -0.4506
 1455TIP3    H128560   3.554   6.436  10.906  1.3017 -0.5529  0.5519
 1455TIP3    H228561   3.459   6.321  10.934 -0.3497  0.6463  0.0394
 1456TIP3   OH228562   6.128   0.940  11.049 -0.3531 -0.2415  0.4885
 1456TIP3    H128563   6.109   0.850  11.023  0.6143  0.7345 -4.5189
 1456TIP3    H228564   6.218   0.936  11.082 -0.6529 -1.1926  1.2563
 1457TIP3   OH228565   5.256   1.823  10.995  0.0918  0.0510 -0.0104
 1457TIP3    H128566   5.267   1.728  11.003  1.4018  0.0552 -1.3631
 1457TIP3    H228567   5.346   1.857  10.994 -0.3386  1.2085 -0.6445
 1458TIP3   OH228568   1.334   4.172   9.455  0.3546  0.4937 -0.1237
 1458TIP3    H128569   1.397   4.209   9.517 -1.7315  0.3953  2.1872
 1458TIP3    H228570   1.293   4.248   9.414  1.5780  0.5588 -1.3029
 1459TIP3   OH228571   3.561   3.802  10.179 -0.2274 -0.2765 -0.0937
 1459TIP3    H128572   3.635   3.742  10.188 -0.1050  0.0029  0.8332
 1459TIP3    H228573   3.488   3.745  10.155  0.0575 -0.6931  0.0070
 1460TIP3   OH228574   6.709   6.113  11.042 -0.0970  0.1438 -0.0157
 1460TIP3    H128575   6.660   6.185  11.082 -0.2348  0.1646 -0.2226
 1460TIP3    H228576   6.741   6.061  11.117  0.1693  0.5271  0.1413
 1461TIP3   OH228577   0.127   5.637   9.562  0.6075 -0.3096 -0.6232
 1461TIP3    H128578   0.106   5.724   9.528 -0.0050 -0.2892 -0.2193
 1461TIP3    H228579   0.213   5.647   9.603  0.1476  0.3378  0.2231
 1462TIP3   OH228580   6.122   5.010   9.989 -0.3772 -0.3711 -0.1302
 1462TIP3    H128581   6.138   4.980  10.078  2.7259  1.1836 -0.0478
 1462TIP3    H228582   6.047   5.069   9.996  0.3910  0.4496  1.6449
 1463TIP3   OH228583   5.035   6.434  11.309 -0.1259 -0.0555  0.0242
 1463TIP3    H128584   4.975   6.493  11.265  0.0656 -0.6022 -1.0229
 1463TIP3    H228585   5.122   6.467  11.286  0.0308 -1.6378 -1.9902
 1464TIP3   OH228586   5.533   2.978   9.010  0.1555  0.1950  0.0717
 1464TIP3    H128587   5.505   2.907   8.952 -0.0745  0.6150 -0.3428
 1464TIP3    H228588   5.628   2.966   9.019  0.1426 -0.0656 -0.1296
 1465TIP3   OH228589   5.576   3.531   8.255  0.1828  0.1026  0.2131
 1465TIP3    H128590   5.655   3.480   8.236  1.5504  1.3058  2.3254
 1465TIP3    H228591   5.597   3.619   8.225 -0.8234  0.1810 -0.2750
 1466TIP3   OH228592   4.322   0.438  11.594 -0.0063  0.1400 -0.2344
 1466TIP3    H128593   4.254   0.468  11.534  0.2870 -0.3958 -0.8526
 1466TIP3    H228594   4.329   0.507  11.659 -0.6391  0.5321 -0.5690
 1467TIP3   OH228595   2.617   5.265  11.780  0.0573 -0.0393 -0.1169
 1467TIP3    H128596   2.570   5.316  11.714  0.3032 -0.3545 -0.5385
 1467TIP3    H228597   2.548   5.218  11.826 -0.5233  2.7960  2.2145
 1468TIP3   OH228598   1.165   3.519  10.313  0.0524 -0.3309  0.0903
 1468TIP3    H128599   1.133   3.554  10.396 -2.3370 -1.1134 -0.4343
 1468TIP3    H228600   1.251   3.560  10.301  0.0741  0.4615  2.5006
 1469TIP3   OH228601   1.182   2.191   9.352  0.4559 -0.0420 -0.1322
 1469TIP3    H128602   1.100   2.230   9.381  1.1004  0.0440  1.6782
 1469TIP3    H228603   1.183   2.104   9.393  1.1478 -0.1518 -0.3641
 1470TIP3   OH228604   0.646   1.265   9.614 -0.0954  0.4634  0.1412
 1470TIP3    H128605   0.689   1.233   9.693  0.0197  1.0767  0.3338
 1470TIP3    H228606   0.717   1.282   9.553 -0.1320  0.6020  0.1364
 1471TIP3   OH228607   6.698   6.631   9.751 -0.5957 -0.2762 -1.1200
 1471TIP3    H128608   6.685   6.703   9.689  1.0802  2.2299  1.1885
 1471TIP3    H228609   6.610   6.606   9.778 -1.2660 -0.0884 -3.0097
 1472TIP3   OH228610   4.703   4.140   9.818  0.0207 -0.2932 -0.0885
 1472TIP3    H128611   4.675   4.155   9.727 -0.4770 -0.4936  0.0285
 1472TIP3    H228612   4.635   4.083   9.855 -1.3353  2.0414  1.2699
 1473TIP3   OH228613   0.073   1.514   9.366 -0.2152 -0.3386  0.3593
 1473TIP3    H128614   0.003   1.460   9.403  0.7716 -0.6719  1.8060
 1473TIP3    H228615   0.074   1.490   9.273 -2.4996  0.2419  0.1015
 1474TIP3   OH228616   2.467   6.442  12.044  0.2677 -0.3870  0.0281
 1474TIP3    H128617   2.394   6.402  11.997  0.3240 -1.4016  0.7595
 1474TIP3    H228618   2.432   6.460  12.131  0.6299 -0.0639  0.1068
 1475TIP3   OH228619   0.909   3.075  11.403 -0.1371 -0.5853 -0.3527
 1475TIP3    H128620   0.972   3.058  11.473 -0.4394 -1.0057 -0.1755
 1475TIP3    H228621   0.823   3.066  11.445 -0.3297 -1.5245 -0.9232
 1476TIP3   OH228622   5.232   5.151  10.617 -0.4056  0.4492 -0.4016
 1476TIP3    H128623   5.298   5.123  10.554  0.9667  0.7303  0.8644
 1476TIP3    H228624   5.201   5.070  10.657  0.6130  0.4122  0.3679
 1477TIP3   OH228625   5.073   3.538   9.553  0.0512  0.0747 -0.1017
 1477TIP3    H128626   5.039   3.586   9.628 -0.1481  0.5686 -0.5040
 1477TIP3    H228627   5.162   3.513   9.579  0.2978  0.9865 -0.0280
 1478TIP3   OH228628   6.295   6.632  11.663 -0.2381 -0.3228  0.2608
 1478TIP3    H128629   6.230   6.589  11.608 -2.1842 -0.2311  2.3419
 1478TIP3    H228630   6.312   6.570  11.734  0.3817  0.4916  0.8526
 1479TIP3   OH228631   4.213   5.411   9.520  0.2843 -0.2757  0.5628
 1479TIP3    H128632   4.134   5.359   9.536  0.0694  0.5712  2.5313
 1479TIP3    H228633   4.270   5.353   9.469 -1.0989 -1.3547  0.1728
 1480TIP3   OH228634   3.231   0.940  11.114 -0.4095 -0.3664 -0.2768
 1480TIP3    H128635   3.154   0.995  11.130 -1.3378 -1.7223  0.0594
 1480TIP3    H228636   3.290   0.960  11.186  0.2494  1.7912 -1.3277
 1481TIP3   OH228637   4.456   2.439  10.391 -0.3570 -0.4665  0.2717
 1481TIP3    H128638   4.409   2.370  10.438 -1.3285  0.8266  1.2868
 1481TIP3    H228639   4.390   2.480  10.336  0.2876 -0.5593 -0.5850
 1482TIP3   OH228640   1.808   1.461  11.545  0.1961 -0.6114  0.4960
 1482TIP3    H128641   1.736   1.521  11.567  1.7297  2.0404 -1.1506
 1482TIP3    H228642   1.876   1.481  11.609  2.1593  2.3921 -2.2041
 1483TIP3   OH228643   4.091   4.105  10.386 -0.0120 -0.1930  0.8681
 1483TIP3    H128644   4.031   4.179  10.397 -0.4760 -0.5954  1.0857
 1483TIP3    H228645   4.170   4.144  10.350  0.0651  0.5468  1.7936
 1484TIP3   OH228646   3.841   3.340   8.655  0.0808  0.1457 -0.2466
 1484TIP3    H128647   3.782   3.395   8.705  1.6166  1.5903  0.0732
 1484TIP3    H228648   3.923   3.390   8.651  2.0754 -2.7218  1.3324
 1485TIP3   OH228649   6.028   6.667   9.528  0.6897  0.1840 -0.2488
 1485TIP3    H128650   6.011   6.761   9.529 -1.0507  0.0348  3.6817
 1485TIP3    H228651   5.963   6.631   9.468 -1.2257  1.2498  1.0871
 1486TIP3   OH228652   2.153   4.588   9.845  0.0786 -0.3080  0.6750
 1486TIP3    H128653   2.241   4.620   9.831  0.3449 -1.0265  0.6466
 1486TIP3    H228654   2.096   4.656   9.809  0.5713  0.7541  1.8480
 1487TIP3   OH228655   2.074   4.478  11.597  0.1281  0.0235  0.4094
 1487TIP3    H128656   2.053   4.531  11.521 -1.4982 -0.9553  0.1279
 1487TIP3    H228657   2.046   4.531  11.672 -1.2595 -0.2900  0.1410
 1488TIP3   OH228658   5.461   5.944   9.620 -0.2519 -0.0021  0.1822
 1488TIP3    H128659   5.552   5.929   9.647  0.4241  2.5157 -0.3823
 1488TIP3    H228660   5.409   5.919   9.696  0.8270 -2.1144  0.2897
 1489TIP3   OH228661   5.919   3.749  10.669  0.5886 -0.5191 -0.2442
 1489TIP3    H128662   5.983   3.817  10.645  0.6969 -0.7549 -0.6344
 1489TIP3    H228663   5.860   3.793  10.730  0.8735 -0.1761 -0.2086
 1490TIP3   OH228664   2.403   4.285   9.778  0.1529  0.0193  0.5811
 1490TIP3    H128665   2.316   4.308   9.746  0.4071 -1.0789 -1.0681
 1490TIP3    H228666   2.393   4.198   9.816  0.0869  0.8638  2.5961
 1491TIP3   OH228667   2.506   6.160  11.777  0.5231 -0.0013 -0.0680
 1491TIP3    H128668   2.556   6.127  11.852  1.4821  1.5110 -0.0014
 1491TIP3    H228669   2.457   6.234  11.813  0.9846  0.7332 -0.9127
 1492TIP3   OH228670   0.587   5.010   9.508 -0.0849 -0.1982 -0.4331
 1492TIP3    H128671   0.557   4.959   9.583 -0.5462  0.1485 -0.3861
 1492TIP3    H228672   0.515   5.007   9.446  0.1308 -0.1195 -0.6921
 1493TIP3   OH228673   3.043   2.188  11.215 -0.1759  0.4821 -0.0640
 1493TIP3    H128674   3.118   2.215  11.267  0.2174 -1.2271  0.3292
 1493TIP3    H228675   3.080   2.131  11.147 -0.9643  0.6875 -0.6829
 1494TIP3   OH228676   2.398   4.771  10.197  0.0471 -0.4585 -0.7977
 1494TIP3    H128677   2.313   4.788  10.238  1.0011  2.0176  0.4028
 1494TIP3    H228678   2.397   4.824  10.117  0.4800 -0.3599 -0.7408
 1495TIP3   OH228679   6.835   5.023   9.110 -0.0319  0.0215  0.6400
 1495TIP3    H128680   6.786   5.071   9.177 -0.0559  1.4249 -0.3329
 1495TIP3    H228681   6.920   5.068   9.107 -0.5196  0.9068 -1.2201
 1496TIP3   OH228682   2.351   4.989  11.777 -0.3315 -0.2496  0.0516
 1496TIP3    H128683   2.312   4.985  11.865  3.5249 -0.4215  1.9839
 1496TIP3    H228684   2.370   4.897  11.755 -0.6333 -0.1508 -0.6313
 1497TIP3   OH228685   0.482   3.640   9.206 -0.6549  0.4600  0.2103
 1497TIP3    H128686   0.525   3.665   9.124 -0.8949  1.9493  0.5148
 1497TIP3    H228687   0.434   3.560   9.185 -0.5311  0.6983 -1.0410
 1498TIP3   OH228688   2.809   2.031   9.278 -0.2683  0.7749  0.4128
 1498TIP3    H128689   2.728   1.981   9.283  0.2173  0.0302  0.9222
 1498TIP3    H228690   2.847   2.006   9.194  0.4780 -0.5194  1.1108
 1499TIP3   OH228691   3.737   1.406  10.249 -0.4085 -0.4384  0.3237
 1499TIP3    H128692   3.670   1.473  10.238 -0.7588 -0.9184 -0.6906
 1499TIP3    H228693   3.785   1.432  10.327 -2.5679 -0.7557  1.8679
 1500TIP3   OH228694   6.594   3.142  11.545 -0.9449  0.3678  0.0828
 1500TIP3    H128695   6.570   3.070  11.603 -1.7104 -0.2265 -0.9399
 1500TIP3    H228696   6.515   3.157  11.492 -0.3652  1.0899 -0.5958
 1501TIP3   OH228697   5.123   2.338  10.113 -0.1818  0.4341  0.3434
 1501TIP3    H128698   5.154   2.406  10.174  0.2549 -0.4581  1.1444
 1501TIP3    H228699   5.131   2.257  10.162 -1.3241 -0.1397 -0.3744
 1502TIP3   OH228700   2.797   3.235   9.580  0.0121  0.6222 -0.2637
 1502TIP3    H128701   2.805   3.151   9.625  2.1253  1.1414  0.4746
 1502TIP3    H228702   2.729   3.221   9.514  1.3889 -2.1646 -1.2404
 1503TIP3   OH228703   3.091   4.877   9.007  0.6750 -0.1918 -0.3518
 1503TIP3    H128704   3.086   4.823   9.086 -2.4605  0.5774  0.1358
 1503TIP3    H228705   3.079   4.816   8.935  1.1828 -0.6170 -0.0803
 1504TIP3   OH228706   5.146   1.889  10.425 -0.1905 -0.0438 -0.1006
 1504TIP3    H128707   5.083   1.887  10.498  0.7954  0.6982  0.8008
 1504TIP3    H228708   5.223   1.843  10.458  0.2285  0.2063 -0.7214
 1505TIP3   OH228709   2.828   5.000   8.602 -0.3365 -0.4663 -0.0919
 1505TIP3    H128710   2.852   4.963   8.686 -0.7105 -0.8174 -0.1351
 1505TIP3    H228711   2.844   4.930   8.539  1.0149  0.1615 -0.4742
 1506TIP3   OH228712   1.298   2.794   8.473 -0.6842  0.9239 -0.6905
 1506TIP3    H128713   1.386   2.766   8.448 -0.5805  1.0666 -0.4925
 1506TIP3    H228714   1.312   2.877   8.520 -0.9522  1.1098 -0.9368
 1507TIP3   OH228715   1.178   6.151   8.978  0.0998  0.7395 -0.3646
 1507TIP3    H128716   1.095   6.106   8.991 -0.0452  0.0636 -2.9634
 1507TIP3    H228717   1.170   6.192   8.892  2.4536  0.5768 -0.7437
 1508TIP3   OH228718   6.055   4.798   9.028 -0.0881  0.4375  0.2322
 1508TIP3    H128719   6.116   4.778   8.957 -0.8734 -1.7775  0.0961
 1508TIP3    H228720   6.001   4.719   9.035 -1.4836  1.4845  1.8147
 1509TIP3   OH228721   4.871   4.690  10.538 -0.1277  0.7047  0.0538
 1509TIP3    H128722   4.942   4.641  10.496 -0.9878 -1.2367  0.7462
 1509TIP3    H228723   4.802   4.693  10.472 -1.4435 -2.2664  1.0967
 1510TIP3   OH228724   6.490   6.294  10.907  0.2906  0.0453  0.2064
 1510TIP3    H128725   6.502   6.330  10.995 -0.6447  2.1020 -0.4297
 1510TIP3    H228726   6.556   6.340  10.855 -1.1704  1.2130 -0.7026
 1511TIP3   OH228727   6.167   0.791  10.351 -0.5130  0.4531 -0.4923
 1511TIP3    H128728   6.092   0.771  10.295 -1.9698  0.5423  1.3387
 1511TIP3    H228729   6.188   0.707  10.393  0.1707  0.5178 -0.7016
 1512TIP3   OH228730   6.320   0.164  10.683 -0.2376 -0.0564  0.8824
 1512TIP3    H128731   6.404   0.203  10.705  0.8932 -2.8605  2.0236
 1512TIP3    H228732   6.271   0.162  10.765 -1.2482  1.0612  0.3411
 1513TIP3   OH228733   4.166   1.714   9.527 -0.6899 -0.1948 -0.3439
 1513TIP3    H128734   4.205   1.749   9.447  1.2816 -1.3409  0.0513
 1513TIP3    H228735   4.211   1.761   9.598 -0.6442 -0.9120  0.1175
 1514TIP3   OH228736   1.650   4.439   8.516  0.4566  0.4299  0.2295
 1514TIP3    H128737   1.568   4.438   8.466  0.9437  0.0529 -0.5776
 1514TIP3    H228738   1.645   4.361   8.572 -0.8458  1.7328  2.0782
 1515TIP3   OH228739   6.502   2.036   9.198 -0.3703  0.2099  0.2040
 1515TIP3    H128740   6.554   2.049   9.277 -1.4623  0.1613  0.9519
 1515TIP3    H228741   6.439   2.108   9.199 -0.7367 -0.0995 -0.3503
 1516TIP3   OH228742   4.732   5.304   8.053 -0.5892 -0.5402  0.4636
 1516TIP3    H128743   4.674   5.332   7.983 -0.5589 -0.8347  0.3189
 1516TIP3    H228744   4.817   5.341   8.029 -0.3672 -1.3939 -0.1467
 1517TIP3   OH228745   4.441   2.512   9.819 -0.1338  0.5043  0.4758
 1517TIP3    H128746   4.461   2.483   9.730  0.3117  0.8780  0.4551
 1517TIP3    H228747   4.345   2.519   9.820 -0.2938 -1.2735  0.5784
 1518TIP3   OH228748   4.730   1.113  10.749  0.1433  0.0258 -0.3942
 1518TIP3    H128749   4.696   1.029  10.778  1.0399 -0.3786 -0.4706
 1518TIP3    H228750   4.729   1.108  10.654  0.5466 -0.0514 -0.3973
 1519TIP3   OH228751   0.007   6.414   9.834  0.1420 -0.2485  0.1955
 1519TIP3    H128752  -0.062   6.362   9.875 -0.7586 -0.9295 -2.0617
 1519TIP3    H228753  -0.034   6.498   9.814  0.5348  0.0299  0.5209
 1520TIP3   OH228754   4.528   5.396   8.334  0.5124 -0.3009 -0.3841
 1520TIP3    H128755   4.467   5.343   8.282  0.2944  0.3963 -0.8464
 1520TIP3    H228756   4.581   5.442   8.269  0.3806  0.4184  0.0143
 1521TIP3   OH228757   3.247   4.360  11.217  0.8447  0.3764 -0.2838
 1521TIP3    H128758   3.290   4.442  11.241 -1.3594  1.3562  0.6085
 1521TIP3    H228759   3.197   4.336  11.295 -1.0331 -0.1029 -1.5737
 1522TIP3   OH228760   6.236   6.474   9.249  0.3505 -0.2261 -0.2034
 1522TIP3    H128761   6.272   6.530   9.181  0.2397 -0.3827 -0.3918
 1522TIP3    H228762   6.240   6.386   9.212 -1.5595 -0.1149 -0.8335
 1523TIP3   OH228763   6.706   4.047   9.130  0.2397  0.2349 -0.1750
 1523TIP3    H128764   6.759   4.037   9.051  0.6022 -0.8537  0.1854
 1523TIP3    H228765   6.760   4.010   9.200 -0.5138  0.1967  0.4007
 1524TIP3   OH228766   6.569   5.959   9.871 -0.2442 -0.4900 -0.0529
 1524TIP3    H128767   6.605   5.921   9.791 -0.0257  1.9262 -1.2023
 1524TIP3    H228768   6.495   6.012   9.842 -1.0809 -0.7103  1.5523
 1525TIP3   OH228769   4.568   2.192   8.616  0.0325  0.0506 -0.5587
 1525TIP3    H128770   4.495   2.239   8.657  0.2951  0.6107 -0.7293
 1525TIP3    H228771   4.535   2.102   8.605 -0.6080  0.2816 -0.5757
 1526TIP3   OH228772   1.005   3.264   9.624  0.0035 -0.2751 -0.4651
 1526TIP3    H128773   0.970   3.348   9.595 -0.9454 -0.5601 -0.1936
 1526TIP3    H228774   1.074   3.243   9.561  0.6820  0.9902 -0.1727
 1527TIP3   OH228775   1.167   6.290   8.714 -0.6102  0.1660  0.0066
 1527TIP3    H128776   1.196   6.235   8.640 -0.4887  0.9727 -0.5668
 1527TIP3    H228777   1.089   6.335   8.681  0.0372  1.3120 -0.0145
 1528TIP3   OH228778   0.106   1.028  10.120  0.4812  0.2320 -0.0274
 1528TIP3    H128779   0.156   1.097  10.164  1.3525 -0.4622  0.1035
 1528TIP3    H228780   0.130   1.035  10.028  2.4543 -1.3611  0.2858
 1529TIP3   OH228781   4.555   4.755   9.846 -0.2483  0.3509 -0.1182
 1529TIP3    H128782   4.593   4.841   9.864  1.5333 -0.3973 -0.0518
 1529TIP3    H228783   4.627   4.705   9.807 -1.1710 -1.1816  0.0480
 1530TIP3   OH228784   5.620   5.483   9.583 -0.0891 -0.9422 -0.3385
 1530TIP3    H128785   5.654   5.494   9.494  1.0086  0.0077  0.1872
 1530TIP3    H228786   5.656   5.556   9.633 -0.5282 -1.5667  0.9502
 1531TIP3   OH228787   1.947   3.262  11.260  0.3070 -0.8382  0.1453
 1531TIP3    H128788   1.925   3.223  11.344  1.3664 -1.1877  0.2828
 1531TIP3    H228789   1.965   3.354  11.279 -1.0954 -0.5070  0.0035
 1532TIP3   OH228790   3.520   4.571   9.435  0.0916  0.3888 -0.2877
 1532TIP3    H128791   3.555   4.589   9.347 -2.4136  0.7662 -1.3002
 1532TIP3    H228792   3.520   4.657   9.478 -0.8428  0.6470 -0.7870
 1533TIP3   OH228793   4.278   4.160   8.519 -0.7578 -0.3120  0.1486
 1533TIP3    H128794   4.331   4.148   8.598 -0.6574 -0.8007  0.0106
 1533TIP3    H228795   4.343   4.169   8.449 -0.8235  0.9838  0.2231
 1534TIP3   OH228796   6.788   6.530  10.611  0.3471 -0.4729  0.1277
 1534TIP3    H128797   6.835   6.614  10.608  0.1177 -0.3622 -1.9326
 1534TIP3    H228798   6.857   6.464  10.615  0.6375 -0.2445 -0.8594
 1535TIP3   OH228799   2.955   3.012  10.149 -0.0263 -0.3267  0.2388
 1535TIP3    H128800   3.028   2.978  10.200 -1.2996 -1.1731  1.6045
 1535TIP3    H228801   2.971   3.106  10.144  1.6776 -0.6339 -0.4174
 1536TIP3   OH228802   1.043   3.360   9.890  0.0077  0.2430  0.1551
 1536TIP3    H128803   1.034   3.306   9.812 -1.3474 -0.5483  0.8365
 1536TIP3    H228804   1.055   3.449   9.856 -1.6211  0.0774 -0.9821
 1537TIP3   OH228805   4.211   2.531  10.643  0.2994 -0.4935  0.2287
 1537TIP3    H128806   4.128   2.570  10.671  1.6210  1.9967  1.0109
 1537TIP3    H228807   4.238   2.477  10.717 -1.0530 -2.1468 -0.4342
 1538TIP3   OH228808   0.790   2.614   9.165 -0.1315  0.5420 -0.0137
 1538TIP3    H128809   0.817   2.689   9.218  2.0731 -1.2197  1.5281
 1538TIP3    H228810   0.753   2.552   9.228 -1.7403  0.1797 -1.2363
 1539TIP3   OH228811   5.714   5.701   9.715  0.2400 -0.4970 -0.4586
 1539TIP3    H128812   5.762   5.768   9.667  0.4107 -0.3157 -0.0406
 1539TIP3    H228813   5.732   5.719   9.807 -0.5410 -0.4898 -0.2925
 1540TIP3   OH228814   5.289   3.023  10.134  0.0730  0.2226  0.4552
 1540TIP3    H128815   5.301   2.948  10.075  1.5072  1.2688 -0.6490
 1540TIP3    H228816   5.215   3.071  10.098 -1.0555 -0.7603  1.3420
 1541TIP3   OH228817   6.830   0.375  11.226 -0.4019  0.3130  0.5706
 1541TIP3    H128818   6.825   0.407  11.136 -1.9125 -0.3360  0.3899
 1541TIP3    H228819   6.899   0.427  11.266  0.8426  0.0859 -1.1595
 1542TIP3   OH228820   0.188   5.876  10.507  0.0659 -0.1717  0.4703
 1542TIP3    H128821   0.247   5.949  10.485  2.0604 -1.6720  0.5182
 1542TIP3    H228822   0.225   5.801  10.460 -1.0327 -1.4910  1.6340
 1543TIP3   OH228823   0.532   1.361   8.660  0.1775  0.4746 -0.3332
 1543TIP3    H128824   0.594   1.321   8.721 -0.3713  2.4927  1.7205
 1543TIP3    H228825   0.567   1.449   8.645 -1.2233  1.0145 -0.5746
 1544TIP3   OH228826   4.457   3.066   9.157  0.2478  0.4017  0.1484
 1544TIP3    H128827   4.451   3.025   9.071 -2.4076  2.4636 -0.7805
 1544TIP3    H228828   4.366   3.075   9.186  0.6893  4.2519  0.8609
 1545TIP3   OH228829   6.304   2.596   8.775 -0.8969  0.3269  0.1468
 1545TIP3    H128830   6.338   2.671   8.726 -0.2773  0.8689  1.3649
 1545TIP3    H228831   6.372   2.529   8.767 -0.9422  0.2981 -0.0006
 1546TIP3   OH228832   4.834   6.381  10.101  0.4556 -0.0193 -0.1909
 1546TIP3    H128833   4.928   6.394  10.097  0.2571  1.6066 -0.2251
 1546TIP3    H228834   4.813   6.387  10.195  0.5093 -1.5670 -0.0515
 1547TIP3   OH228835   0.964   6.690  11.638  0.3550  0.2428 -0.8428
 1547TIP3    H128836   0.912   6.632  11.583  1.4720  0.1773 -1.8886
 1547TIP3    H228837   0.960   6.775  11.594 -0.3340  0.6963  0.0590
 1548TIP3   OH228838   5.827   2.974   8.955  0.1468  0.4361  0.1876
 1548TIP3    H128839   5.810   2.921   8.877 -0.0645 -1.4980  1.4618
 1548TIP3    H228840   5.913   2.945   8.985  0.1038  0.9412  0.8219
 1549TIP3   OH228841   6.415   3.745  11.379 -0.0832 -0.0068  0.4039
 1549TIP3    H128842   6.495   3.717  11.334 -0.8326  0.1631 -1.0821
 1549TIP3    H228843   6.406   3.682  11.451  1.2954 -0.1182  0.5104
 1550TIP3   OH228844   5.213   3.967   8.673  0.2437 -0.0438 -0.3479
 1550TIP3    H128845   5.118   3.956   8.676  0.1038  1.1400 -0.1333
 1550TIP3    H228846   5.248   3.879   8.687 -0.8130 -0.4027  0.1089
 1551TIP3   OH228847   5.888   6.248   8.852 -0.0758  0.1581  0.0056
 1551TIP3    H128848   5.924   6.185   8.789 -0.1460 -0.9538  1.0256
 1551TIP3    H228849   5.850   6.317   8.798  0.5079 -0.3958 -1.1544
 1552TIP3   OH228850   1.497   2.455  10.846  0.6109  0.2800  0.2575
 1552TIP3    H128851   1.555   2.379  10.850  0.1068 -0.0964  0.4928
 1552TIP3    H228852   1.419   2.424  10.799  0.1922  0.5058  0.7876
 1553TIP3   OH228853   5.232   2.794   9.978 -0.3303 -0.8807 -0.4046
 1553TIP3    H128854   5.268   2.708   9.999  0.6785 -0.1763  0.9529
 1553TIP3    H228855   5.138   2.779   9.972 -0.2534 -1.9709  0.5414
 1554TIP3   OH228856   3.133   6.470   9.059  0.3331  0.0471 -0.4741
 1554TIP3    H128857   3.038   6.480   9.051  0.4242  2.2751  0.4637
 1554TIP3    H228858   3.165   6.475   8.969 -0.4004 -0.2589 -0.7585
 1555TIP3   OH228859   3.297   4.179  10.422 -0.5058 -0.1638  0.1195
 1555TIP3    H128860   3.362   4.135  10.368 -0.0545  0.2541  0.3117
 1555TIP3    H228861   3.215   4.171  10.372 -0.5248 -1.5394  0.3338
 1556TIP3   OH228862   5.156   5.180   9.385 -0.1729 -0.2418 -0.0573
 1556TIP3    H128863   5.225   5.245   9.397  1.7041 -1.8720 -1.3973
 1556TIP3    H228864   5.181   5.107   9.442 -1.4491 -0.3964  0.3375
 1557TIP3   OH228865   5.803   0.028   9.766 -0.3095  0.0959  0.0828
 1557TIP3    H128866   5.723  -0.024   9.773 -1.0842  1.3667  1.1079
 1557TIP3    H228867   5.823   0.052   9.857 -0.2719  1.9871 -0.3990
 1558TIP3   OH228868   5.245   4.005   9.705 -0.1045 -0.0320 -0.0904
 1558TIP3    H128869   5.222   4.091   9.668  0.1506 -0.2110 -0.6634
 1558TIP3    H228870   5.209   3.942   9.643  1.7946 -0.3285 -0.9467
 1559TIP3   OH228871   2.680   4.803   8.764  0.9243  0.4046  0.2350
 1559TIP3    H128872   2.683   4.724   8.818  0.4828 -0.2487 -0.6763
 1559TIP3    H228873   2.590   4.809   8.734  1.0174  1.1042  0.0756
 1560TIP3   OH228874   5.949   2.788  10.643  0.0161  0.0499 -0.2295
 1560TIP3    H128875   6.004   2.859  10.676 -0.3937  0.0873  0.3882
 1560TIP3    H228876   5.890   2.767  10.716  1.0447 -1.8863  0.1139
 1561TIP3   OH228877   1.617   4.455  10.664  0.0938 -0.1403  0.0762
 1561TIP3    H128878   1.699   4.435  10.708  1.1149  0.2139 -1.5438
 1561TIP3    H228879   1.594   4.374  10.617 -0.5250 -0.2601  0.5758
 1562TIP3   OH228880   3.822   3.806   9.553  0.1069  0.0456 -0.0522
 1562TIP3    H128881   3.779   3.721   9.558  1.6812 -0.7468  1.2242
 1562TIP3    H228882   3.752   3.868   9.530 -2.1712 -0.8420  3.6563
 1563TIP3   OH228883   4.265   5.902   9.375 -0.0807  0.5116  0.3658
 1563TIP3    H128884   4.321   5.825   9.372  0.2723  0.6889  1.7151
 1563TIP3    H228885   4.292   5.949   9.454 -0.5081  1.8552 -0.2506
 1564TIP3   OH228886   6.076   1.030   9.191  0.1400  0.0832 -0.0091
 1564TIP3    H128887   6.156   1.026   9.140 -0.6623  3.3463 -1.8268
 1564TIP3    H228888   6.017   0.969   9.148 -0.0369  1.6968 -2.2858
 1565TIP3   OH228889   5.888   1.162  11.411 -0.3721  0.3684  0.1309
 1565TIP3    H128890   5.885   1.110  11.331  0.9608 -0.8556  0.8306
 1565TIP3    H228891   5.979   1.154  11.441 -0.0430  3.3348  0.1485
 1566TIP3   OH228892   3.779   6.617  10.815  0.3075  0.3131 -0.5663
 1566TIP3    H128893   3.776   6.631  10.720 -1.1923  2.4628 -0.2712
 1566TIP3    H228894   3.728   6.690  10.852  1.8843  0.2433  1.9768
 1567TIP3   OH228895   6.018   1.657  11.665  0.1366 -0.4143  0.0660
 1567TIP3    H128896   5.933   1.698  11.680  1.3944  2.5854 -0.2095
 1567TIP3    H228897   5.999   1.584  11.606 -2.1920  0.4683 -0.4055
 1568TIP3   OH228898   5.318   5.415  10.900  0.4528  0.5069 -0.1644
 1568TIP3    H128899   5.324   5.324  10.929  1.3889  0.8612  0.8184
 1568TIP3    H228900   5.313   5.409  10.805 -1.1850 -0.6300 -0.0649
 1569TIP3   OH228901   2.452   3.257  10.277 -0.0339 -0.4572  0.0622
 1569TIP3    H128902   2.469   3.341  10.321 -0.4516 -0.8531  1.0050
 1569TIP3    H228903   2.533   3.208  10.288  0.3152 -0.0695 -0.7498
 1570TIP3   OH228904   5.162   6.629  10.300  0.3170 -0.2475 -0.1710
 1570TIP3    H128905   5.074   6.630  10.337 -0.1692  0.0660 -1.3046
 1570TIP3    H228906   5.211   6.569  10.357 -0.0936  1.0461  1.6191
 1571TIP3   OH228907   1.864   2.121  11.657  0.2515  0.3541 -0.1652
 1571TIP3    H128908   1.937   2.149  11.602  1.3415  1.0625  1.5391
 1571TIP3    H228909   1.831   2.202  11.696 -0.7980 -0.0772 -0.1185
 1572TIP3   OH228910   5.753   5.257  11.903  0.5240  0.4768  0.9115
 1572TIP3    H128911   5.703   5.246  11.822  0.8095  0.0924  0.7830
 1572TIP3    H228912   5.832   5.206  11.889  0.0149 -0.6366  1.9184
 1573TIP3   OH228913   1.945   3.132  10.947 -0.1810  0.0532  0.7386
 1573TIP3    H128914   1.869   3.102  10.898 -0.1554  1.4189 -0.2123
 1573TIP3    H228915   1.962   3.063  11.011 -1.4208 -0.8670  0.1121
 1574TIP3   OH228916   0.352   4.915   9.044 -0.3013  0.3805 -0.0557
 1574TIP3    H128917   0.304   4.978   8.991 -1.2022 -0.5663 -0.3951
 1574TIP3    H228918   0.298   4.836   9.042  0.9378 -0.5025  0.1061
 1575TIP3   OH228919   1.889   6.637  10.635  0.1628  0.2248  0.2003
 1575TIP3    H128920   1.815   6.606  10.686  0.3917  0.5100  0.7087
 1575TIP3    H228921   1.873   6.603  10.547  0.0928 -0.8124  0.6038
 1576TIP3   OH228922   5.249   1.179   9.944  0.0570  0.1776 -0.4927
 1576TIP3    H128923   5.184   1.112   9.922  0.0366  0.9827 -3.3159
 1576TIP3    H228924   5.333   1.139   9.922  0.1260  0.6841 -1.1807
 1577TIP3   OH228925   3.991   3.739  10.248  0.1265  0.2516 -0.1497
 1577TIP3    H128926   4.082   3.753  10.222  0.2206 -0.7263 -0.3565
 1577TIP3    H228927   3.956   3.828  10.258  1.4766  0.6758  1.3172
 1578TIP3   OH228928   1.432   6.124  11.681 -0.5167  0.1694 -0.1083
 1578TIP3    H128929   1.451   6.195  11.620 -1.2663  0.4772  0.0131
 1578TIP3    H228930   1.500   6.131  11.748  0.0338  0.1178 -0.6491
 1579TIP3   OH228931   5.294   2.363   9.875  0.2333  0.5336  0.0347
 1579TIP3    H128932   5.214   2.344   9.923  0.2879  0.8569  0.2582
 1579TIP3    H228933   5.362   2.312   9.921 -0.3491 -2.4631 -2.1439
 1580TIP3   OH228934   2.492   3.210  11.392 -0.2142  0.1653  0.2235
 1580TIP3    H128935   2.582   3.233  11.419 -0.2281 -0.4811  0.8484
 1580TIP3    H228936   2.437   3.270  11.442 -0.0917  1.5244 -1.2067
 1581TIP3   OH228937   1.399   5.670   8.617 -0.0288  0.0037  0.0079
 1581TIP3    H128938   1.435   5.746   8.664 -1.1468  0.0552  0.8161
 1581TIP3    H228939   1.454   5.597   8.643  0.5544  0.3841 -0.1364
 1582TIP3   OH228940   6.414   4.797   9.697 -0.1253 -0.4051 -0.1865
 1582TIP3    H128941   6.379   4.711   9.720  1.9699 -0.9688  1.0485
 1582TIP3    H228942   6.442   4.788   9.606 -0.3810 -0.8468 -0.2248
 1583TIP3   OH228943   4.583   0.118  11.177  0.0515 -0.4522 -0.2385
 1583TIP3    H128944   4.572   0.152  11.266  1.7093 -2.4780  0.8302
 1583TIP3    H228945   4.598   0.195  11.123 -0.9579  0.8260  1.2277
 1584TIP3   OH228946   0.383   4.326   9.553 -0.1751  0.0368  0.3785
 1584TIP3    H128947   0.468   4.309   9.512  0.1277  1.1098  0.5425
 1584TIP3    H228948   0.356   4.241   9.587  1.0683 -0.2277  0.7788
 1585TIP3   OH228949   4.641   1.966  10.787 -0.2481  0.5623  0.4204
 1585TIP3    H128950   4.657   2.003  10.874  0.1741  0.0211  0.5828
 1585TIP3    H228951   4.719   1.989  10.737 -0.9230  1.7261 -0.1197
 1586TIP3   OH228952   2.232   5.207   9.199  0.1988  0.4436  0.9399
 1586TIP3    H128953   2.320   5.199   9.236  0.7470 -0.0371 -0.3757
 1586TIP3    H228954   2.184   5.131   9.233  0.8042 -0.1972  0.4116
 1587TIP3   OH228955   5.712   6.036  10.352  0.4296  0.3611 -0.4092
 1587TIP3    H128956   5.703   6.004  10.442  0.3395  1.8372  0.1400
 1587TIP3    H228957   5.707   5.958  10.298  3.4397 -0.9632  1.0096
 1588TIP3   OH228958   3.641   5.872  10.702 -0.3316  0.2867 -0.1001
 1588TIP3    H128959   3.609   5.872  10.611  1.6176  0.4749 -0.8300
 1588TIP3    H228960   3.587   5.937  10.746 -0.3498  1.2743 -1.5009
 1589TIP3   OH228961   4.886   6.839   8.732 -0.0690  0.3860 -0.2265
 1589TIP3    H128962   4.979   6.816   8.736 -0.3172 -0.5990  0.0671
 1589TIP3    H228963   4.863   6.829   8.639 -0.4700 -1.8455  0.0694
 1590TIP3   OH228964   3.409   5.981  11.167  0.0087 -0.5434 -0.3097
 1590TIP3    H128965   3.476   6.040  11.202 -1.0110  1.3072 -1.3317
 1590TIP3    H228966   3.327   6.013  11.205 -0.5539 -1.4406 -0.7418
 1591TIP3   OH228967   5.376   0.908  11.371  0.0602  0.4002 -0.3763
 1591TIP3    H128968   5.284   0.926  11.391  0.0155 -0.8687  0.6741
 1591TIP3    H228969   5.407   0.854  11.444  1.6697  0.8472 -0.6715
 1592TIP3   OH228970   4.266   6.648   8.326  0.2884 -0.0367 -0.3100
 1592TIP3    H128971   4.193   6.622   8.382 -0.6322  1.1165 -0.9477
 1592TIP3    H228972   4.344   6.625   8.378 -0.3213 -4.2572 -0.8759
 1593TIP3   OH228973   3.448   5.962   8.612  0.1155  0.1867  0.3034
 1593TIP3    H128974   3.441   6.058   8.609 -0.3771  0.1535  0.3143
 1593TIP3    H228975   3.360   5.933   8.633  0.2577 -0.2749  0.2562
 1594TIP3   OH228976   4.660   2.560  10.828 -0.3964 -0.5134 -0.0337
 1594TIP3    H128977   4.613   2.628  10.779 -1.3787 -1.4317 -0.4108
 1594TIP3    H228978   4.752   2.575  10.806 -0.2603  2.2949  1.9297
 1595TIP3   OH228979   2.123   3.625  11.966  0.6911  0.0098 -0.1986
 1595TIP3    H128980   2.207   3.588  11.992  0.8678  0.9544  0.6257
 1595TIP3    H228981   2.141   3.718  11.951 -0.3437  0.3832  0.7487
 1596TIP3   OH228982   4.710   0.061   9.566 -0.0225 -0.2670 -0.0667
 1596TIP3    H128983   4.661   0.069   9.485  2.1079 -0.3981 -1.4683
 1596TIP3    H228984   4.684   0.137   9.618  0.0872  1.0000 -1.7806
 1597TIP3   OH228985   2.806   0.157   8.173 -0.5995 -0.4322  0.4866
 1597TIP3    H128986   2.716   0.126   8.167 -0.8322  0.0383  1.3446
 1597TIP3    H228987   2.859   0.077   8.171 -1.0041 -0.6939 -0.3226
 1598TIP3   OH228988   2.080   5.323   9.953  0.3967  0.2295 -0.3493
 1598TIP3    H128989   2.005   5.327   9.894  1.9760 -0.9926 -2.5784
 1598TIP3    H228990   2.063   5.392  10.017 -1.5414  1.5113 -2.0932
 1599TIP3   OH228991   4.594   5.844   8.134  0.8363 -0.3875 -0.5408
 1599TIP3    H128992   4.511   5.822   8.091  1.4693 -0.3287 -1.8135
 1599TIP3    H228993   4.658   5.785   8.095  1.3406 -0.6874  0.7013
 1600TIP3   OH228994   4.998   1.334   9.266 -0.4482  0.2795 -0.3487
 1600TIP3    H128995   4.977   1.403   9.330  1.5534 -0.2650  1.0236
 1600TIP3    H228996   5.082   1.299   9.297 -0.0385 -0.8824 -2.6140
 1601TIP3   OH228997   6.554   6.587  10.467 -0.2581  0.4102  0.0999
 1601TIP3    H128998   6.578   6.582  10.374 -0.9470 -1.1395 -0.0271
 1601TIP3    H228999   6.633   6.559  10.513 -0.3081 -0.0621 -0.0925
 1602TIP3   OH229000   2.265   3.377   9.143  0.0468  0.3922 -0.7093
 1602TIP3    H129001   2.339   3.430   9.174  0.3077 -0.8958  0.9667
 1602TIP3    H229002   2.290   3.351   9.054  1.6647 -0.1017 -0.1411
 1603TIP3   OH229003   5.538   1.558  10.395  0.0129 -0.5703  0.4708
 1603TIP3    H129004   5.443   1.556  10.390 -0.0344  0.3639  0.8372
 1603TIP3    H229005   5.562   1.474  10.436 -0.6081 -1.0351 -0.1077
 1604TIP3   OH229006   6.556   3.610  10.226 -0.0740 -0.2542  0.1447
 1604TIP3    H129007   6.638   3.659  10.231 -0.6110  0.6536  0.3278
 1604TIP3    H229008   6.495   3.659  10.281 -1.0928 -0.1929 -0.9804
 1605TIP3   OH229009   6.379   0.599   9.125 -0.4481  0.5376 -0.2619
 1605TIP3    H129010   6.432   0.660   9.074 -2.0844  1.5318 -0.8592
 1605TIP3    H229011   6.369   0.522   9.068  1.8415 -0.4660  0.5984
 1606TIP3   OH229012   6.193   0.623  11.296 -0.6219  0.1441  0.5882
 1606TIP3    H129013   6.215   0.702  11.345 -1.0566  0.3298  0.4878
 1606TIP3    H229014   6.227   0.639  11.208  1.1849 -0.6525  1.0790
 1607TIP3   OH229015   1.858   1.703   9.723  0.2485  0.0814  0.0575
 1607TIP3    H129016   1.837   1.780   9.670 -1.2663  0.2622  0.8605
 1607TIP3    H229017   1.919   1.736   9.789  0.9056  0.2061 -0.6012
 1608TIP3   OH229018   4.062   1.744   9.948  0.1682 -0.0178  0.0842
 1608TIP3    H129019   4.147   1.740   9.993  0.3892 -0.9886 -0.3751
 1608TIP3    H229020   4.015   1.667   9.979 -0.0349 -0.1970 -0.6368
 1609TIP3   OH229021   1.812   2.547   9.460 -0.1914  0.6140 -0.0459
 1609TIP3    H129022   1.744   2.488   9.429  0.4004 -2.1439  3.2015
 1609TIP3    H229023   1.885   2.533   9.400 -0.4868 -1.1786 -0.0518
 1610TIP3   OH229024   3.194   6.840  10.156  0.2455  0.2704  0.3868
 1610TIP3    H129025   3.233   6.822  10.242  1.6133  2.0697  0.2095
 1610TIP3    H229026   3.266   6.829  10.094 -0.2950  0.6823 -0.3330
 1611TIP3   OH229027   6.105   3.389  10.260  0.0743  0.2215  0.0334
 1611TIP3    H129028   6.173   3.433  10.208 -1.0118  0.4252 -1.2821
 1611TIP3    H229029   6.087   3.308  10.213  0.2871 -0.4369  1.0704
 1612TIP3   OH229030   1.786   0.539  11.265 -0.4693 -0.1189 -0.1583
 1612TIP3    H129031   1.772   0.529  11.359  0.1363 -0.1141 -0.0650
 1612TIP3    H229032   1.873   0.578  11.258  0.1144 -1.4412 -0.7546
 1613TIP3   OH229033   0.280   6.283  11.397 -0.6538  0.0287  0.5481
 1613TIP3    H129034   0.203   6.236  11.362 -0.1253 -0.2172 -0.3107
 1613TIP3    H229035   0.340   6.289  11.323  1.0168 -1.5530  1.6776
 1614TIP3   OH229036   1.966   4.058  10.259 -0.3788  0.6407 -0.0386
 1614TIP3    H129037   1.880   4.015  10.252  0.3721 -0.9151 -0.1009
 1614TIP3    H229038   1.950   4.133  10.317 -1.5420 -0.2960  0.9127
 1615TIP3   OH229039   3.801   3.953  10.235  0.3262 -0.1659  0.0938
 1615TIP3    H129040   3.727   3.927  10.180  0.1260 -1.6258  1.0079
 1615TIP3    H229041   3.762   4.000  10.308  0.3195 -0.6389  0.4005
 1616TIP3   OH229042   3.455   1.386  10.987 -0.3273 -0.4492 -0.2724
 1616TIP3    H129043   3.438   1.434  11.068 -0.1450 -1.0686  0.1407
 1616TIP3    H229044   3.547   1.360  10.992 -0.3263 -0.5352 -0.6526
 1617TIP3   OH229045   0.390   1.602  11.449 -0.0788  0.1354  1.0405
 1617TIP3    H129046   0.427   1.562  11.371 -0.1402  1.0653  0.5230
 1617TIP3    H229047   0.444   1.680  11.464  0.7084 -0.6639  2.6474
 1618TIP3   OH229048   1.185   3.541   9.041 -0.4907 -0.3233  0.1241
 1618TIP3    H129049   1.199   3.589   8.959  0.8569 -1.1978 -0.1814
 1618TIP3    H229050   1.257   3.568   9.098 -1.9004  0.9449  1.3820
 1619TIP3   OH229051   5.620   4.361  10.466 -0.5088 -0.0391  0.0092
 1619TIP3    H129052   5.594   4.425  10.532  0.7821 -0.6517  1.1560
 1619TIP3    H229053   5.641   4.413  10.389 -1.5564  0.7273  0.2094
 1620TIP3   OH229054   1.512   4.303   9.645 -0.5796  0.6115  0.5207
 1620TIP3    H129055   1.575   4.240   9.681 -0.6366 -1.0152 -1.9684
 1620TIP3    H229056   1.558   4.387   9.649  0.3983  0.0514  1.8564
 1621TIP3   OH229057   4.339   5.954   9.958  0.2260 -0.5796  0.0876
 1621TIP3    H129058   4.255   5.989   9.987 -0.0994 -1.5015  0.2545
 1621TIP3    H229059   4.319   5.869   9.920  1.0618 -0.7407 -0.0207
 1622TIP3   OH229060   5.774   4.344   9.060  0.4125  0.7136  1.0067
 1622TIP3    H129061   5.690   4.313   9.028  0.3533  1.3236  0.5310
 1622TIP3    H229062   5.829   4.266   9.063  0.8148  0.7710 -1.9306
 1623TIP3   OH229063   1.588   2.545   9.616  0.2237  0.6910 -0.5020
 1623TIP3    H129064   1.592   2.455   9.585 -1.7346  0.7734 -1.1870
 1623TIP3    H229065   1.539   2.591   9.547  0.0310  1.9687  0.4535
 1624TIP3   OH229066   0.851   5.270   9.524 -0.3200 -0.0941  0.0549
 1624TIP3    H129067   0.869   5.364   9.518  1.6351 -0.5065 -1.4977
 1624TIP3    H229068   0.756   5.263   9.513 -0.2974  1.5974 -1.7785
 1625TIP3   OH229069   3.383   5.107  10.690 -0.2380  0.6629 -0.4547
 1625TIP3    H129070   3.289   5.088  10.684 -0.3630  1.6796 -2.2634
 1625TIP3    H229071   3.425   5.022  10.680 -0.9124  0.5979 -3.5424
 1626TIP3   OH229072   0.283   2.523   8.588  0.5051 -0.3395  0.2075
 1626TIP3    H129073   0.327   2.604   8.613 -0.0556  0.2782 -0.7203
 1626TIP3    H229074   0.263   2.535   8.495 -0.8903 -0.9328  0.4079
 1627TIP3   OH229075   0.561   4.167   9.818  0.0173  0.4505  0.0263
 1627TIP3    H129076   0.528   4.120   9.742 -0.4560 -0.3225  0.6984
 1627TIP3    H229077   0.649   4.194   9.793 -0.3070  0.6448 -0.9724
 1628TIP3   OH229078   3.729   2.967  10.283  0.2233 -0.4987 -0.1765
 1628TIP3    H129079   3.811   2.928  10.312  0.2446 -0.2922  0.0409
 1628TIP3    H229080   3.735   3.059  10.311  1.4418  0.4604 -3.1576
 1629TIP3   OH229081   1.127   2.535  10.107  0.0351  0.4740 -0.3113
 1629TIP3    H129082   1.117   2.570  10.018  0.7608  1.1368 -0.1418
 1629TIP3    H229083   1.051   2.570  10.155  0.0509  0.7348 -0.4769
 1630TIP3   OH229084   1.764   2.496  10.953 -0.1499 -0.3125 -0.3515
 1630TIP3    H129085   1.746   2.564  10.889 -0.1193 -0.0227 -0.0586
 1630TIP3    H229086   1.839   2.530  11.003 -1.0669  0.1439  0.7747
 1631TIP3   OH229087   6.827   2.912   9.482  0.5465 -0.2169 -0.1229
 1631TIP3    H129088   6.873   2.890   9.401 -0.5719 -2.3714 -0.2369
 1631TIP3    H229089   6.888   2.885   9.551 -0.0337 -2.0247 -0.2753
 1632TIP3   OH229090   4.834   6.816   9.225 -0.0936 -0.3911 -0.1735
 1632TIP3    H129091   4.859   6.782   9.140  0.8567 -1.7146  0.5988
 1632TIP3    H229092   4.765   6.757   9.255 -1.7090  1.1255 -0.7524
 1633TIP3   OH229093   3.357   4.991  11.246 -0.3484 -0.0870 -0.4562
 1633TIP3    H129094   3.296   4.920  11.228  1.1052 -0.7609 -3.4889
 1633TIP3    H229095   3.402   5.005  11.162  1.7044  2.2074  0.8956
 1634TIP3   OH229096   4.679   5.888   9.222  0.0803 -0.1629 -0.2127
 1634TIP3    H129097   4.642   5.889   9.134 -0.8098  0.3234  0.1507
 1634TIP3    H229098   4.700   5.796   9.239  1.6312 -0.0844 -1.4645
 1635TIP3   OH229099   4.328   4.489  10.937  0.1316 -0.2718  0.3190
 1635TIP3    H129100   4.350   4.540  11.015 -2.2555  2.2569 -0.5322
 1635TIP3    H229101   4.377   4.531  10.867 -2.7048  1.8003 -0.5902
 1636TIP3   OH229102   3.166   5.793   9.688  0.3148  0.2365 -0.3857
 1636TIP3    H129103   3.172   5.888   9.684  4.7982  0.1491 -3.7280
 1636TIP3    H229104   3.127   5.768   9.604 -0.5048 -0.9570  0.3088
 1637TIP3   OH229105   2.206   0.954   9.679 -0.1035  0.1807  0.3465
 1637TIP3    H129106   2.221   0.999   9.595  0.2599 -0.6700 -0.0518
 1637TIP3    H229107   2.264   0.879   9.676 -2.2182 -1.5369  0.0750
 1638TIP3   OH229108   0.080   4.399   9.714  0.2453 -0.1600 -0.0419
 1638TIP3    H129109   0.144   4.339   9.677  0.0790 -1.2961  1.4485
 1638TIP3    H229110   0.020   4.418   9.642  0.6856 -1.2459 -0.7083
 1639TIP3   OH229111   4.262   4.408  10.328 -0.6510 -0.2635 -0.0087
 1639TIP3    H129112   4.272   4.503  10.339 -0.1844 -0.3440  0.2949
 1639TIP3    H229113   4.263   4.373  10.417 -0.0897 -0.6222 -0.1511
 1640TIP3   OH229114   6.675   5.378  10.790 -0.6256 -0.0377  0.0130
 1640TIP3    H129115   6.635   5.292  10.807 -0.4594 -0.9814 -3.5347
 1640TIP3    H229116   6.600   5.438  10.785 -1.1035 -0.6862 -0.9372
 1641TIP3   OH229117   0.167   1.997   9.053 -0.0621  0.1217  0.3933
 1641TIP3    H129118   0.254   2.027   9.029 -0.7853  2.0999 -0.0277
 1641TIP3    H229119   0.108   2.050   8.999 -1.5328 -1.1120  0.7090
 1642TIP3   OH229120   3.833   3.148  11.123  0.0467  0.1767  0.3400
 1642TIP3    H129121   3.824   3.243  11.128  3.8145  0.7387 -0.5023
 1642TIP3    H229122   3.865   3.122  11.209  0.3339 -0.1185  0.1461
 1643TIP3   OH229123   0.033   2.894  11.590  0.3791 -0.6097 -0.3946
 1643TIP3    H129124   0.080   2.818  11.624  0.1762 -1.4708 -1.9639
 1643TIP3    H229125   0.070   2.908  11.503  0.0406  0.7860 -0.3369
 1644TIP3   OH229126   1.811   4.811   9.453 -0.2830  0.2488  0.4796
 1644TIP3    H129127   1.783   4.819   9.544 -1.5204 -1.9441  0.3510
 1644TIP3    H229128   1.730   4.817   9.402  0.2851  0.5564 -0.4165
 1645TIP3   OH229129   3.210   6.476  11.047  0.2456 -0.6950  0.5226
 1645TIP3    H129130   3.267   6.520  10.984  0.5039 -1.2974  0.3315
 1645TIP3    H229131   3.170   6.404  10.998 -2.8209  1.2932 -0.1467
 1646TIP3   OH229132   4.588   2.063  10.253 -0.4136  0.6562  0.1937
 1646TIP3    H129133   4.640   2.102  10.323 -0.4240  1.2099 -0.1043
 1646TIP3    H229134   4.562   2.137  10.198 -1.6757  0.4143  0.4405
 1647TIP3   OH229135   5.644   6.146   9.314 -0.1212 -0.1981  0.3309
 1647TIP3    H129136   5.681   6.146   9.402 -1.3337  0.2361  0.8522
 1647TIP3    H229137   5.650   6.054   9.286  1.3006 -0.1525  0.3941
 1648TIP3   OH229138   1.705   2.321  10.644 -0.5347  0.0474  0.1985
 1648TIP3    H129139   1.657   2.349  10.566 -0.9198  0.4521  0.5714
 1648TIP3    H229140   1.757   2.398  10.669  0.8130 -0.5843 -0.5653
 1649TIP3   OH229141   0.600   1.653  11.074  0.1042 -0.1682  0.4951
 1649TIP3    H129142   0.632   1.628  10.988 -0.4216 -0.6214  0.4309
 1649TIP3    H229143   0.594   1.571  11.123 -0.2390  0.0060  0.7502
 1650TIP3   OH229144   4.104   3.265  10.795  0.7148  0.6346 -0.1612
 1650TIP3    H129145   4.105   3.201  10.724 -0.3819  1.2315 -0.7396
 1650TIP3    H229146   4.031   3.323  10.774 -0.0360  0.4606  1.7705
 1651TIP3   OH229147   2.352   1.957  11.354  0.4403 -0.2340  0.0410
 1651TIP3    H129148   2.332   2.002  11.436  0.1550  0.8711 -0.6316
 1651TIP3    H229149   2.270   1.915  11.329  0.0146  0.9518 -0.6165
 1652TIP3   OH229150   3.465   4.331   8.918 -0.3067  0.5644 -0.7507
 1652TIP3    H129151   3.515   4.251   8.939 -1.4079  0.4359  1.6918
 1652TIP3    H229152   3.464   4.333   8.823  0.5052 -1.8712 -0.9004
 1653TIP3   OH229153   0.344   1.403  11.620 -0.5493 -0.1100 -0.0563
 1653TIP3    H129154   0.253   1.372  11.615 -0.9257  1.0144 -0.3565
 1653TIP3    H229155   0.351   1.467  11.549  0.8451 -1.0867 -0.8571
 1654TIP3   OH229156   4.199   2.730  10.388  0.1165  0.7199  0.2161
 1654TIP3    H129157   4.251   2.810  10.381  3.4512 -1.3897 -1.7092
 1654TIP3    H229158   4.219   2.696  10.475 -1.0331  1.6844  0.8994
 1655TIP3   OH229159   6.467   3.703   9.544 -0.2985 -0.4270  0.2270
 1655TIP3    H129160   6.559   3.681   9.534  0.5365  1.4097  2.9403
 1655TIP3    H229161   6.424   3.619   9.564  1.5154 -0.7997  3.0427
 1656TIP3   OH229162   0.162   4.123   9.659 -0.5526  0.0803  0.1156
 1656TIP3    H129163   0.177   4.155   9.748 -0.7486  2.3875 -0.6131
 1656TIP3    H229164   0.241   4.074   9.637  0.5727  1.5667  0.7049
 1657TIP3   OH229165   5.392   6.740   8.799 -0.3810  0.0724  0.7455
 1657TIP3    H129166   5.451   6.806   8.762 -1.5189  0.7425  0.0856
 1657TIP3    H229167   5.325   6.728   8.732 -2.5434  1.3579  2.5403
 1658TIP3   OH229168   5.628   4.985   9.555  0.1704 -0.7832 -0.7362
 1658TIP3    H129169   5.723   4.996   9.550  0.2927 -2.2057 -2.0559
 1658TIP3    H229170   5.606   5.016   9.643  1.6680  0.7223 -0.8190
 1659TIP3   OH229171   0.407   5.963  11.502  0.0271  0.1722 -0.0319
 1659TIP3    H129172   0.423   6.020  11.427 -1.7105 -0.6742 -1.0969
 1659TIP3    H229173   0.461   5.886  11.486 -0.0385  0.1619 -0.1994
 1660TIP3   OH229174   2.076   5.510  11.772  0.3242 -0.0545 -0.1434
 1660TIP3    H129175   2.099   5.418  11.760  1.2818  0.0127  1.0701
 1660TIP3    H229176   2.041   5.515  11.861 -2.6489  0.2244 -1.2007
 1661TIP3   OH229177   0.413   6.186   9.048  0.1825 -0.8237  0.1981
 1661TIP3    H129178   0.347   6.123   9.019  0.9872 -1.8463  0.5221
 1661TIP3    H229179   0.376   6.272   9.028 -0.2794 -1.4236 -1.6900
 1662TIP3   OH229180   6.466   3.144  11.103 -0.6129  0.2350 -0.9041
 1662TIP3    H129181   6.465   3.172  11.011 -0.7749 -0.5318 -1.1494
 1662TIP3    H229182   6.455   3.049  11.098  0.9335 -0.0164 -0.1755
 1663TIP3   OH229183   6.370   4.794  10.425  0.0791 -0.3321 -0.1168
 1663TIP3    H129184   6.306   4.808  10.495  0.1628  1.4695 -0.3534
 1663TIP3    H229185   6.455   4.801  10.468  0.1699  2.2538 -0.5471
 1664TIP3   OH229186   5.488   6.280   9.895 -0.5110 -0.5336 -0.2970
 1664TIP3    H129187   5.533   6.359   9.926  0.0677 -1.8248  2.5301
 1664TIP3    H229188   5.465   6.300   9.805 -2.4905  3.7725  0.8675
 1665TIP3   OH229189   4.440   4.134  10.195  0.0706 -0.2559 -0.3256
 1665TIP3    H129190   4.418   4.138  10.288  0.2183  0.4371 -0.3120
 1665TIP3    H229191   4.436   4.225  10.165 -0.4804 -0.5253 -1.1217
 1666TIP3   OH229192   2.906   2.743   9.698 -0.0533  0.2339  0.5498
 1666TIP3    H129193   2.988   2.732   9.650  0.8660 -3.1334  2.5619
 1666TIP3    H229194   2.870   2.655   9.706 -4.7474  1.6559 -1.3645
 1667TIP3   OH229195   6.018   0.813  10.646 -0.0613 -0.2147  0.3773
 1667TIP3    H129196   5.970   0.864  10.581  0.9755 -0.4995 -0.6480
 1667TIP3    H229197   6.068   0.878  10.696 -2.0329  0.1600  1.9569
 1668TIP3   OH229198   2.379   0.222   9.058  0.5161  0.0474  0.3379
 1668TIP3    H129199   2.425   0.162   9.000  0.5106  1.2520 -0.9642
 1668TIP3    H229200   2.393   0.308   9.020 -1.2530  0.6531  0.9315
 1669TIP3   OH229201   5.811   5.817   9.951  0.3438 -0.0549  0.4918
 1669TIP3    H129202   5.754   5.813  10.028  0.3342  0.1646  0.4967
 1669TIP3    H229203   5.899   5.810   9.987  0.3411  0.0843  0.5271
 1670TIP3   OH229204   6.320   3.508  11.158  0.4626 -0.1819  0.0423
 1670TIP3    H129205   6.274   3.493  11.076  1.5528  1.0862 -0.8408
 1670TIP3    H229206   6.250   3.517  11.223 -0.3832 -3.0645 -0.3180
 1671TIP3   OH229207   4.106   4.698   9.143  0.3580 -0.5398  0.5979
 1671TIP3    H129208   4.093   4.787   9.113  0.9514 -0.5747  0.2189
 1671TIP3    H229209   4.150   4.707   9.228 -0.2260 -0.4652  0.8974
 1672TIP3   OH229210   0.595   1.901  11.376  0.2270  0.7362 -0.3696
 1672TIP3    H129211   0.662   1.865  11.319  0.4463  0.9040 -0.2228
 1672TIP3    H229212   0.603   1.851  11.458 -0.7297 -0.1662 -0.8022
 1673TIP3   OH229213   3.043   6.224   9.505 -0.7024 -0.7500 -0.1118
 1673TIP3    H129214   3.044   6.296   9.442  0.2043 -0.8344 -0.2013
 1673TIP3    H229215   2.982   6.253   9.573  0.7814  0.7969  0.6462
 1674TIP3   OH229216   0.396   6.293  11.141 -0.0813 -0.1834  0.0029
 1674TIP3    H129217   0.446   6.375  11.146 -0.7812  0.3161 -0.8843
 1674TIP3    H229218   0.305   6.320  11.138 -0.3126 -0.9736 -0.6087
 1675TIP3   OH229219   3.235   6.402   9.330  0.1085 -0.1695 -0.2619
 1675TIP3    H129220   3.265   6.464   9.395  0.8807 -0.0641 -0.7092
 1675TIP3    H229221   3.181   6.454   9.270  0.0793 -0.0958 -0.1711
 1676TIP3   OH229222   5.933   4.559   9.056  0.5446 -0.1835 -0.6834
 1676TIP3    H129223   5.922   4.606   9.139  1.0154 -1.9309  0.4149
 1676TIP3    H229224   5.872   4.486   9.060  2.4067 -1.8384 -0.6548
 1677TIP3   OH229225   3.723   0.200  11.623 -0.1103  0.4028 -0.6737
 1677TIP3    H129226   3.803   0.154  11.648  0.0204  1.1703  0.4025
 1677TIP3    H229227   3.703   0.167  11.536  0.4518 -1.0323 -0.2935
 1678TIP3   OH229228   5.626   3.080  10.434 -1.0060  0.0500  0.2664
 1678TIP3    H129229   5.577   3.146  10.384 -1.2639  0.5732  1.1821
 1678TIP3    H229230   5.718   3.100  10.416 -1.0502  1.2395  1.2070
 1679TIP3   OH229231   1.989   2.792  10.760  1.0052 -0.1986 -0.3420
 1679TIP3    H129232   1.936   2.830  10.830  0.2742 -2.1467  0.2416
 1679TIP3    H229233   2.077   2.786  10.797  0.9567  0.2214 -0.1591
 1680TIP3   OH229234   5.950   1.861  11.192 -0.7451 -0.3608  0.1994
 1680TIP3    H129235   5.981   1.920  11.261  0.6899 -0.9343  0.0796
 1680TIP3    H229236   6.006   1.882  11.117 -0.6112 -1.4750 -0.0199
 1681TIP3   OH229237   1.444   4.301  10.110 -0.1197 -0.3045  0.1120
 1681TIP3    H129238   1.538   4.281  10.111 -0.3353 -1.3949  1.0945
 1681TIP3    H229239   1.427   4.336  10.023  0.9163 -1.5162 -0.5947
 1682TIP3   OH229240   5.327   0.335  11.827  0.0511 -0.2514  0.2970
 1682TIP3    H129241   5.236   0.354  11.850  0.3268  1.3949  0.1329
 1682TIP3    H229242   5.377   0.408  11.863  0.9511  0.4620 -2.1812
 1683TIP3   OH229243   1.247   3.335  10.091  0.3393 -0.3841  0.1214
 1683TIP3    H129244   1.214   3.370  10.008 -1.5386 -0.4921  0.7777
 1683TIP3    H229245   1.219   3.399  10.157  0.0610 -1.2939  0.9026
 1684TIP3   OH229246   2.458   3.976  10.300 -0.1817  0.1759  0.1242
 1684TIP3    H129247   2.383   3.926  10.332 -0.5689 -0.0763 -1.0999
 1684TIP3    H229248   2.423   4.062  10.278 -0.2694 -0.1508 -1.0713
 1685TIP3   OH229249   0.217   6.646   9.605  0.0790 -0.7000  0.8040
 1685TIP3    H129250   0.248   6.644   9.514 -1.5150 -1.7892  0.2414
 1685TIP3    H229251   0.294   6.623   9.657  1.8172  2.7111  0.0450
 1686TIP3   OH229252   3.418   2.044   9.919 -0.0351 -0.1989  0.1375
 1686TIP3    H129253   3.503   2.034   9.876 -0.7415 -1.1693 -1.1195
 1686TIP3    H229254   3.406   1.961   9.965  0.2727  0.4556  1.4352
 1687TIP3   OH229255   6.142   0.812   9.353 -0.1193  0.1119 -0.5761
 1687TIP3    H129256   6.051   0.825   9.382 -0.5212 -1.1165 -1.2148
 1687TIP3    H229257   6.179   0.900   9.352 -1.4259  0.6929 -0.7070
 1688TIP3   OH229258   1.754   0.435  10.724  0.6106 -0.3209  0.0771
 1688TIP3    H129259   1.798   0.482  10.795  0.9916 -0.2167 -0.2274
 1688TIP3    H229260   1.749   0.344  10.756 -0.2412 -0.0653  0.7182
 1689TIP3   OH229261   2.339   2.784  11.431 -0.1427 -0.1001  0.0735
 1689TIP3    H129262   2.316   2.707  11.483  1.6136 -0.0466  1.0211
 1689TIP3    H229263   2.433   2.774  11.415 -0.0656  1.4147 -0.5362
 1690TIP3   OH229264   0.251   5.213  11.684  0.1177 -0.1399  0.0867
 1690TIP3    H129265   0.317   5.146  11.701  0.4044 -0.4971 -2.0709
 1690TIP3    H229266   0.194   5.211  11.760  0.6871 -2.1422  0.5206
 1691TIP3   OH229267   4.548   4.712   9.218 -0.4535  0.0963  0.0932
 1691TIP3    H129268   4.495   4.654   9.273  0.0966  0.5188  1.0865
 1691TIP3    H229269   4.576   4.781   9.277  2.1293 -0.6772 -0.1115
 1692TIP3   OH229270   2.322   6.075  10.080 -0.5777 -0.6043  0.2463
 1692TIP3    H129271   2.297   6.092  10.171  0.2430 -1.7700  0.7102
 1692TIP3    H229272   2.330   6.161  10.040 -0.4703 -0.0696  1.4079
 1693TIP3   OH229273   2.879   6.174  11.225  0.3141  0.5076 -0.3561
 1693TIP3    H129274   2.898   6.186  11.319 -1.0196 -1.5945  0.2556
 1693TIP3    H229275   2.807   6.233  11.207 -1.2337 -0.9434  0.6998
 1694TIP3   OH229276   3.933   0.456  10.311  0.5749  0.3775  0.6957
 1694TIP3    H129277   3.933   0.511  10.389  0.4021  0.0797  0.9054
 1694TIP3    H229278   4.004   0.492  10.257  0.4642  0.8038  0.8305
 1695TIP3   OH229279   3.810   2.635  10.668  0.3104  0.1594 -0.8479
 1695TIP3    H129280   3.843   2.723  10.684 -2.5982  1.2581 -0.1321
 1695TIP3    H229281   3.798   2.597  10.756 -0.8260  0.0674 -1.0252
 1696TIP3   OH229282   6.426   2.812  10.857  0.0659  0.9612  0.2299
 1696TIP3    H129283   6.505   2.850  10.895  0.0259  1.1026  0.1747
 1696TIP3    H229284   6.397   2.877  10.792 -0.3674  1.1412  0.5951
 1697TIP3   OH229285   0.845   0.788  11.746  0.2316  0.0067  0.0986
 1697TIP3    H129286   0.938   0.805  11.733  0.2199 -1.1805 -2.0014
 1697TIP3    H229287   0.841   0.737  11.827  1.7532 -2.2032 -1.1253
 1698TIP3   OH229288   3.649   4.900   8.775  0.1442  0.2688  0.5632
 1698TIP3    H129289   3.611   4.891   8.862 -1.0818 -0.5810 -0.0233
 1698TIP3    H229290   3.726   4.843   8.777 -2.3383 -3.5744 -0.1805
 1699TIP3   OH229291   4.050   0.765  11.832  0.1060  0.4726  0.4183
 1699TIP3    H129292   4.038   0.670  11.836  0.9979  0.3905  2.4309
 1699TIP3    H229293   4.054   0.793  11.923 -2.0399  2.7492 -0.0737
 1700TIP3   OH229294   1.898   4.974   8.477 -0.2082 -0.5492  0.1468
 1700TIP3    H129295   1.819   4.982   8.530 -1.1184  0.1313 -1.2508
 1700TIP3    H229296   1.965   5.019   8.528 -0.8540 -0.5910  1.0711
 1701TIP3   OH229297   5.970   4.145   9.389  0.3201 -0.0965 -0.5305
 1701TIP3    H129298   5.926   4.137   9.305 -0.4814  1.1100 -0.2602
 1701TIP3    H229299   5.910   4.199   9.442  2.2511  1.9431 -0.2649
 1702TIP3   OH229300   3.782   4.835   9.318  0.2625 -0.3539 -0.2179
 1702TIP3    H129301   3.863   4.872   9.351  1.0757 -2.1053 -0.1430
 1702TIP3    H229302   3.721   4.839   9.392  1.2588 -1.8365  0.7260
 1703TIP3   OH229303   3.506   1.194  10.255  0.2622  0.3867 -0.5847
 1703TIP3    H129304   3.584   1.147  10.284 -0.0335 -0.7783 -1.5952
 1703TIP3    H229305   3.464   1.223  10.336  2.6210  2.6497 -0.0090
 1704TIP3   OH229306   2.207   1.080  10.267 -0.2580 -0.1010  0.3227
 1704TIP3    H129307   2.176   1.168  10.246 -1.3377  0.1369  2.5217
 1704TIP3    H229308   2.127   1.030  10.282  0.3620 -1.2343 -0.0356
 1705TIP3   OH229309   4.153   5.261  10.438  0.0924  0.2019 -0.2656
 1705TIP3    H129310   4.057   5.260  10.440  0.0645 -0.9705 -1.0222
 1705TIP3    H229311   4.175   5.349  10.407 -0.8611 -0.3480 -2.8246
 1706TIP3   OH229312   0.487   1.868  10.248 -0.3278  0.0847  0.5272
 1706TIP3    H129313   0.547   1.931  10.208  0.1604  0.6706  2.1260
 1706TIP3    H229314   0.402   1.911  10.245 -0.2938  0.1288  0.1466
 1707TIP3   OH229315   4.029   5.228   9.038 -0.6528 -0.1396  0.2842
 1707TIP3    H129316   4.028   5.135   9.013 -2.1980  0.2496 -1.2406
 1707TIP3    H229317   4.113   5.260   9.005 -1.6714 -0.1758 -2.6451
 1708TIP3   OH229318   6.713   4.529  10.489 -0.1993  0.0019 -0.0328
 1708TIP3    H129319   6.678   4.453  10.443  0.5437 -0.1724 -0.3192
 1708TIP3    H229320   6.804   4.506  10.507 -0.3411  0.2684  1.0891
 1709TIP3   OH229321   4.523   0.098   9.376 -0.6618 -0.7349  0.0739
 1709TIP3    H129322   4.537   0.159   9.304  0.6437 -0.3126  0.6605
 1709TIP3    H229323   4.500   0.015   9.334 -1.8737 -0.0181 -0.7502
 1710TIP3   OH229324   6.297   1.080  10.096  0.2456 -0.2986  0.2005
 1710TIP3    H129325   6.272   1.094  10.005  0.4542  0.3111  0.2325
 1710TIP3    H229326   6.376   1.133  10.108 -0.0989  0.0772  0.8924
 1711TIP3   OH229327   6.729   5.415   8.937 -0.3408 -0.4356 -0.7451
 1711TIP3    H129328   6.709   5.456   8.853 -0.3125  3.9556  1.1000
 1711TIP3    H229329   6.819   5.384   8.927  0.1846  1.3023 -2.0136
 1712TIP3   OH229330   3.883   4.603   9.679 -0.0159  0.0911 -0.0999
 1712TIP3    H129331   3.892   4.677   9.740 -1.1408 -0.1662  0.3961
 1712TIP3    H229332   3.792   4.575   9.688 -0.5587  0.7353 -2.7375
 1713TIP3   OH229333   3.019   3.687   9.229  0.2202 -0.1578 -0.1713
 1713TIP3    H129334   3.069   3.605   9.229  1.7411  0.6749  1.9627
 1713TIP3    H229335   3.071   3.746   9.173  0.3721  0.0230  0.1593
 1714TIP3   OH229336   0.636   0.884   9.049 -0.0138 -0.2899  0.2225
 1714TIP3    H129337   0.567   0.840   9.098  0.8556 -0.6812  1.1335
 1714TIP3    H229338   0.605   0.974   9.039 -1.6269 -0.9712 -1.3291
 1715TIP3   OH229339   2.761   4.348   8.991  0.7760  0.2281 -0.1689
 1715TIP3    H129340   2.765   4.417   9.056  0.2285  1.9143 -1.8224
 1715TIP3    H229341   2.689   4.291   9.021  0.5251  0.9680  0.6838
 1716TIP3   OH229342   4.094   0.293   9.190  0.0269 -0.0466  0.8254
 1716TIP3    H129343   4.186   0.277   9.172  0.4218  0.5945  2.1422
 1716TIP3    H229344   4.061   0.209   9.223 -0.0030 -0.4095 -0.0853
 1717TIP3   OH229345   4.491   1.269  10.757 -0.3018  0.0421  0.1691
 1717TIP3    H129346   4.466   1.343  10.812  0.6907  0.3883  0.1901
 1717TIP3    H229347   4.576   1.242  10.792 -0.6639 -1.1346  0.1789
 1718TIP3   OH229348   1.837   5.385   9.779  0.2119  0.3876 -0.3295
 1718TIP3    H129349   1.892   5.422   9.711  0.0551  2.1500  0.4441
 1718TIP3    H229350   1.785   5.459   9.811 -2.3723 -1.1103 -0.7862
 1719TIP3   OH229351   3.269   1.847  11.317 -0.5144  0.2025  0.1615
 1719TIP3    H129352   3.177   1.818  11.320 -0.6046 -0.0374 -2.4889
 1719TIP3    H229353   3.319   1.766  11.322 -0.5922  0.0128 -1.5611
 1720TIP3   OH229354   0.753   0.801   9.654 -0.7096  0.2377 -0.4865
 1720TIP3    H129355   0.704   0.725   9.686  0.0715 -0.9065 -1.8964
 1720TIP3    H229356   0.821   0.815   9.720 -0.6192 -0.5405 -0.4076
 1721TIP3   OH229357   3.417   0.320  11.545  0.0139 -0.4228 -0.1234
 1721TIP3    H129358   3.485   0.326  11.612  0.3102 -0.0101 -0.4505
 1721TIP3    H229359   3.462   0.344  11.464 -0.6636  0.4862 -0.2510
 1722TIP3   OH229360   6.387   6.802  10.075  0.1621  0.1066 -0.9067
 1722TIP3    H129361   6.373   6.887  10.116 -1.6771 -0.4490 -0.2807
 1722TIP3    H229362   6.307   6.786  10.024  0.6768 -1.0419 -1.3926
 1723TIP3   OH229363   2.933   6.427  10.189  0.3597 -0.1659  0.0216
 1723TIP3    H129364   2.923   6.470  10.104  1.5271 -1.1863 -0.6721
 1723TIP3    H229365   3.028   6.421  10.202  0.1961 -0.1810  1.3278
 1724TIP3   OH229366   2.890   5.225   9.543  0.6524 -0.2574 -0.0746
 1724TIP3    H129367   2.903   5.130   9.545  1.9988 -0.1069 -0.5068
 1724TIP3    H229368   2.796   5.236   9.529  0.7856 -1.5787 -2.8611
 1725TIP3   OH229369   0.826   2.614  11.438  0.1130  0.3115  0.2331
 1725TIP3    H129370   0.736   2.623  11.405 -0.2968 -1.5432  0.6949
 1725TIP3    H229371   0.833   2.680  11.507 -0.3855  1.4621 -0.7826
 1726TIP3   OH229372   1.712   2.971   8.698  0.0951  0.2113 -0.1762
 1726TIP3    H129373   1.806   2.984   8.716  0.0612  1.2263 -0.6708
 1726TIP3    H229374   1.683   2.911   8.767  1.1394 -0.2579 -0.1133
 1727TIP3   OH229375   4.201   5.613  10.600 -0.0546 -0.4174  0.2592
 1727TIP3    H129376   4.123   5.575  10.639 -0.5009 -1.3492 -1.4365
 1727TIP3    H229377   4.226   5.552  10.531  2.7577 -0.6283  1.3335
 1728TIP3   OH229378   2.595   0.061   9.666 -0.4209 -0.2758  0.0274
 1728TIP3    H129379   2.608   0.138   9.722 -1.3609 -0.8736  1.1128
 1728TIP3    H229380   2.634   0.086   9.582 -0.0707  1.1141  0.5680
 1729TIP3   OH229381   6.214   4.567  11.499  0.2436  0.5102  0.3698
 1729TIP3    H129382   6.240   4.591  11.588 -0.2043 -2.5099  1.4378
 1729TIP3    H229383   6.295   4.575  11.447  1.3048 -0.6289  1.7605
 1730TIP3   OH229384   1.161   3.948  11.541  0.0031  0.1222  0.0155
 1730TIP3    H129385   1.102   4.019  11.516 -0.5224  0.1741  1.3188
 1730TIP3    H229386   1.192   3.973  11.629 -1.3587 -1.9480  1.1531
 1731TIP3   OH229387   1.059   0.986   9.141  0.1446  0.0163  0.1287
 1731TIP3    H129388   1.058   1.078   9.115  1.5923 -0.8131 -3.5144
 1731TIP3    H229389   1.150   0.969   9.165  0.6593 -1.0991 -2.3530
 1732TIP3   OH229390   6.404   1.376  10.869  0.0891  0.1153 -0.4493
 1732TIP3    H129391   6.425   1.339  10.954  2.1693 -0.1428 -1.0161
 1732TIP3    H229392   6.372   1.302  10.817 -1.0094  0.2403  0.0211
 1733TIP3   OH229393   3.218   4.140  11.737 -0.4423  0.4308 -0.4209
 1733TIP3    H129394   3.156   4.067  11.743  0.5247 -0.3971 -0.3454
 1733TIP3    H229395   3.162   4.218  11.738 -1.5296 -0.3057 -1.0001
 1734TIP3   OH229396   4.765   2.793  11.162  0.7204  0.0249 -0.2528
 1734TIP3    H129397   4.695   2.729  11.160  0.9448 -0.2416  0.2276
 1734TIP3    H229398   4.758   2.839  11.078 -0.6106  0.6394  0.1715
 1735TIP3   OH229399   5.674   5.203  10.190 -0.6595  0.0123 -0.4458
 1735TIP3    H129400   5.592   5.198  10.141 -1.7730 -0.7255  1.3689
 1735TIP3    H229401   5.669   5.130  10.252  1.7333 -0.5086 -0.7760
 1736TIP3   OH229402   4.392   4.936   9.028  0.0959 -0.3077 -0.2930
 1736TIP3    H129403   4.337   4.906   8.955 -1.2446 -0.8340  0.8896
 1736TIP3    H229404   4.334   4.935   9.104  1.5433 -0.0709  0.8594
 1737TIP3   OH229405   6.632   1.568   8.325  0.4249 -0.9318 -0.2047
 1737TIP3    H129406   6.630   1.541   8.417 -0.6152  0.4313  0.2163
 1737TIP3    H229407   6.689   1.645   8.324  0.8164 -1.2225 -0.7959
 1738TIP3   OH229408   3.071   5.276   8.965 -0.0462 -0.5653 -0.0484
 1738TIP3    H129409   3.022   5.235   9.035  1.7302 -0.6073  1.2370
 1738TIP3    H229410   3.022   5.357   8.945 -0.6007 -0.5814  1.1896
 1739TIP3   OH229411   2.385   4.862   8.566  0.1747 -0.1131 -0.4603
 1739TIP3    H129412   2.406   4.953   8.587  1.7534 -0.4059 -0.7114
 1739TIP3    H229413   2.307   4.869   8.510 -1.1290  0.9285  1.3499
 1740TIP3   OH229414   0.951   4.994  10.010  0.1297  0.2340  0.1887
 1740TIP3    H129415   0.980   5.037   9.930  0.5352  1.5428  1.0058
 1740TIP3    H229416   0.958   5.062  10.078 -1.9597 -0.2667  1.0031
 1741TIP3   OH229417   6.492   6.169   8.776 -0.5541 -0.5677 -0.1820
 1741TIP3    H129418   6.577   6.141   8.808 -0.7454  1.2798  2.1292
 1741TIP3    H229419   6.504   6.180   8.681  1.4756 -1.2640 -0.0405
 1742TIP3   OH229420   1.275   0.962  10.636 -0.3493 -0.7109  0.3161
 1742TIP3    H129421   1.346   0.900  10.653 -0.6749 -0.8071  1.3819
 1742TIP3    H229422   1.297   1.000  10.550  0.0728 -1.9754 -0.1630
 1743TIP3   OH229423   4.039   4.551  10.724 -0.6390  0.6073  0.0297
 1743TIP3    H129424   4.106   4.538  10.790 -1.8462  1.4828  1.4865
 1743TIP3    H229425   4.074   4.509  10.645  0.4124 -1.3729  1.4606
 1744TIP3   OH229426   6.451   4.144   8.901 -0.3645 -0.4214 -0.3180
 1744TIP3    H129427   6.471   4.051   8.896 -0.1086 -0.3377 -0.8396
 1744TIP3    H229428   6.478   4.180   8.817 -0.3297  0.1529 -0.0689
 1745TIP3   OH229429   2.017   2.195   9.151 -0.0105 -0.0117 -0.5081
 1745TIP3    H129430   1.994   2.129   9.085  0.3894 -1.5508  0.8279
 1745TIP3    H229431   2.092   2.241   9.114 -0.1828 -0.4288 -1.4028
 1746TIP3   OH229432   6.428   0.385  11.115 -0.3297 -0.0359 -0.0081
 1746TIP3    H129433   6.506   0.424  11.154 -0.3947  0.0616  0.0252
 1746TIP3    H229434   6.412   0.305  11.166 -0.1468 -0.1515 -0.1307
 1747TIP3   OH229435   2.487   3.941   9.670  0.3907 -0.1085  0.1997
 1747TIP3    H129436   2.493   4.001   9.595 -1.7356  1.1669  0.9462
 1747TIP3    H229437   2.471   3.855   9.631  0.0315  0.4123 -0.8398
 1748TIP3   OH229438   5.044   1.976  10.883  0.6356 -0.8322 -0.1304
 1748TIP3    H129439   5.120   1.942  10.931  1.2875 -1.4940 -1.5620
 1748TIP3    H229440   4.983   1.902  10.879  1.1931 -1.2464 -1.5067
 1749TIP3   OH229441   6.222   5.424  10.853 -0.4648 -0.1532  0.1569
 1749TIP3    H129442   6.150   5.388  10.904 -0.8416  0.4719  0.0770
 1749TIP3    H229443   6.252   5.500  10.903 -0.2760 -0.0402 -0.1228
 1750TIP3   OH229444   1.108   1.996  11.906 -0.1769 -0.4987  0.8856
 1750TIP3    H129445   1.178   1.971  11.846 -2.0823 -0.4084 -1.5355
 1750TIP3    H229446   1.138   1.965  11.991  1.8093 -2.4654 -0.4016
 1751TIP3   OH229447   0.139   2.881  10.504  0.0749  0.1592  0.0248
 1751TIP3    H129448   0.066   2.849  10.451 -0.0401  0.3678  0.0552
 1751TIP3    H229449   0.195   2.929  10.443  0.1548  0.0490  0.0132
 1752TIP3   OH229450   6.764   1.722  10.444 -0.1579  0.3036  0.0083
 1752TIP3    H129451   6.840   1.717  10.386  0.5893 -0.7368  1.0255
 1752TIP3    H229452   6.696   1.671  10.399 -0.2887  1.2770 -0.9272
 1753TIP3   OH229453   2.272   5.924   9.274 -0.3066 -0.4641 -0.4836
 1753TIP3    H129454   2.194   5.978   9.266  1.9533  3.2826  0.0882
 1753TIP3    H229455   2.241   5.842   9.312 -3.9629  0.6176 -0.7357
 1754TIP3   OH229456   5.125   0.231   9.307  0.1233 -0.8370  0.4381
 1754TIP3    H129457   5.034   0.255   9.290  0.3543  0.0697  0.4179
 1754TIP3    H229458   5.174   0.266   9.233  0.5742 -0.7389  0.7764
 1755TIP3   OH229459   0.782   3.857   9.137 -0.2274  0.0088 -0.0507
 1755TIP3    H129460   0.690   3.877   9.156  0.1736  0.3927  1.6928
 1755TIP3    H229461   0.790   3.866   9.042 -2.2697 -1.2677 -0.3981
 1756TIP3   OH229462   2.297   4.789  10.999  0.3760  0.7851  0.8977
 1756TIP3    H129463   2.280   4.876  11.037 -1.3495  2.5667 -3.2644
 1756TIP3    H229464   2.381   4.799  10.953 -0.5723  0.9034 -0.9189
 1757TIP3   OH229465   6.568   3.903  10.665 -0.0001 -0.5573  0.1860
 1757TIP3    H129466   6.532   3.992  10.661  0.9308 -0.1134  1.0001
 1757TIP3    H229467   6.510   3.856  10.725  1.2390  0.4278  2.2710
 1758TIP3   OH229468   3.311   3.263   9.066  0.0018 -0.0405 -0.0032
 1758TIP3    H129469   3.266   3.179   9.058 -0.6945  0.3261 -0.0386
 1758TIP3    H229470   3.398   3.241   9.099 -0.3820 -0.7215  0.5845
 1759TIP3   OH229471   5.677   6.424  10.089 -0.1784 -0.4741  0.8103
 1759TIP3    H129472   5.617   6.385  10.152 -0.5983 -0.3773  0.4736
 1759TIP3    H229473   5.661   6.518  10.095 -1.2434 -0.5498 -0.4473
 1760TIP3   OH229474   3.008   3.288  10.602  0.5985 -0.2603  0.3960
 1760TIP3    H129475   3.001   3.200  10.565 -0.5073 -0.3194  0.7098
 1760TIP3    H229476   2.973   3.280  10.691  0.7109  0.4457  0.5094
 1761TIP3   OH229477   5.294   0.032  10.353  0.0747  0.2486 -0.1755
 1761TIP3    H129478   5.344  -0.042  10.387  0.3827  0.9429  0.9200
 1761TIP3    H229479   5.219  -0.008  10.308  0.8422 -0.7495 -0.5902
 1762TIP3   OH229480   4.627   5.004   9.945 -0.1890 -0.1984  0.1019
 1762TIP3    H129481   4.723   5.007   9.945 -0.0479 -1.0433 -3.2201
 1762TIP3    H229482   4.600   5.095   9.931  0.0632  0.0982  1.4007
 1763TIP3   OH229483   6.329   2.602  11.333 -0.5603 -0.2545 -0.6385
 1763TIP3    H129484   6.344   2.519  11.289  0.6322 -0.3784 -0.0455
 1763TIP3    H229485   6.416   2.630  11.363 -1.2243  0.1130  1.0782
 1764TIP3   OH229486   3.522   5.352  11.489  0.1736 -0.6768 -0.0230
 1764TIP3    H129487   3.582   5.392  11.426 -1.3925  1.0818 -0.4774
 1764TIP3    H229488   3.480   5.281  11.440 -0.6098  0.3128 -0.8338
 1765TIP3   OH229489   6.019   0.152  10.443 -0.5824 -0.6432  0.1506
 1765TIP3    H129490   6.051   0.067  10.472  0.3558 -0.4937 -0.4087
 1765TIP3    H229491   6.098   0.203  10.426 -1.1334  0.4891  0.8720
 1766TIP3   OH229492   4.886   4.283   9.032 -0.0435 -0.4025 -0.0391
 1766TIP3    H129493   4.793   4.278   9.055  0.1822 -3.0380  0.6445
 1766TIP3    H229494   4.888   4.262   8.939 -0.1942  1.1042 -0.4169
 1767TIP3   OH229495   1.690   2.948  10.589  0.7395 -0.1912 -0.8972
 1767TIP3    H129496   1.623   2.962  10.523 -1.5795  0.0983  1.3813
 1767TIP3    H229497   1.735   3.032  10.596 -0.4334  0.4378 -0.6429
 1768TIP3   OH229498   5.608   4.120   8.941  0.1735 -0.3685  0.5121
 1768TIP3    H129499   5.623   4.101   8.849  4.6468 -0.3410  0.9921
 1768TIP3    H229500   5.607   4.035   8.984  0.4750 -0.2923  0.6729
 1769TIP3   OH229501   4.716   5.253  10.519  0.4377 -0.2626 -0.0915
 1769TIP3    H129502   4.650   5.189  10.545  0.5901 -0.0381  0.8528
 1769TIP3    H229503   4.794   5.228  10.568  0.3426  0.9957  0.7319
 1770TIP3   OH229504   3.790   6.663  10.263  0.1605  0.3744 -0.3344
 1770TIP3    H129505   3.834   6.743  10.234 -1.9392  1.0729 -1.8516
 1770TIP3    H229506   3.727   6.644  10.193 -2.3569 -0.1694  1.9227
 1771TIP3   OH229507   5.429   0.156   9.719 -0.3018 -0.0540 -0.0571
 1771TIP3    H129508   5.398   0.073   9.753  0.7716 -0.4453  0.0095
 1771TIP3    H229509   5.352   0.197   9.679 -0.8841 -0.9715  0.1162
 1772TIP3   OH229510   2.977   0.050   8.875  0.2634  0.8043  0.3974
 1772TIP3    H129511   3.048   0.063   8.812 -0.1577  1.7380  0.1090
 1772TIP3    H229512   3.020   0.012   8.952  0.7935 -0.2957 -0.4114
 1773TIP3   OH229513   3.941   0.035  10.989 -0.4877 -0.3196 -0.3966
 1773TIP3    H129514   3.997   0.112  10.981  0.1044 -0.7021 -0.0312
 1773TIP3    H229515   3.915   0.015  10.899 -1.6762  1.0314 -0.3972
 1774TIP3   OH229516   1.645   0.955  11.683  0.2614  0.0113  0.2465
 1774TIP3    H129517   1.721   0.998  11.644  0.0410 -0.0948 -0.2946
 1774TIP3    H229518   1.675   0.931  11.771  0.1865  1.8341  0.8176
 1775TIP3   OH229519   2.891   6.573   9.040 -0.4468 -0.4526  0.0472
 1775TIP3    H129520   2.887   6.593   8.946  3.0259  0.8293 -0.0114
 1775TIP3    H229521   2.873   6.657   9.083 -0.0689 -0.5531  0.4169
 1776TIP3   OH229522   3.684   0.381  10.641 -0.4507 -0.5484  0.2486
 1776TIP3    H129523   3.709   0.389  10.733  0.4892 -0.5696 -0.0023
 1776TIP3    H229524   3.604   0.328  10.643 -0.5848 -0.3277  1.0709
 1777TIP3   OH229525   0.770   3.152   9.729 -0.1006  0.1824 -0.1391
 1777TIP3    H129526   0.734   3.134   9.642  0.1234 -0.3667 -0.1178
 1777TIP3    H229527   0.860   3.180   9.712  0.9877 -2.8886  0.0805
 1778TIP3   OH229528   2.213   4.261  10.496  0.0740  0.1819  0.3758
 1778TIP3    H129529   2.255   4.178  10.520  0.2315  0.1985  0.1625
 1778TIP3    H229530   2.251   4.283  10.411  0.0407  0.4811  0.4394
 1779TIP3   OH229531   0.419   6.807  10.842  0.0491  0.1059  0.1609
 1779TIP3    H129532   0.392   6.734  10.786  0.2956 -0.0526  0.2450
 1779TIP3    H229533   0.478   6.767  10.906 -0.5329  0.2216  0.7766
 1780TIP3   OH229534   3.908   1.589   9.526 -0.4649  0.6562 -0.1554
 1780TIP3    H129535   3.996   1.625   9.520 -0.7520  1.3591 -0.1898
 1780TIP3    H229536   3.920   1.502   9.564  0.0752  1.4825  1.6670
 1781TIP3   OH229537   3.852   2.471  11.178  0.4284 -0.5107  0.6204
 1781TIP3    H129538   3.762   2.482  11.148  0.7968 -0.3639 -0.4949
 1781TIP3    H229539   3.844   2.446  11.270 -0.7370 -0.2234  0.6182
 1782TIP3   OH229540   6.653   0.757  10.319 -0.1003  0.1609  0.1688
 1782TIP3    H129541   6.588   0.824  10.341  1.4826  1.5557  0.8681
 1782TIP3    H229542   6.657   0.759  10.224 -0.3563  0.8111  0.1604
 1783TIP3   OH229543   0.817   1.879   9.784  0.3753  0.0347 -0.2649
 1783TIP3    H129544   0.851   1.875   9.695  1.2141 -1.1190  0.0844
 1783TIP3    H229545   0.866   1.951   9.825  0.3380  0.2456 -0.5855
 1784TIP3   OH229546   4.215   6.331   9.352  0.2452 -0.0298 -0.4202
 1784TIP3    H129547   4.285   6.281   9.310  0.9182  0.8071 -0.3313
 1784TIP3    H229548   4.164   6.266   9.401 -0.2690 -0.9634 -2.1032
 1785TIP3   OH229549   6.158   3.485   8.399 -0.0533  0.8336 -0.5472
 1785TIP3    H129550   6.250   3.482   8.373  0.7989  3.8454  1.5295
 1785TIP3    H229551   6.138   3.397   8.429  2.5276  0.3593  0.0072
 1786TIP3   OH229552   3.545   2.856  11.707 -0.2001 -1.3056 -0.4073
 1786TIP3    H129553   3.581   2.921  11.768 -2.7724  0.5114 -0.6900
 1786TIP3    H229554   3.598   2.867  11.627 -0.5451  0.4674 -0.4353
 1787TIP3   OH229555   6.225   1.188  11.267  0.4318 -0.1459  0.5238
 1787TIP3    H129556   6.151   1.232  11.225 -1.2425 -1.2467  2.1476
 1787TIP3    H229557   6.286   1.259  11.288 -0.8122  1.0067  0.3973
 1788TIP3   OH229558   4.289   2.802   9.860  0.1113 -0.5143  0.4143
 1788TIP3    H129559   4.359   2.786   9.923 -0.5130  0.7536  1.4754
 1788TIP3    H229560   4.218   2.744   9.888  0.0614 -0.4207  0.4803
 1789TIP3   OH229561   5.584   0.252   9.935  0.2896  0.3803  0.1368
 1789TIP3    H129562   5.521   0.242  10.006  1.0584  0.0754  0.7998
 1789TIP3    H229563   5.541   0.215   9.858  0.1614 -1.0849  0.8738
 1790TIP3   OH229564   0.588   0.466  10.385  0.0613 -0.0059  0.4126
 1790TIP3    H129565   0.650   0.403  10.347  0.6551 -0.4367  2.0470
 1790TIP3    H229566   0.509   0.415  10.401  0.6497 -0.4561  2.0369
 1791TIP3   OH229567   5.983   0.364  11.525  0.2733 -0.1636 -0.1723
 1791TIP3    H129568   5.951   0.274  11.527 -0.6078  0.1528  0.5162
 1791TIP3    H229569   6.042   0.367  11.449 -1.4772 -0.7182 -1.6142
 1792TIP3   OH229570   0.692   2.140  10.953  0.9106 -0.4183 -0.1965
 1792TIP3    H129571   0.634   2.069  10.982  0.9029 -0.6485 -0.7614
 1792TIP3    H229572   0.717   2.185  11.034 -2.9029  1.9476 -0.0551
 1793TIP3   OH229573   0.896   6.628   9.375  0.3363  0.0140 -0.4100
 1793TIP3    H129574   0.801   6.617   9.372  0.5025 -1.5281 -1.3561
 1793TIP3    H229575   0.920   6.659   9.288  0.6487  1.0407  0.0284
 1794TIP3   OH229576   4.208   1.295  11.077 -0.2174 -0.2872 -0.3703
 1794TIP3    H129577   4.271   1.366  11.091  1.0471 -1.3944 -0.2621
 1794TIP3    H229578   4.231   1.229  11.142 -1.3445 -0.8424 -0.5082
 1795TIP3   OH229579   3.428   0.378   8.799 -0.2910  0.7364 -0.0430
 1795TIP3    H129580   3.464   0.294   8.770  1.1813  1.4061 -0.2480
 1795TIP3    H229581   3.499   0.418   8.850 -1.5192  1.1988  1.3624
 1796TIP3   OH229582   2.621   1.494  10.802 -0.3735  0.6676  0.4885
 1796TIP3    H129583   2.532   1.460  10.800  0.0201 -0.3681  0.0585
 1796TIP3    H229584   2.630   1.530  10.890 -0.2184 -2.0569  1.6933
 1797TIP3   OH229585   0.687   1.896   8.950 -0.2558 -0.0213  0.3108
 1797TIP3    H129586   0.641   1.812   8.959  0.0190 -0.2504 -0.3238
 1797TIP3    H229587   0.768   1.885   9.000 -1.1472  0.5952  1.9345
 1798TIP3   OH229588   6.618   4.832  10.536 -0.0176 -0.3071  0.0340
 1798TIP3    H129589   6.679   4.904  10.550 -1.3098  0.6984  0.7292
 1798TIP3    H229590   6.665   4.771  10.480  1.6296  0.4019  0.5883
 1799TIP3   OH229591   0.460   4.852   9.677  0.2022  0.3245  0.1309
 1799TIP3    H129592   0.452   4.762   9.646 -0.1150  0.7276 -1.0172
 1799TIP3    H229593   0.381   4.868   9.728 -0.4119  0.3723 -0.8116
 1800TIP3   OH229594   3.842   1.302  11.300 -0.0013 -0.4299  0.3314
 1800TIP3    H129595   3.752   1.318  11.326 -0.4343 -0.2634 -1.1460
 1800TIP3    H229596   3.887   1.385  11.314  0.0685 -0.6612  1.5657
 1801TIP3   OH229597   1.546   2.238  11.239 -0.0798  0.0034  0.4152
 1801TIP3    H129598   1.586   2.271  11.319  0.5022 -1.0305  0.5631
 1801TIP3    H229599   1.466   2.290  11.229  0.5402  1.0906  0.9045
 1802TIP3   OH229600   4.019   1.871  11.525 -0.0600  0.2248 -0.0330
 1802TIP3    H129601   4.050   1.944  11.578  2.3382 -0.8439  0.1856
 1802TIP3    H229602   4.099   1.834  11.486 -1.3892 -1.0923 -1.6971
 1803TIP3   OH229603   2.169   4.728  11.757  0.1197 -0.2039 -0.2844
 1803TIP3    H129604   2.244   4.671  11.771  1.4949  1.6525  0.2938
 1803TIP3    H229605   2.173   4.752  11.665 -0.1149 -0.5715 -0.3908
 1804TIP3   OH229606   3.035   6.004   8.409  0.1984  0.0493 -0.1350
 1804TIP3    H129607   3.087   6.073   8.452  1.7844 -1.1653 -0.0285
 1804TIP3    H229608   3.090   5.926   8.413 -1.7586 -1.3955  0.2278
 1805TIP3   OH229609   2.842   4.599  10.097  0.1604  0.5270 -0.1652
 1805TIP3    H129610   2.754   4.572  10.120  0.0315  0.8887 -0.2219
 1805TIP3    H229611   2.883   4.520  10.061 -0.4469  0.5923 -1.0166
 1806TIP3   OH229612   6.608   4.792  10.862 -0.0217 -0.0896 -0.1249
 1806TIP3    H129613   6.615   4.879  10.823  2.4273 -0.4551 -0.6716
 1806TIP3    H229614   6.699   4.761  10.866 -0.7257 -2.1278  1.1852
 1807TIP3   OH229615   5.369   3.495  10.192  0.1752  0.1876 -0.1234
 1807TIP3    H129616   5.373   3.488  10.287 -3.3614 -1.3018  0.0816
 1807TIP3    H229617   5.366   3.589  10.175 -1.3550  0.4861  1.4820
 1808TIP3   OH229618   4.674   0.689   8.813  0.1809 -0.2784  0.3179
 1808TIP3    H129619   4.663   0.595   8.798 -0.6382 -0.1244 -0.1134
 1808TIP3    H229620   4.602   0.713   8.871 -1.4663  0.6045 -1.9287
 1809TIP3   OH229621   0.632   4.605   9.862 -0.2672  0.3921  0.2970
 1809TIP3    H129622   0.636   4.695   9.893  0.6637  0.5832 -0.3589
 1809TIP3    H229623   0.719   4.570   9.880 -1.1699 -1.0189  2.3983
 1810TIP3   OH229624   6.298   0.249  10.423  0.4043  0.0010  0.0426
 1810TIP3    H129625   6.347   0.172  10.395  2.7182  0.6611  1.8919
 1810TIP3    H229626   6.296   0.243  10.518  0.4114  2.0516  0.2249
 1811TIP3   OH229627   0.453   2.797  10.458 -0.3269 -0.2017  0.0730
 1811TIP3    H129628   0.416   2.884  10.441 -0.5599 -0.4489 -0.7317
 1811TIP3    H229629   0.536   2.814  10.502 -0.1422  0.4500 -0.5156
 1812TIP3   OH229630   1.620   0.489  10.289 -0.7081  0.1312 -0.2275
 1812TIP3    H129631   1.607   0.563  10.348 -1.4964 -1.3617  1.5796
 1812TIP3    H229632   1.713   0.467  10.299 -1.0427 -0.7502  1.3512
 1813TIP3   OH229633   5.631   6.177  11.233  0.3210 -0.3008 -0.6198
 1813TIP3    H129634   5.562   6.179  11.298 -0.0091 -1.4899 -0.9183
 1813TIP3    H229635   5.704   6.223  11.274 -0.5559  0.8014 -0.2237
 1814TIP3   OH229636   3.473   1.325  11.648  0.0581 -0.0625 -0.3946
 1814TIP3    H129637   3.541   1.336  11.715 -0.8998 -1.2210  0.8331
 1814TIP3    H229638   3.399   1.376  11.681 -0.5430 -0.9267 -0.3764
 1815TIP3   OH229639   2.724   4.995   9.349 -0.2170  0.8619  0.5063
 1815TIP3    H129640   2.690   4.913   9.385 -0.5910  0.6784 -0.2409
 1815TIP3    H229641   2.814   4.974   9.323 -0.8166  0.2110 -1.1615
 1816TIP3   OH229642   2.753   3.334   9.262 -0.0324  0.2828 -0.3556
 1816TIP3    H129643   2.757   3.422   9.225  0.0585  0.6037  0.4025
 1816TIP3    H229644   2.840   3.297   9.248 -0.0191  0.3788 -0.5160
 1817TIP3   OH229645   6.087   1.618  11.259  0.3894 -0.8346  0.6516
 1817TIP3    H129646   6.051   1.700  11.226 -1.3944 -1.8688 -0.1657
 1817TIP3    H229647   6.181   1.626  11.248  0.4334  1.7729  2.2785
 1818TIP3   OH229648   1.382   1.570  10.613 -0.0259  0.0347 -0.3564
 1818TIP3    H129649   1.463   1.578  10.664 -0.4459 -0.2600  0.3655
 1818TIP3    H229650   1.313   1.587  10.676 -0.5599 -0.3707 -0.8266
 1819TIP3   OH229651   6.699   2.797   9.075 -0.0561  0.2114  0.0881
 1819TIP3    H129652   6.793   2.800   9.056  1.1452  1.4753  4.7651
 1819TIP3    H229653   6.688   2.719   9.130 -2.0147 -0.4550 -1.1465
 1820TIP3   OH229654   4.832   3.758  11.702  0.3387 -0.0895 -0.1439
 1820TIP3    H129655   4.821   3.664  11.688 -0.9369 -0.1787  1.2674
 1820TIP3    H229656   4.926   3.769  11.717  0.6341 -0.9940 -1.2004
 1821TIP3   OH229657   0.390   6.451  10.866 -0.4741  0.2945 -0.2686
 1821TIP3    H129658   0.360   6.361  10.877  0.0695  0.1174 -0.2101
 1821TIP3    H229659   0.410   6.481  10.955  2.5650 -0.6663 -0.4913
 1822TIP3   OH229660   1.873   6.459  10.410  0.3645  0.2912 -0.1308
 1822TIP3    H129661   1.778   6.450  10.404  0.4695 -0.3351 -1.1474
 1822TIP3    H229662   1.899   6.397  10.477 -0.1468  2.1809  1.9464
 1823TIP3   OH229663   4.712   2.902   9.846 -0.1738  0.4285  0.7207
 1823TIP3    H129664   4.640   2.845   9.874 -0.9802  0.8008 -0.5193
 1823TIP3    H229665   4.669   2.981   9.815  0.6276  0.1083 -1.4228
 1824TIP3   OH229666   4.429   3.359   9.680  0.8427 -0.0541 -0.1928
 1824TIP3    H129667   4.338   3.330   9.685  2.0080 -4.1078  2.0931
 1824TIP3    H229668   4.458   3.333   9.592  0.2124 -0.2013 -0.3591
 1825TIP3   OH229669   1.813   6.024   9.681  0.2113  0.2838 -0.2597
 1825TIP3    H129670   1.843   6.112   9.702  1.0623  0.0246 -0.3278
 1825TIP3    H229671   1.721   6.034   9.659  0.5301  1.3000 -1.1847
 1826TIP3   OH229672   3.308   3.372  10.859 -0.2550 -0.4924  0.5419
 1826TIP3    H129673   3.324   3.462  10.887  1.7357 -0.9174  0.9052
 1826TIP3    H229674   3.223   3.350  10.898 -1.0940  1.3979 -0.0720
 1827TIP3   OH229675   5.352   4.161  10.251 -0.3583 -0.3259 -0.3566
 1827TIP3    H129676   5.366   4.224  10.322  1.5282 -0.9673 -0.1070
 1827TIP3    H229677   5.401   4.197  10.177  0.0596 -1.0755 -0.4551
 1828TIP3   OH229678   2.900   4.224  10.898  0.3520 -0.3525 -0.0481
 1828TIP3    H129679   2.880   4.147  10.845  0.3435 -0.9065  0.7492
 1828TIP3    H229680   2.995   4.231  10.897  0.2957  0.5999 -1.4648
 1829TIP3   OH229681   5.085   0.813  11.373 -0.2673 -0.9829  0.4525
 1829TIP3    H129682   4.995   0.780  11.378 -0.9154  0.6281 -0.1169
 1829TIP3    H229683   5.107   0.808  11.280 -0.0664 -0.5757  0.4778
 1830TIP3   OH229684   1.097   0.658  11.135  0.1976  0.1524 -0.7083
 1830TIP3    H129685   1.128   0.748  11.142 -0.1924  0.4797 -2.5993
 1830TIP3    H229686   1.015   0.665  11.086 -0.3811 -1.1481  0.0118
 1831TIP3   OH229687   3.782   2.947   8.552 -1.0101  0.0202  0.2845
 1831TIP3    H129688   3.744   2.862   8.531 -1.5510  0.6428 -1.3970
 1831TIP3    H229689   3.870   2.927   8.584 -1.3086 -1.1836  0.3997
 1832TIP3   OH229690   2.572   2.368   9.870 -0.2609 -0.4778  0.1604
 1832TIP3    H129691   2.659   2.336   9.896  0.8069  1.9515 -0.1265
 1832TIP3    H229692   2.575   2.462   9.887 -2.2979 -0.0713 -1.3366
 1833TIP3   OH229693   2.602   4.046  11.124 -0.5585 -0.0608 -0.3646
 1833TIP3    H129694   2.600   3.977  11.058  1.1394 -0.5182  0.0176
 1833TIP3    H229695   2.695   4.062  11.140 -0.9037  2.0215 -0.1126
 1834TIP3   OH229696   2.621   5.598  11.096  0.5395  0.2275  0.1164
 1834TIP3    H129697   2.578   5.530  11.148  1.0318  0.3808  0.7394
 1834TIP3    H229698   2.626   5.562  11.008 -0.3846 -0.0038  0.1517
 1835TIP3   OH229699   4.358   3.787  10.659 -0.2816  0.1621  0.1997
 1835TIP3    H129700   4.277   3.822  10.696 -0.7610 -1.1955  0.5219
 1835TIP3    H229701   4.423   3.803  10.727 -1.2773 -2.8351  2.0923
 1836TIP3   OH229702   4.179   6.464  11.067 -0.0208 -0.1039  0.2397
 1836TIP3    H129703   4.118   6.408  11.115  1.2359 -0.9958  0.8797
 1836TIP3    H229704   4.266   6.434  11.096  0.7607  0.1149 -1.7140
 1837TIP3   OH229705   0.387   4.142  10.416 -0.1711 -0.5949 -0.6584
 1837TIP3    H129706   0.442   4.069  10.388 -0.2446 -0.1689 -1.9587
 1837TIP3    H229707   0.298   4.114  10.395 -0.2326 -0.3033 -0.7899
 1838TIP3   OH229708   6.245   4.938   9.170  0.2637 -0.4856 -0.1237
 1838TIP3    H129709   6.203   4.926   9.256  0.2050 -0.2695 -0.1192
 1838TIP3    H229710   6.187   4.893   9.109 -1.0053  1.3645 -0.3808
 1839TIP3   OH229711   0.762   4.317  10.424 -0.2801  0.2387 -0.0198
 1839TIP3    H129712   0.685   4.335  10.370 -0.8779 -1.5024  0.1885
 1839TIP3    H229713   0.800   4.237  10.386  0.9580  0.6070  0.3909
 1840TIP3   OH229714   2.220   6.246  10.722  0.1694  0.0551  0.0437
 1840TIP3    H129715   2.202   6.339  10.730 -0.0440  0.0113  0.0804
 1840TIP3    H229716   2.264   6.223  10.804 -0.0368  0.0645  0.1575
 1841TIP3   OH229717   1.025   3.069  10.872  0.0761  0.0386  0.1469
 1841TIP3    H129718   1.110   3.113  10.868  1.0430 -1.8289 -0.7425
 1841TIP3    H229719   0.978   3.116  10.941  1.5420  1.5707  0.1775
 1842TIP3   OH229720   3.010   6.188  11.987 -0.4219  0.2988  0.6116
 1842TIP3    H129721   3.082   6.150  11.938  2.1410  1.8498  2.8497
 1842TIP3    H229722   2.932   6.141  11.958  1.8411 -3.4109 -0.0144
 1843TIP3   OH229723   0.850   0.305   8.647 -0.4529  0.4486  0.0526
 1843TIP3    H129724   0.934   0.287   8.606 -0.6941  0.6994 -0.5640
 1843TIP3    H229725   0.790   0.241   8.607 -0.7428  0.8647 -0.1836
 1844TIP3   OH229726   3.487   4.604  10.656 -0.0791 -1.0728  0.6484
 1844TIP3    H129727   3.450   4.516  10.652 -2.2169 -0.2093 -0.6395
 1844TIP3    H229728   3.574   4.596  10.618 -0.4736 -2.5238 -0.0217
 1845TIP3   OH229729   2.973   5.222  11.429 -0.6641 -0.3929 -0.4935
 1845TIP3    H129730   2.880   5.238  11.442 -0.7296 -1.2149  0.1699
 1845TIP3    H229731   3.000   5.286  11.363 -1.5068  0.4041 -0.0866
 1846TIP3   OH229732   4.694   2.471  10.185 -0.5208  0.7530  0.1516
 1846TIP3    H129733   4.627   2.441  10.247 -1.4945 -0.4087 -1.3684
 1846TIP3    H229734   4.736   2.545  10.228 -1.5833  0.3907  1.9089
 1847TIP3   OH229735   3.470   4.748   9.990  0.3504  0.1141 -0.5550
 1847TIP3    H129736   3.481   4.670   9.935  1.1026  1.2031 -2.0201
 1847TIP3    H229737   3.383   4.739  10.028  0.0915 -1.0115 -1.3779
 1848TIP3   OH229738   5.735   1.464   9.264  0.4451 -0.5619 -0.1140
 1848TIP3    H129739   5.789   1.387   9.247 -0.7253 -0.9170 -2.8732
 1848TIP3    H229740   5.669   1.434   9.326  1.0410 -1.2549  0.2022
 1849TIP3   OH229741   4.615   6.019   8.771  0.3552  0.1510  0.1209
 1849TIP3    H129742   4.562   6.034   8.693  0.6916  0.4535 -0.0526
 1849TIP3    H229743   4.699   5.988   8.737 -0.0964 -1.4936  0.4457
 1850TIP3   OH229744   1.313   3.446   9.753 -0.5197  0.3790 -0.0182
 1850TIP3    H129745   1.259   3.375   9.718  0.4686  0.3619 -1.6196
 1850TIP3    H229746   1.306   3.516   9.689  0.3447  0.8598  0.3884
 1851TIP3   OH229747   0.905   1.538  11.454 -0.1659  0.7912 -0.4318
 1851TIP3    H129748   0.913   1.570  11.365 -1.0055  0.7581 -0.5282
 1851TIP3    H229749   0.845   1.463  11.448  0.6495  0.0768 -0.0061
 1852TIP3   OH229750   1.528   1.936  11.051 -0.3251 -0.2046  0.2633
 1852TIP3    H129751   1.600   1.992  11.082 -0.4375  0.4976 -0.7031
 1852TIP3    H229752   1.452   1.994  11.049 -0.8844 -0.8873  1.0602
 1853TIP3   OH229753   6.742   1.287  10.545  0.3373 -0.3775 -0.4044
 1853TIP3    H129754   6.782   1.283  10.457 -1.5061 -0.0788 -1.2994
 1853TIP3    H229755   6.755   1.377  10.573  1.5484 -0.6423 -0.0265
 1854TIP3   OH229756   4.544   4.853   9.450 -0.0081  0.0418 -0.0619
 1854TIP3    H129757   4.508   4.791   9.513 -1.0779  0.2224 -0.4690
 1854TIP3    H229758   4.565   4.931   9.501 -1.4941  0.4300 -0.0150
 1855TIP3   OH229759   1.111   4.858   8.545 -0.0647 -0.1738 -0.3851
 1855TIP3    H129760   1.079   4.814   8.467 -3.0473 -0.4323  0.8776
 1855TIP3    H229761   1.134   4.788   8.605  0.2311  0.0211 -0.2667
 1856TIP3   OH229762   2.069   4.623  10.513  0.0574  0.4514  0.1468
 1856TIP3    H129763   1.981   4.644  10.544 -0.1027 -0.5907  0.4166
 1856TIP3    H229764   2.125   4.638  10.590 -0.0559 -0.1043  0.3384
 1857TIP3   OH229765   4.760   0.046  10.473  0.1783  0.3733  0.5400
 1857TIP3    H129766   4.832   0.089  10.519  0.0937  1.2333 -0.1006
 1857TIP3    H229767   4.701   0.016  10.542  1.5861 -1.1771  1.1278
 1858TIP3   OH229768   1.320   5.481  10.571 -0.0663  0.2354 -0.0575
 1858TIP3    H129769   1.368   5.552  10.530 -0.7329  0.3618 -0.6312
 1858TIP3    H229770   1.293   5.515  10.656  0.7200  0.2126  0.2091
 1859TIP3   OH229771   1.395   1.838   9.119  0.1716  0.2919  0.4354
 1859TIP3    H129772   1.443   1.894   9.058  1.5128  2.0187  2.8934
 1859TIP3    H229773   1.306   1.835   9.084 -0.2576  4.8022  0.5702
 1860TIP3   OH229774   1.006   2.084  10.433 -0.7113 -0.3186 -0.4515
 1860TIP3    H129775   1.049   2.013  10.385  0.1612  0.5290 -0.9370
 1860TIP3    H229776   0.913   2.072  10.412 -0.5314 -1.0416 -0.9034
 1861TIP3   OH229777   4.710   5.399  11.557  0.1815  0.1692 -0.5687
 1861TIP3    H129778   4.622   5.372  11.585  0.0216  0.8017 -0.4442
 1861TIP3    H229779   4.769   5.355  11.617 -0.0623 -0.1261 -0.5432
 1862TIP3   OH229780   2.059   1.552   8.491 -0.1166  0.3947 -0.1240
 1862TIP3    H129781   2.132   1.498   8.521  1.3431  2.6766  0.7126
 1862TIP3    H229782   2.004   1.562   8.569 -2.0257 -2.2057 -1.0163
 1863TIP3   OH229783   3.625   0.453  10.081 -0.0769 -0.5123 -0.5700
 1863TIP3    H129784   3.696   0.503  10.122 -1.5397  0.4356  0.9325
 1863TIP3    H229785   3.554   0.516  10.069 -1.2449 -1.7705 -0.5729
 1864TIP3   OH229786   6.634   6.225   9.958  0.3685  0.5744  0.2008
 1864TIP3    H129787   6.545   6.204   9.929 -0.1282  1.9508  0.6470
 1864TIP3    H229788   6.681   6.141   9.956 -0.9305 -0.1644 -0.0595
 1865TIP3   OH229789   1.816   1.176  11.137  0.0924 -0.6053 -0.1642
 1865TIP3    H129790   1.778   1.264  11.139  0.4748 -0.4416  1.0802
 1865TIP3    H229791   1.743   1.118  11.114 -0.3913 -0.0643 -0.0042
 1866TIP3   OH229792   3.017   4.429   9.723 -0.0124 -0.2124 -0.4288
 1866TIP3    H129793   3.042   4.509   9.768  0.3559 -0.2351 -0.5886
 1866TIP3    H229794   3.099   4.379   9.715  0.2277  0.4011 -2.3632
 1867TIP3   OH229795   4.972   3.244   8.814 -0.3800  0.2856 -0.2202
 1867TIP3    H129796   4.999   3.258   8.724  0.3961 -0.3862 -0.1112
 1867TIP3    H229797   4.893   3.191   8.808  0.1585 -0.5000 -0.4985
 1868TIP3   OH229798   1.860   2.401  11.701  0.6151 -0.5852  0.7459
 1868TIP3    H129799   1.941   2.428  11.743 -0.8678  1.5774  2.4417
 1868TIP3    H229800   1.826   2.480  11.659 -0.4179 -1.5425 -0.3345
 1869TIP3   OH229801   2.831   1.538   9.324 -0.1936  0.1317 -0.2134
 1869TIP3    H129802   2.896   1.576   9.264 -1.2795  1.1810 -0.7523
 1869TIP3    H229803   2.868   1.452   9.346  0.6937  0.1071 -1.6358
 1870TIP3   OH229804   5.865   2.346  11.307  0.1379  0.6374  0.6237
 1870TIP3    H129805   5.948   2.387  11.331  0.0991  0.7473  0.5744
 1870TIP3    H229806   5.806   2.420  11.292  0.0658  0.5624  0.5353
 1871TIP3   OH229807   4.961   6.484   8.814 -0.1186 -0.1330  0.9033
 1871TIP3    H129808   5.007   6.444   8.741 -1.8575  0.7455 -0.7530
 1871TIP3    H229809   5.015   6.463   8.891  1.6607 -1.2439 -0.5696
 1872TIP3   OH229810   5.742   1.118   9.498 -0.1419  0.1870 -0.4267
 1872TIP3    H129811   5.703   1.101   9.413 -0.6628  0.3361 -0.2219
 1872TIP3    H229812   5.706   1.051   9.555  0.5051 -0.1480 -0.4074
 1873TIP3   OH229813   6.476   1.830  10.118 -0.1170 -0.1248 -0.5215
 1873TIP3    H129814   6.465   1.811  10.024 -0.6106 -0.3357 -0.4211
 1873TIP3    H229815   6.551   1.776  10.144 -0.8117 -1.1150 -0.4916
 1874TIP3   OH229816   5.140   5.724  10.867  0.8375 -0.2972 -0.0638
 1874TIP3    H129817   5.115   5.814  10.885 -0.1744 -0.7636  1.0278
 1874TIP3    H229818   5.187   5.695  10.945 -1.9185 -1.7540  1.2033
 1875TIP3   OH229819   2.094   0.619  11.155  0.3767  0.3753  0.0298
 1875TIP3    H129820   2.127   0.644  11.242 -0.5477  1.1754  0.1677
 1875TIP3    H229821   2.173   0.614  11.101  0.9833 -0.2751  0.9357
 1876TIP3   OH229822   0.969   6.446  11.784  0.1697 -0.2704 -0.3042
 1876TIP3    H129823   1.002   6.531  11.756 -1.0395  0.4199  0.2761
 1876TIP3    H229824   0.928   6.409  11.706 -0.0211  0.0522 -0.3593
 1877TIP3   OH229825   3.795   1.163  10.113  0.3647  0.2273  0.0042
 1877TIP3    H129826   3.762   1.096  10.172 -2.4314  0.3488 -1.2423
 1877TIP3    H229827   3.799   1.243  10.166  0.9887 -0.2960  0.7744
 1878TIP3   OH229828   0.641   3.287  10.865  0.3839 -0.3790  0.3652
 1878TIP3    H129829   0.662   3.333  10.784  3.7060  1.7469  2.1960
 1878TIP3    H229830   0.566   3.335  10.900  0.8152  0.6270 -0.0459
 1879TIP3   OH229831   6.571   2.762   9.894  0.1581  0.7747  0.6402
 1879TIP3    H129832   6.586   2.855   9.910  1.0242  0.6477  0.6290
 1879TIP3    H229833   6.484   2.745   9.929  0.4084  1.3722  1.5884
 1880TIP3   OH229834   6.475   2.307  10.581  0.2317 -0.6488  0.2344
 1880TIP3    H129835   6.402   2.368  10.591  1.5344  0.9106  0.6475
 1880TIP3    H229836   6.554   2.362  10.583  1.4288 -2.2384 -0.4382
 1881TIP3   OH229837   2.850   2.606  10.164  0.4663  0.5319  0.3479
 1881TIP3    H129838   2.918   2.647  10.218  0.9171  0.3825 -0.0985
 1881TIP3    H229839   2.866   2.641  10.076  1.4003 -1.2337 -0.2271
 1882TIP3   OH229840   4.097   6.044  11.697  0.0998 -0.0867 -0.4238
 1882TIP3    H129841   4.025   6.105  11.684 -0.5118 -1.0204 -1.6473
 1882TIP3    H229842   4.071   5.966  11.648  1.9769 -0.4217 -0.9539
 1883TIP3   OH229843   6.643   2.605  10.259  0.0257 -0.3203  0.2713
 1883TIP3    H129844   6.578   2.535  10.262  2.1894 -2.5818 -1.0816
 1883TIP3    H229845   6.592   2.686  10.257 -2.6649 -1.9027  0.2990
 1884TIP3   OH229846   6.173   1.130  11.583  0.2871 -0.2791  0.3216
 1884TIP3    H129847   6.220   1.098  11.505  2.7706  1.1542  1.1140
 1884TIP3    H229848   6.186   1.061  11.648  1.3212  0.0856  0.5196
 1885TIP3   OH229849   5.737   6.657  12.069  0.3418  0.2185  0.2628
 1885TIP3    H129850   5.680   6.633  11.996  1.8047 -1.6036 -0.3491
 1885TIP3    H229851   5.690   6.628  12.147 -0.5874  0.8722 -0.0371
 1886TIP3   OH229852   6.110   2.369   9.532  0.0176  0.2066  0.5670
 1886TIP3    H129853   6.100   2.329   9.619 -0.2741 -0.2438  0.3286
 1886TIP3    H229854   6.083   2.460   9.544 -1.3819 -0.2014  0.6368
 1887TIP3   OH229855   3.803   3.205  10.654 -0.4714 -0.2731  0.3194
 1887TIP3    H129856   3.724   3.209  10.708 -0.2693  0.3388  0.5830
 1887TIP3    H229857   3.869   3.251  10.706  0.3574 -1.7062  0.5957
 1888TIP3   OH229858   5.972   4.694  10.899  0.4802  0.1367 -0.1690
 1888TIP3    H129859   6.013   4.688  10.985 -1.2328  1.1420  0.7783
 1888TIP3    H229860   5.993   4.783  10.869  0.0303  0.2230 -0.2303
 1889TIP3   OH229861   1.351   2.315   9.810  0.3546  0.3740  0.5325
 1889TIP3    H129862   1.298   2.365   9.748  2.0769  0.8670 -0.6364
 1889TIP3    H229863   1.310   2.229   9.813 -0.1124  0.5200 -0.8894
 1890TIP3   OH229864   5.790   0.650   8.845 -0.3588  0.7475  0.4195
 1890TIP3    H129865   5.748   0.569   8.874 -1.1935  0.4534 -1.4775
 1890TIP3    H229866   5.725   0.693   8.789  1.2512  1.0319 -1.3563
 1891TIP3   OH229867   5.347   0.718  11.591  0.2019  0.1008 -0.1632
 1891TIP3    H129868   5.367   0.650  11.527 -0.6576  1.6242 -2.1661
 1891TIP3    H229869   5.271   0.684  11.639  0.1351 -0.5832 -0.7311
 1892TIP3   OH229870   6.399   3.827   7.989  0.1723 -0.0448  0.8490
 1892TIP3    H129871   6.468   3.892   7.971 -0.3244  0.2593  0.0042
 1892TIP3    H229872   6.414   3.802   8.080  1.6870 -0.3302  0.5501
 1893TIP3   OH229873   2.044   6.119  11.883 -0.0603  0.1215  0.5868
 1893TIP3    H129874   2.016   6.201  11.842 -0.1018  0.1447  0.6609
 1893TIP3    H229875   1.982   6.054  11.850 -1.0368  0.4063  1.7677
 1894TIP3   OH229876   5.336   6.348  11.859  0.7304  0.4337 -0.2923
 1894TIP3    H129877   5.328   6.367  11.766  0.5139 -0.5326 -0.4818
 1894TIP3    H229878   5.310   6.256  11.867  1.6500  0.2362  0.5832
 1895TIP3   OH229879   6.747   1.835  11.363  0.7366 -0.7628  0.0397
 1895TIP3    H129880   6.720   1.751  11.325 -0.3144 -0.5395  0.2685
 1895TIP3    H229881   6.682   1.897  11.332  1.3540 -0.0780  0.0994
 1896TIP3   OH229882   4.735   5.624  11.713  0.2816 -0.2299  0.3407
 1896TIP3    H129883   4.739   5.552  11.651  0.3886  2.3189 -2.8722
 1896TIP3    H229884   4.816   5.617  11.764  0.6126 -1.9336 -0.3695
 1897TIP3   OH229885   6.586   5.519   9.484  0.2115  0.1858  0.2256
 1897TIP3    H129886   6.658   5.474   9.528  0.1121  0.4720  0.6915
 1897TIP3    H229887   6.568   5.595   9.539 -0.5995 -0.0137  0.2533
 1898TIP3   OH229888   4.419   0.691   9.018  0.0684  0.2190  0.4530
 1898TIP3    H129889   4.376   0.606   9.002  1.0365  0.1281 -2.0961
 1898TIP3    H229890   4.353   0.742   9.065 -1.5669 -1.0382 -0.3524
 1899TIP3   OH229891   4.950   5.156  10.394 -1.0450  0.0624 -0.0937
 1899TIP3    H129892   4.947   5.168  10.489 -0.1804 -2.4194  0.3205
 1899TIP3    H229893   4.945   5.061  10.382 -1.8907  0.3648 -2.5916
 1900TIP3   OH229894   1.814   1.142  11.531  0.1019  0.0688  0.9973
 1900TIP3    H129895   1.807   1.237  11.543  0.1736  0.1109  0.7057
 1900TIP3    H229896   1.754   1.122  11.460 -1.4295 -0.3903  2.3660
 1901TIP3   OH229897   3.210   4.081   8.985  0.2544  0.3014  0.2141
 1901TIP3    H129898   3.149   4.011   9.007  0.7920  0.0752  1.0133
 1901TIP3    H229899   3.216   4.078   8.889 -1.6457  0.9032  0.0360
 1902TIP3   OH229900   5.115   5.494  10.107  0.0400 -0.0143 -0.2069
 1902TIP3    H129901   5.204   5.512  10.077  0.1186 -0.0358  0.0141
 1902TIP3    H229902   5.116   5.402  10.133  0.1023  0.1331  0.3226
 1903TIP3   OH229903   4.114   1.431   9.848 -0.3574  1.1376  0.4780
 1903TIP3    H129904   4.086   1.360   9.790  1.3842  0.9546 -0.1853
 1903TIP3    H229905   4.032   1.475   9.872 -1.1267  1.9537 -3.0614
 1904TIP3   OH229906   2.975   1.049   9.082 -0.0637 -0.3208 -0.1430
 1904TIP3    H129907   3.068   1.037   9.101 -0.1756 -1.5336 -0.2757
 1904TIP3    H229908   2.935   1.071   9.166  0.6487  2.4531 -0.4491
 1905TIP3   OH229909   3.661   1.952  11.547 -0.3491  0.7720  0.2642
 1905TIP3    H129910   3.628   1.862  11.551  0.9809  0.3274  3.1459
 1905TIP3    H229911   3.748   1.943  11.508  0.7754  0.3869  2.6861
 1906TIP3   OH229912   6.132   1.895  11.607 -0.4402  0.1935 -0.1686
 1906TIP3    H129913   6.097   1.823  11.659 -1.0470 -0.3429 -1.2905
 1906TIP3    H229914   6.055   1.933  11.563  0.1453  0.0984 -1.3258
 1907TIP3   OH229915   0.044   2.307  10.525  0.0387 -0.3784  0.2479
 1907TIP3    H129916   0.029   2.241  10.457  0.3794 -0.5624  0.3504
 1907TIP3    H229917   0.101   2.372  10.483 -0.7556  0.1543 -0.0358
 1908TIP3   OH229918   2.388   1.238  10.496 -0.1714 -0.0724  0.0780
 1908TIP3    H129919   2.295   1.223  10.482 -0.3464 -0.4296  1.4612
 1908TIP3    H229920   2.394   1.327  10.532  0.0778  0.1375 -0.4663
 1909TIP3   OH229921   5.014   3.272  11.731  0.2924  0.1703 -0.5242
 1909TIP3    H129922   4.925   3.238  11.738  0.3622  0.2894  1.3620
 1909TIP3    H229923   5.061   3.207  11.680 -0.2580 -1.1957  0.6530
 1910TIP3   OH229924   3.424   3.168  11.300  0.3368 -0.7530  0.4948
 1910TIP3    H129925   3.369   3.172  11.221 -0.5190  0.0515  1.1084
 1910TIP3    H229926   3.503   3.123  11.271  0.5710  0.5857 -1.1603
 1911TIP3   OH229927   5.914   5.775  11.274  0.0081 -0.1811 -0.0541
 1911TIP3    H129928   5.854   5.765  11.200  0.4482 -2.1061 -0.1850
 1911TIP3    H229929   5.948   5.687  11.290  1.9741  0.6721  0.7264
 1912TIP3   OH229930   4.020   2.919   9.694 -0.1511  0.5967 -0.1586
 1912TIP3    H129931   3.981   2.854   9.635 -0.7728  0.6722  0.1564
 1912TIP3    H229932   3.969   2.911   9.775  0.2852  0.9273  0.1560
 1913TIP3   OH229933   5.585   5.664  10.848 -0.0745  0.2416  0.0976
 1913TIP3    H129934   5.499   5.622  10.853  0.4284 -0.8466  0.0521
 1913TIP3    H229935   5.578   5.724  10.774 -0.9062  0.4591  0.3349
 1914TIP3   OH229936   0.965   0.316  11.530 -0.2709  0.9508 -0.2327
 1914TIP3    H129937   1.004   0.387  11.479  1.1642  0.2481 -0.1799
 1914TIP3    H229938   1.034   0.290  11.590 -1.0195 -0.0228  0.2299
 1915TIP3   OH229939   2.061   6.266   9.466 -0.5369  0.0944 -0.1932
 1915TIP3    H129940   2.141   6.299   9.508 -1.0610 -0.1484  1.0378
 1915TIP3    H229941   2.091   6.193   9.412 -0.1017 -1.1264  1.5974
 1916TIP3   OH229942   2.048   5.313  12.041  0.1180  0.3507 -0.7447
 1916TIP3    H129943   2.052   5.276  11.953  2.7372 -1.4212  0.0278
 1916TIP3    H229944   2.098   5.395  12.035  0.9611 -0.1605 -0.7416
 1917TIP3   OH229945   5.409   3.668  11.107 -0.1451 -0.2621  0.0157
 1917TIP3    H129946   5.421   3.617  11.027  1.9667 -0.3843  0.3574
 1917TIP3    H229947   5.396   3.758  11.076  2.0300 -0.0715 -0.4885
 1918TIP3   OH229948   1.700   2.734  11.298  0.5103  0.1031 -0.4650
 1918TIP3    H129949   1.646   2.678  11.243  0.3460 -0.5733  0.3648
 1918TIP3    H229950   1.638   2.796  11.337  0.5540  0.2752 -0.6709
 1919TIP3   OH229951   1.432   6.367  11.934 -0.1056 -0.4193 -0.1734
 1919TIP3    H129952   1.459   6.282  11.899 -0.2724 -0.1750 -0.9119
 1919TIP3    H229953   1.340   6.375  11.909  0.1815  0.4275 -1.0272
 1920TIP3   OH229954   3.883   3.468  10.722  0.1200  0.2776 -0.0539
 1920TIP3    H129955   3.866   3.543  10.665 -2.8714 -0.8898 -0.8963
 1920TIP3    H229956   3.824   3.480  10.797  1.7194  0.1786  1.2870
 1921TIP3   OH229957   1.182   5.911   8.521 -0.1531 -0.3088 -0.4009
 1921TIP3    H129958   1.229   5.994   8.513  0.3437 -0.4769  0.6044
 1921TIP3    H229959   1.126   5.922   8.597 -0.9851 -0.4849 -0.9722
 1922TIP3   OH229960   3.626   3.397  11.368 -0.3134  0.2338 -0.2922
 1922TIP3    H129961   3.592   3.462  11.430 -0.3278 -0.1158  0.0763
 1922TIP3    H229962   3.556   3.384  11.305 -1.1118 -0.8895  0.7773
 1923TIP3   OH229963   2.175   6.687  11.773  0.6997  0.0448  0.6634
 1923TIP3    H129964   2.144   6.600  11.750  1.5091  0.2941 -1.6335
 1923TIP3    H229965   2.102   6.728  11.819 -0.9188 -0.7336 -1.1153
 1924TIP3   OH229966   4.918   3.387   9.958 -0.3620  0.1857  0.6690
 1924TIP3    H129967   4.995   3.352  10.003  0.1833  0.9942  0.3817
 1924TIP3    H229968   4.874   3.440  10.025 -0.6903 -0.2937  0.8395
 1925TIP3   OH229969   0.189   4.381  11.515 -0.2362 -0.4319  0.2659
 1925TIP3    H129970   0.277   4.343  11.519 -0.5382 -1.0975  0.8359
 1925TIP3    H229971   0.130   4.306  11.514 -0.7938 -0.0023 -0.6880
 1926TIP3   OH229972   1.169   5.322   9.511 -0.0830  0.1997 -0.1833
 1926TIP3    H129973   1.220   5.261   9.564 -0.2611  1.9057  2.0858
 1926TIP3    H229974   1.080   5.287   9.512 -0.3280  0.7723  1.6705
 1927TIP3   OH229975   5.994   1.939  10.238 -0.2644 -0.5135  0.1047
 1927TIP3    H129976   5.994   1.845  10.253 -0.9678 -0.3406  1.2932
 1927TIP3    H229977   6.059   1.974  10.299 -0.7084 -0.1291  0.3609
 1928TIP3   OH229978   4.707   3.999  10.588 -0.5013  0.3067  0.2018
 1928TIP3    H129979   4.712   3.905  10.570  2.7767  0.2710  0.7839
 1928TIP3    H229980   4.702   4.005  10.683 -0.7618  0.7447  0.1621
 1929TIP3   OH229981   1.799   6.533   9.146  0.5527  0.4893  0.0824
 1929TIP3    H129982   1.795   6.615   9.098 -0.4899  1.6687  2.0421
 1929TIP3    H229983   1.888   6.531   9.182  0.3544  1.1650  0.6408
 1930TIP3   OH229984   1.648   6.175  11.241  0.2631  0.1685 -0.1247
 1930TIP3    H129985   1.553   6.183  11.250  0.2861  0.8132 -0.4173
 1930TIP3    H229986   1.661   6.130  11.158  0.2289  1.0122 -0.6014
 1931TIP3   OH229987   0.236   4.674   9.011  0.5002  0.3409 -0.3543
 1931TIP3    H129988   0.263   4.595   9.057 -0.3339 -0.4855 -1.2263
 1931TIP3    H229989   0.247   4.652   8.918 -1.0981  0.7138 -0.6650
 1932TIP3   OH229990   4.868   2.244   8.856 -0.9245  0.2188 -0.2280
 1932TIP3    H129991   4.955   2.278   8.879 -1.0405  0.7979 -0.6351
 1932TIP3    H229992   4.881   2.200   8.772 -0.9473 -0.0330 -0.1003
 1933TIP3   OH229993   3.839   2.197  10.937 -0.3130  0.0496  0.5642
 1933TIP3    H129994   3.911   2.260  10.941 -0.0292 -0.2866  0.7914
 1933TIP3    H229995   3.805   2.195  11.026 -0.6254  0.2309  0.4503
 1934TIP3   OH229996   0.958   2.626  10.803 -0.4031  0.1943 -0.4153
 1934TIP3    H129997   1.049   2.637  10.775 -0.7120  0.1054 -1.5056
 1934TIP3    H229998   0.964   2.585  10.889  0.5787 -0.2842 -0.7004
 1935TIP3   OH229999   4.624   4.811  11.628  0.5920  0.0663  0.1122
 1935TIP3    H130000   4.624   4.905  11.613 -0.9180 -0.0812 -1.1068
 1935TIP3    H230001   4.660   4.800  11.716  0.7532  1.7719  0.2853
 1936TIP3   OH230002   1.247   2.870   9.543  0.4623 -0.6050  0.2669
 1936TIP3    H130003   1.247   2.960   9.509  2.1715 -0.1562  1.3220
 1936TIP3    H230004   1.165   2.862   9.591  0.5989  0.6351  0.7450
 1937TIP3   OH230005   0.819   4.205   9.789 -0.4155 -0.0980  0.3299
 1937TIP3    H130006   0.861   4.163   9.864  1.2257  2.3567  0.8904
 1937TIP3    H230007   0.890   4.224   9.729 -1.5151 -0.6800 -1.2415
 1938TIP3   OH230008   6.449   4.577  11.342  0.4426 -0.2145  0.0438
 1938TIP3    H130009   6.528   4.570  11.289  0.1047 -0.3141 -0.4482
 1938TIP3    H230010   6.444   4.494  11.388  1.8759  0.6198  1.8679
 1939TIP3   OH230011   5.481   6.067  10.046 -0.5562 -0.5871 -0.1916
 1939TIP3    H130012   5.405   6.024  10.007 -0.2724 -0.3954 -0.9830
 1939TIP3    H230013   5.494   6.146   9.992  0.1149 -0.5465  0.0216
 1940TIP3   OH230014   2.272   2.823  10.222 -0.7214  0.2850 -0.0161
 1940TIP3    H130015   2.359   2.848  10.255  0.2664 -1.1469 -1.3429
 1940TIP3    H230016   2.247   2.748  10.276 -0.2217 -0.5149 -0.8632
 1941TIP3   OH230017   6.517   5.172   8.447 -0.1626  0.0480  0.3322
 1941TIP3    H130018   6.436   5.186   8.496  0.9744  1.7695  1.8616
 1941TIP3    H230019   6.506   5.225   8.368 -0.3069  0.8077  0.8467
 1942TIP3   OH230020   4.725   4.427   8.803  0.2630 -0.4887  0.2314
 1942TIP3    H130021   4.815   4.405   8.776 -0.3962 -0.4646 -2.2797
 1942TIP3    H230022   4.736   4.488   8.876  2.2249 -3.6225  2.8742
 1943TIP3   OH230023   0.411   2.345  10.911 -0.8084 -0.0100 -0.0843
 1943TIP3    H130024   0.428   2.405  10.984 -1.4630  0.8010 -0.5833
 1943TIP3    H230025   0.336   2.383  10.865 -1.0684 -1.0739 -0.5732
 1944TIP3   OH230026   1.184   5.364  10.151 -0.4069 -0.2017  0.7352
 1944TIP3    H130027   1.168   5.369  10.245 -0.8373  0.1815  0.6489
 1944TIP3    H230028   1.105   5.402  10.112  0.5285  1.3642  0.2750
 1945TIP3   OH230029   4.843   0.692  10.192  0.1732 -1.0001 -0.2825
 1945TIP3    H130030   4.901   0.660  10.122 -0.0923 -0.8667 -0.5670
 1945TIP3    H230031   4.768   0.632  10.188  0.7649 -1.8509  0.8003
 1946TIP3   OH230032   3.840   6.729   9.221 -0.2461 -0.3026 -0.2999
 1946TIP3    H130033   3.887   6.782   9.156 -1.5369  0.9364 -0.2656
 1946TIP3    H230034   3.833   6.642   9.181  0.4702 -0.0192 -1.0678
 1947TIP3   OH230035   5.074   0.180  10.208  0.6773 -0.3946  0.3512
 1947TIP3    H130036   5.040   0.266  10.234 -0.4295 -0.6018 -0.3546
 1947TIP3    H230037   4.999   0.122  10.214  0.9794 -0.9420 -0.9439
 1948TIP3   OH230038   6.343   3.947   9.126  0.7120 -0.1688 -0.2185
 1948TIP3    H130039   6.260   3.935   9.172  1.0634  0.4675  0.6040
 1948TIP3    H230040   6.365   4.039   9.140  2.7577 -0.8753  1.6522
 1949TIP3   OH230041   4.057   2.435  10.088  0.4031  0.2350 -0.2724
 1949TIP3    H130042   3.990   2.389  10.036  1.3120 -2.3943  0.7134
 1949TIP3    H230043   4.024   2.431  10.178  1.3663 -0.1625  0.0767
 1950TIP3   OH230044   4.600   1.855   9.659  0.4260 -0.1219 -0.0699
 1950TIP3    H130045   4.608   1.790   9.728 -1.6164  0.5238  0.8418
 1950TIP3    H230046   4.684   1.900   9.658  0.9504 -1.0416  1.0711
 1951TIP3   OH230047   6.803   4.460  11.819 -0.1707  0.1054  0.3314
 1951TIP3    H130048   6.799   4.468  11.723  1.4867  1.3159  0.3213
 1951TIP3    H230049   6.768   4.372  11.836  0.0903 -0.4030 -1.4428
 1952TIP3   OH230050   0.926   1.834   9.055  0.2386 -0.1296  0.1807
 1952TIP3    H130051   0.943   1.849   9.148  1.5084 -2.0252  0.3011
 1952TIP3    H230052   0.998   1.877   9.010 -0.1104  0.3696  0.0952
 1953TIP3   OH230053   4.353   4.228  11.325 -0.3767  0.2956  0.2560
 1953TIP3    H130054   4.319   4.289  11.259 -0.1435  2.1257  1.7642
 1953TIP3    H230055   4.446   4.222  11.306 -0.8531 -2.2614 -1.9158
 1954TIP3   OH230056   4.952   3.876   8.698 -0.0739 -0.2509  0.2856
 1954TIP3    H130057   4.901   3.803   8.731 -1.2705  0.2946 -0.2869
 1954TIP3    H230058   4.914   3.895   8.612  1.7528 -0.4585 -0.6037
 1955TIP3   OH230059   3.977   0.052   9.001 -0.1736  0.0679  0.8397
 1955TIP3    H130060   4.043   0.078   9.066  2.2046 -1.4001 -0.8397
 1955TIP3    H230061   4.028   0.019   8.927 -2.8345 -2.1346 -0.1777
 1956TIP3   OH230062   5.869   5.457  10.914 -0.4191  0.3180 -0.0145
 1956TIP3    H130063   5.829   5.476  10.999  0.0602  1.5371 -0.0305
 1956TIP3    H230064   5.926   5.382  10.931 -2.1717 -1.0494  0.1478
 1957TIP3   OH230065   2.234   4.147   9.418 -0.4209 -0.0096 -0.1455
 1957TIP3    H130066   2.239   4.115   9.509  1.0407  1.4564  0.3311
 1957TIP3    H230067   2.151   4.113   9.386  0.2564 -2.8779  0.8223
 1958TIP3   OH230068   5.431   1.885   9.871  0.2394 -0.2562 -0.1945
 1958TIP3    H130069   5.460   1.804   9.828 -0.6705 -0.1186 -1.1272
 1958TIP3    H230070   5.443   1.953   9.804 -1.4211 -0.0769 -0.3584
 1959TIP3   OH230071   0.289   1.362  10.529  0.5952 -0.3188  0.2993
 1959TIP3    H130072   0.236   1.357  10.608  1.6455 -1.5264  0.9739
 1959TIP3    H230073   0.270   1.448  10.492 -0.9468 -0.2718  1.1173
 1960TIP3   OH230074   0.677   1.152  10.541 -0.1036  0.4959 -0.5483
 1960TIP3    H130075   0.678   1.134  10.635  0.8275 -0.5512 -0.7316
 1960TIP3    H230076   0.643   1.241  10.533 -2.4181 -0.2004  0.6181
 1961TIP3   OH230077   0.076   1.252  11.628 -0.3233 -0.0412 -0.5619
 1961TIP3    H130078   0.032   1.215  11.705  0.6994 -0.2051 -0.0417
 1961TIP3    H230079   0.004   1.277  11.570 -1.0717 -2.1616 -0.6351
 1962TIP3   OH230080   5.960   6.130  10.459 -0.1036  0.6611  0.7688
 1962TIP3    H130081   5.998   6.189  10.394 -0.1809 -0.1077  0.0078
 1962TIP3    H230082   5.866   6.131  10.440 -0.1718  0.7005  1.0972
 1963TIP3   OH230083   6.022   2.929   9.371 -0.0087  0.0685  0.3394
 1963TIP3    H130084   6.008   2.841   9.406 -1.9706  0.4064  0.5081
 1963TIP3    H230085   5.944   2.947   9.319  0.0884  1.9431  0.7755
 1964TIP3   OH230086   5.338   6.081  11.750 -0.3657 -0.0538  0.8763
 1964TIP3    H130087   5.382   6.081  11.665  2.1914  2.2111  2.0498
 1964TIP3    H230088   5.383   6.012  11.799  0.3314  0.7136  1.3386
 1965TIP3   OH230089   6.033   1.350  11.144 -0.1321 -0.0026  0.3034
 1965TIP3    H130090   6.066   1.439  11.149  1.0065 -0.4526  1.4432
 1965TIP3    H230091   5.945   1.355  11.181 -0.0219  0.6242  0.4863
 1966TIP3   OH230092   4.578   4.847   8.868 -0.0517  0.1397 -0.4442
 1966TIP3    H130093   4.516   4.877   8.935  0.1607  1.9702 -1.0090
 1966TIP3    H230094   4.525   4.832   8.790 -0.0824 -0.5193 -0.3043
 1967TIP3   OH230095   4.056   3.127   9.479  0.1676  0.0443 -0.2775
 1967TIP3    H130096   4.117   3.078   9.534  1.0918  0.8563 -0.5420
 1967TIP3    H230097   4.080   3.219   9.493 -0.0441  0.3049 -1.4783
 1968TIP3   OH230098   3.585   0.227  12.108 -0.0101 -0.2371  0.3106
 1968TIP3    H130099   3.665   0.175  12.121 -0.4798 -1.7153 -2.0729
 1968TIP3    H230100   3.514   0.170  12.139 -0.3221  0.1585  0.3360
 1969TIP3   OH230101   0.746   3.700  10.554 -0.0648 -0.7328 -0.0843
 1969TIP3    H130102   0.713   3.770  10.610 -0.0259  0.0565 -1.0234
 1969TIP3    H230103   0.768   3.744  10.471  1.4157 -1.5878 -0.1678
 1970TIP3   OH230104   4.893   6.000   9.617 -0.3155 -0.4508  0.3446
 1970TIP3    H130105   4.966   6.009   9.555 -1.0326  0.5515 -0.3896
 1970TIP3    H230106   4.935   5.982   9.701  0.7995  0.3584 -0.0162
 1971TIP3   OH230107   2.390   1.596   9.892  0.6425 -0.3009 -0.1621
 1971TIP3    H130108   2.460   1.617   9.830 -0.4870  1.6285 -0.8751
 1971TIP3    H230109   2.434   1.592   9.977  1.9884 -1.5691 -0.8824
 1972TIP3   OH230110   2.755   5.851  10.875 -0.0828 -0.3263  0.8538
 1972TIP3    H130111   2.778   5.885  10.789 -0.1923 -0.5792  0.7243
 1972TIP3    H230112   2.798   5.765  10.879  0.3963 -0.0757  1.2703
 1973TIP3   OH230113   4.453   3.271  10.405 -0.2874 -0.0393  0.2925
 1973TIP3    H130114   4.381   3.328  10.431 -1.3342 -0.6669 -1.0672
 1973TIP3    H230115   4.411   3.200  10.357  1.2862 -0.1400 -1.0426
 1974TIP3   OH230116   0.088   5.388  10.120  0.5785 -0.0441 -0.1773
 1974TIP3    H130117   0.066   5.296  10.105  2.8341 -0.5069 -1.0592
 1974TIP3    H230118   0.117   5.392  10.211 -2.7816  0.5836  1.0182
 1975TIP3   OH230119   4.884   0.713   9.307 -0.5393 -0.3377 -0.2566
 1975TIP3    H130120   4.966   0.746   9.270 -0.0506 -0.4342  0.6961
 1975TIP3    H230121   4.861   0.777   9.375 -0.1796 -1.3397  0.8361
 1976TIP3   OH230122   1.325   4.194  10.944 -0.8723  0.1625 -0.1893
 1976TIP3    H130123   1.384   4.138  10.893  0.0039  0.7939  0.1046
 1976TIP3    H230124   1.296   4.260  10.882 -0.6862  0.2783 -0.1545
 1977TIP3   OH230125   4.789   5.681   8.041 -0.2316  0.2486  0.0094
 1977TIP3    H130126   4.840   5.657   7.964  1.1889  0.5346  0.8126
 1977TIP3    H230127   4.855   5.707   8.106 -1.4676  1.7515  0.7312
 1978TIP3   OH230128   0.516   5.650  11.939 -0.0997 -0.2638  0.3869
 1978TIP3    H130129   0.468   5.732  11.946 -0.4076 -0.5887  2.5641
 1978TIP3    H230130   0.599   5.667  11.983  0.2980 -0.8040 -0.1367
 1979TIP3   OH230131   1.423   5.865  12.012 -0.2405 -0.3616  0.0073
 1979TIP3    H130132   1.516   5.855  11.996 -0.0872 -0.7637  1.0761
 1979TIP3    H230133   1.384   5.781  11.987 -0.5350  0.2770 -1.8017
 1980TIP3   OH230134   1.350   2.438   9.328  0.2839  0.0678 -0.2752
 1980TIP3    H130135   1.383   2.448   9.239 -1.6024  1.2525 -0.9080
 1980TIP3    H230136   1.360   2.345   9.348  2.7125  0.1347 -0.8638
 1981TIP3   OH230137   2.766   2.904  10.865 -0.2536  0.0709 -0.0036
 1981TIP3    H130138   2.757   2.834  10.929 -0.7922  1.1074  1.0832
 1981TIP3    H230139   2.727   2.868  10.785 -1.9791 -0.3231  0.9626
 1982TIP3   OH230140   0.717   3.665  11.108 -0.0684  0.1380 -0.5271
 1982TIP3    H130141   0.680   3.614  11.180  0.0430 -0.7339 -1.0733
 1982TIP3    H230142   0.772   3.730  11.150  0.0435 -0.4023  0.1750
 1983TIP3   OH230143   0.698   2.290  11.719  0.1031  0.0991  0.2228
 1983TIP3    H130144   0.661   2.208  11.685  1.1536  0.1407 -1.1214
 1983TIP3    H230145   0.757   2.264  11.789  0.8546 -0.3757 -0.5653
 1984TIP3   OH230146   4.721   0.978  10.233  0.7367 -0.0327 -0.6405
 1984TIP3    H130147   4.692   1.036  10.163  1.1928 -1.8658 -2.4383
 1984TIP3    H230148   4.778   0.915  10.190  0.1045 -1.9571  1.1747
 1985TIP3   OH230149   4.759   6.429  10.378  0.2202 -0.3305  0.0883
 1985TIP3    H130150   4.673   6.467  10.397 -0.4321 -1.3863 -0.5952
 1985TIP3    H230151   4.821   6.482  10.428 -0.6463  1.4848 -0.6703
 1986TIP3   OH230152   6.204   5.223  11.149 -0.1495 -0.0958  0.1608
 1986TIP3    H130153   6.272   5.286  11.125 -0.0915 -0.4141 -0.5223
 1986TIP3    H230154   6.208   5.220  11.245  2.2661 -1.6892  0.1067
 1987TIP3   OH230155   5.670   0.027   9.000  0.5567 -0.0778 -0.0460
 1987TIP3    H130156   5.634   0.074   8.925  0.4357 -1.1171 -0.6606
 1987TIP3    H230157   5.638  -0.062   8.989 -0.0627 -0.0879  1.6479
 1988TIP3   OH230158   3.809   1.527   8.545  0.0097  0.0887 -0.4579
 1988TIP3    H130159   3.901   1.554   8.545 -0.1416  0.8226  1.5064
 1988TIP3    H230160   3.805   1.455   8.483  2.4580 -1.5938  1.1483
 1989TIP3   OH230161   2.159   4.383  10.739  0.1918 -0.8515  0.4347
 1989TIP3    H130162   2.191   4.341  10.659 -0.9873 -1.0569  0.0467
 1989TIP3    H230163   2.171   4.317  10.807 -2.3854 -2.2566 -0.3127
 1990TIP3   OH230164   0.151   5.855  11.406  0.1801  0.8739  0.7655
 1990TIP3    H130165   0.191   5.905  11.335  0.3230  0.9327  0.8882
 1990TIP3    H230166   0.212   5.864  11.480  0.5364 -0.0139  0.5968
 1991TIP3   OH230167   4.723   2.104  11.007 -0.5261 -0.3466 -0.4511
 1991TIP3    H130168   4.699   2.082  11.097  0.3985 -0.0524 -0.1239
 1991TIP3    H230169   4.656   2.167  10.980 -0.2791  0.2987  0.3746
 1992TIP3   OH230170   3.943   0.321  10.051 -0.1549  0.2545 -0.5626
 1992TIP3    H130171   3.884   0.284   9.985  0.5111 -1.5023 -0.2377
 1992TIP3    H230172   3.915   0.412  10.060 -2.2815 -0.2993 -0.9810
 1993TIP3   OH230173   1.492   5.702  10.468 -0.1165  0.1601 -0.3721
 1993TIP3    H130174   1.554   5.660  10.527  0.2533  0.6102 -0.4340
 1993TIP3    H230175   1.545   5.731  10.394 -0.2320  1.3464 -0.0153
 1994TIP3   OH230176   2.990   3.207   9.228  0.6841 -0.4428  0.4212
 1994TIP3    H130177   2.993   3.168   9.316 -0.0252  0.0861  0.6999
 1994TIP3    H230178   3.073   3.182   9.187  0.4402 -1.8762  0.7281
 1995TIP3   OH230179   4.860   1.346  10.380  0.7224 -0.3615  0.0685
 1995TIP3    H130180   4.916   1.322  10.306  0.8070 -0.3216  0.1188
 1995TIP3    H230181   4.813   1.424  10.351 -1.4149 -1.9796 -1.0402
 1996TIP3   OH230182   5.471   2.283   9.437  0.3009 -0.0042  0.0718
 1996TIP3    H130183   5.470   2.364   9.387  0.7015  0.1403  0.2864
 1996TIP3    H230184   5.535   2.299   9.507 -0.6357 -0.0070  0.9485
 1997TIP3   OH230185   0.893   5.582   9.010 -0.6798  0.3045 -0.4141
 1997TIP3    H130186   0.907   5.645   8.940  1.4176 -0.1584 -0.4845
 1997TIP3    H230187   0.843   5.511   8.969  1.3324 -0.4173 -1.7860
 1998TIP3   OH230188   3.568   6.185  11.310 -0.2422 -0.2762  0.4849
 1998TIP3    H130189   3.530   6.263  11.351  0.9050 -0.7167  2.5234
 1998TIP3    H230190   3.647   6.217  11.266 -0.1330 -0.1666  0.7551
 1999TIP3   OH230191   6.243   1.117   9.819 -0.0575  0.0151 -0.4036
 1999TIP3    H130192   6.207   1.052   9.758  0.5569 -0.1895 -0.5537
 1999TIP3    H230193   6.281   1.184   9.762 -0.2872  0.2781 -0.2468
 2000TIP3   OH230194   1.783   1.849  10.841 -0.0497  0.0476 -0.0348
 2000TIP3    H130195   1.774   1.860  10.936  1.6112 -0.9803  0.2760
 2000TIP3    H230196   1.733   1.921  10.804 -1.7636 -0.2184  1.5930
 2001TIP3   OH230197   2.273   5.500  10.461  0.3173 -0.7513  0.1450
 2001TIP3    H130198   2.296   5.414  10.427  0.3462 -0.3082 -0.9898
 2001TIP3    H230199   2.181   5.512  10.436  0.2696 -0.5136  0.4264
 2002TIP3   OH230200   2.901   3.849  11.097 -0.2650  0.6547  0.2690
 2002TIP3    H130201   2.868   3.786  11.161 -1.3660  1.0599  0.1285
 2002TIP3    H230202   2.996   3.834  11.095 -0.5846 -1.8388 -0.6591
 2003TIP3   OH230203   6.649   4.541  11.156  0.3426 -0.1906  0.2463
 2003TIP3    H130204   6.718   4.525  11.221  0.3792 -0.6394  0.1034
 2003TIP3    H230205   6.688   4.511  11.073 -0.2108 -0.9453  0.2498
 2004TIP3   OH230206   3.644   3.057   8.786  0.3741  0.4231  0.0901
 2004TIP3    H130207   3.692   3.017   8.713  0.8340 -0.0610  0.6507
 2004TIP3    H230208   3.697   3.133   8.811  0.6744  0.0912  0.4781
 2005TIP3   OH230209   3.591   4.670  11.419  0.3357 -0.6976  0.2260
 2005TIP3    H130210   3.627   4.587  11.390 -0.9226 -1.8534  1.7739
 2005TIP3    H230211   3.537   4.648  11.495  2.1820  1.8649  2.5094
 2006TIP3   OH230212   5.968   6.035  11.030 -0.1692  0.6458 -0.9289
 2006TIP3    H130213   5.969   6.118  10.982  0.3548  0.0267 -2.0398
 2006TIP3    H230214   5.876   6.011  11.034 -0.2539  0.8786 -1.3577
 2007TIP3   OH230215   5.931   6.837  11.951 -0.6951  0.3374  0.0699
 2007TIP3    H130216   5.982   6.757  11.955 -0.4286  0.4650 -0.6244
 2007TIP3    H230217   5.845   6.813  11.987 -0.9868 -0.5601 -1.1522
 2008TIP3   OH230218   3.903   6.376   7.959 -0.5650  0.0062  0.0557
 2008TIP3    H130219   3.905   6.434   7.883 -0.1555  0.2801  0.2749
 2008TIP3    H230220   3.963   6.416   8.022 -2.2824  0.7910  1.2710
 2009TIP3   OH230221   6.232   2.694   9.710  0.2852 -0.1609 -0.1368
 2009TIP3    H130222   6.296   2.704   9.639 -0.2186  0.2855 -0.5485
 2009TIP3    H230223   6.153   2.737   9.676  0.4788  1.4353  1.2899
 2010TIP3   OH230224   0.690   1.803  10.474 -0.3292  0.2620 -0.1523
 2010TIP3    H130225   0.764   1.791  10.415  0.1700 -0.9058  0.6947
 2010TIP3    H230226   0.613   1.782  10.421  0.0974 -0.5582 -0.4564
 2011TIP3   OH230227   5.142   0.977  10.161  0.1219  0.3932  0.5842
 2011TIP3    H130228   5.138   0.912  10.231  1.1465  1.0763  1.3111
 2011TIP3    H230229   5.068   0.956  10.104 -1.1265  0.2026  2.2106
 2012TIP3   OH230230   4.297   5.908  11.283 -0.4402  0.0309 -0.2542
 2012TIP3    H130231   4.347   5.894  11.202 -0.7751  1.5559 -0.7749
 2012TIP3    H230232   4.314   6.000  11.305  0.4679 -0.6251  2.0061
 2013TIP3   OH230233   5.020   2.559  10.486  0.3010 -0.2322  0.1023
 2013TIP3    H130234   5.080   2.535  10.415 -2.0951 -0.2030 -2.0996
 2013TIP3    H230235   4.976   2.637  10.454 -0.0846  0.4423  2.1686
 2014TIP3   OH230236   5.042   3.854  11.103  0.0542 -0.2817 -0.1891
 2014TIP3    H130237   5.003   3.921  11.159  0.6254 -2.5928  3.2826
 2014TIP3    H230238   5.130   3.886  11.085  0.5627 -0.2632  1.9962
 2015TIP3   OH230239   5.225   6.549   9.299  0.0746 -0.2767  0.4664
 2015TIP3    H130240   5.186   6.636   9.296 -0.7562 -0.6677 -0.7081
 2015TIP3    H230241   5.307   6.558   9.251 -1.0506 -0.6074 -1.6196
 2016TIP3   OH230242   2.896   0.917  11.353 -0.4056 -0.2339 -0.9322
 2016TIP3    H130243   2.946   0.849  11.398 -1.8632 -0.0666  1.0933
 2016TIP3    H230244   2.818   0.873  11.321 -1.8488  0.5504  1.2536
 2017TIP3   OH230245   4.268   4.355   8.990  0.4712 -0.3289  0.1266
 2017TIP3    H130246   4.316   4.431   9.025  0.5889 -0.4402  0.2072
 2017TIP3    H230247   4.190   4.393   8.949 -0.2483 -0.2782  1.4844
 2018TIP3   OH230248   4.494   2.985  11.493 -0.0798  0.2795  0.1586
 2018TIP3    H130249   4.411   2.941  11.474 -0.3344  1.1772 -0.9317
 2018TIP3    H230250   4.471   3.051  11.559 -0.0435 -0.0848  0.5370
 2019TIP3   OH230251   4.956   0.532  10.898  0.4692 -0.2101  0.5251
 2019TIP3    H130252   5.014   0.568  10.830 -0.3457  0.0507 -0.0391
 2019TIP3    H230253   4.888   0.485  10.850 -0.4894  0.5351  1.1267
 2020TIP3   OH230254   1.788   0.887  10.364  0.4616  0.2829  0.0363
 2020TIP3    H130255   1.842   0.813  10.393  1.5772  1.0208 -0.1253
 2020TIP3    H230256   1.844   0.936  10.304 -1.1459 -0.1406 -1.9273
 2021TIP3   OH230257   0.046   5.658  11.040 -0.0291  0.1376 -0.5715
 2021TIP3    H130258   0.073   5.663  11.132 -1.5015  0.8927 -0.1613
 2021TIP3    H230259   0.058   5.566  11.017 -3.5921 -1.0694  1.6741
 2022TIP3   OH230260   3.828   6.399   9.354  0.5172  0.0228 -0.4812
 2022TIP3    H130261   3.848   6.479   9.403  2.5252 -0.3618 -0.5907
 2022TIP3    H230262   3.808   6.429   9.266 -2.6791  0.6854  0.3567
 2023TIP3   OH230263   6.517   4.116  10.969  0.1152 -0.7685 -0.2997
 2023TIP3    H130264   6.495   4.054  11.039 -0.0258  0.0643  0.4151
 2023TIP3    H230265   6.474   4.197  10.995  2.8307  0.5600  0.4666
 2024TIP3   OH230266   0.209   2.957  11.373 -0.3000 -0.3356 -0.0063
 2024TIP3    H130267   0.219   3.037  11.322  0.7326 -0.6516 -0.3315
 2024TIP3    H230268   0.159   2.898  11.317 -0.4562 -0.1644 -0.0479
 2025TIP3   OH230269   0.793   0.582   9.847  0.1065  0.1944  0.2369
 2025TIP3    H130270   0.758   0.569   9.935 -0.0677  0.8505  0.2690
 2025TIP3    H230271   0.878   0.539   9.848 -0.1940 -0.4106  0.5103
 2026TIP3   OH230272   6.603   2.463   9.897 -0.2934 -0.3446  0.5414
 2026TIP3    H130273   6.589   2.547   9.853  0.0719 -0.4604  0.1982
 2026TIP3    H230274   6.542   2.465   9.971 -0.9303 -0.1520  0.0314
 2027TIP3   OH230275   6.571   6.324  11.175 -0.4935  0.4451 -0.1524
 2027TIP3    H130276   6.517   6.305  11.252  0.4977 -0.6656  0.3024
 2027TIP3    H230277   6.622   6.401  11.201 -0.5202  0.3724  0.1206
 2028TIP3   OH230278   5.667   4.433   8.723 -0.2558 -0.5304 -0.3505
 2028TIP3    H130279   5.717   4.492   8.779 -0.1684 -3.3561  2.9126
 2028TIP3    H230280   5.728   4.407   8.654  0.2594  1.6514 -0.7756
 2029TIP3   OH230281   1.906   5.843  10.474 -0.2632 -0.3181  0.1346
 2029TIP3    H130282   1.878   5.762  10.430  0.7656 -0.6905  0.1448
 2029TIP3    H230283   1.909   5.908  10.404 -0.9588 -0.3185  0.0981
 2030TIP3   OH230284   1.934   2.881  11.272  0.0876  0.0262  0.2392
 2030TIP3    H130285   1.848   2.848  11.297  0.6787  0.6433  3.6222
 2030TIP3    H230286   1.940   2.968  11.312  1.5867  0.8212 -1.5562
 2031TIP3   OH230287   5.973   0.574   9.542  0.0844  0.0538 -0.0363
 2031TIP3    H130288   6.065   0.552   9.527 -0.2637 -1.0703 -0.6826
 2031TIP3    H230289   5.933   0.565   9.456 -0.5538  0.9918  0.1495
 2032TIP3   OH230290   0.284   0.759  10.549  0.3711  0.6387  0.2245
 2032TIP3    H130291   0.271   0.703  10.625 -0.6815  2.5041  1.4984
 2032TIP3    H230292   0.366   0.728  10.510 -0.9592 -2.8521 -0.2033
 2033TIP3   OH230293   3.064   0.009   9.362  0.1922  0.3483  0.0704
 2033TIP3    H130294   3.044  -0.006   9.454 -0.3026  1.0657  0.0879
 2033TIP3    H230295   3.111   0.093   9.361  1.0310 -0.1143 -0.2337
 2034TIP3   OH230296   1.242   5.670  11.252  0.5680 -0.1015 -0.0569
 2034TIP3    H130297   1.230   5.587  11.206 -2.6154 -0.3858  1.0172
 2034TIP3    H230298   1.319   5.710  11.211  0.5470 -2.3052 -2.4860
 2035TIP3   OH230299   5.369   0.613   8.962 -0.2420  0.0973 -0.2485
 2035TIP3    H130300   5.352   0.664   8.883  0.4075  2.2702  0.9220
 2035TIP3    H230301   5.283   0.590   8.995 -0.7039  2.3387  0.2965
 2036TIP3   OH230302   5.338   2.401  10.836 -0.2236 -0.0632 -0.1238
 2036TIP3    H130303   5.285   2.394  10.757  0.6667  0.5512 -0.7913
 2036TIP3    H230304   5.370   2.312  10.852  0.4965  0.0107 -1.0996
 2037TIP3   OH230305   1.064   4.888  10.537 -0.3718 -0.5213  0.1679
 2037TIP3    H130306   1.124   4.873  10.610  2.0208  1.0445 -1.3373
 2037TIP3    H230307   1.046   4.801  10.502  1.7074 -1.0110  0.2034
 2038TIP3   OH230308   4.110   5.946  10.679 -0.2751 -0.2897  0.5093
 2038TIP3    H130309   4.121   6.026  10.628 -2.0242 -0.4176 -0.1369
 2038TIP3    H230310   4.073   5.883  10.617  1.4106 -1.7368  0.9107
 2039TIP3   OH230311   4.340   0.520  10.909  0.2861  0.4250 -0.4425
 2039TIP3    H130312   4.291   0.578  10.968  1.4419  0.1699  0.8065
 2039TIP3    H230313   4.428   0.517  10.946  0.5450 -1.2555 -1.1304
 2040TIP3   OH230314   6.110   1.043  10.754  0.0922  0.0886 -0.9202
 2040TIP3    H130315   6.106   1.108  10.824 -0.9103 -0.5559 -0.3547
 2040TIP3    H230316   6.149   1.089  10.680  1.0713  0.8187  0.0130
 2041TIP3   OH230317   2.737   2.958  10.503 -0.3923 -0.4139 -0.5689
 2041TIP3    H130318   2.738   2.892  10.434  0.2727 -1.0260  0.0138
 2041TIP3    H230319   2.820   3.004  10.493 -0.8421  0.3315 -0.9584
 2042TIP3   OH230320   0.768   1.004  10.784  0.3436  0.2709  0.0649
 2042TIP3    H130321   0.760   0.909  10.776  0.6166  0.3008 -0.6306
 2042TIP3    H230322   0.823   1.017  10.860 -1.3387 -0.0742  1.4069
 2043TIP3   OH230323   5.303   5.845   8.663  0.0915  0.0789 -0.0609
 2043TIP3    H130324   5.385   5.811   8.628  0.7101 -0.3598  1.6982
 2043TIP3    H230325   5.236   5.784   8.632  0.5889 -0.2293 -0.5408
 2044TIP3   OH230326   3.268   3.964  10.127 -0.1308 -0.5797  0.1568
 2044TIP3    H130327   3.280   3.979  10.033  0.1145 -1.2975  0.0668
 2044TIP3    H230328   3.329   4.025  10.169 -2.4117  2.0460 -0.0007
 2045TIP3   OH230329   5.050   6.074  11.774  0.3742 -0.4549  0.3675
 2045TIP3    H130330   5.143   6.091  11.791  0.6640 -2.4392  0.9194
 2045TIP3    H230331   5.048   6.045  11.682  0.5524 -1.9379  0.8062
 2046TIP3   OH230332   0.407   4.628  11.742 -0.3157  0.1634 -0.8946
 2046TIP3    H130333   0.350   4.659  11.812 -0.2494 -2.4658  0.4353
 2046TIP3    H230334   0.481   4.690  11.742 -0.4264  0.3629  1.2107
 2047TIP3   OH230335   3.009   0.517   8.528 -0.1904  0.3582  0.4452
 2047TIP3    H130336   3.005   0.454   8.457 -0.8821 -0.1879  0.9413
 2047TIP3    H230337   3.090   0.497   8.575 -0.6116 -0.4521  0.8441
 2048TIP3   OH230338   6.158   3.556   9.744  0.3511 -0.8312  0.4852
 2048TIP3    H130339   6.070   3.579   9.714 -0.1365 -1.9309  1.0555
 2048TIP3    H230340   6.197   3.509   9.670  0.5155 -0.2498  0.1917
 2049TIP3   OH230341   5.752   1.810   8.696  0.0707 -0.1421  0.3749
 2049TIP3    H130342   5.665   1.799   8.735 -0.3377  0.1039 -0.4523
 2049TIP3    H230343   5.772   1.903   8.709 -0.0571 -0.0640  0.0233
 2050TIP3   OH230344   0.763   6.128  11.064 -0.0265 -0.3854  0.0502
 2050TIP3    H130345   0.825   6.199  11.049 -0.8295  0.8601  2.2099
 2050TIP3    H230346   0.734   6.103  10.976  2.0916  0.2521 -0.9029
 2051TIP3   OH230347   2.936   6.299   9.223 -0.4996 -0.2537 -0.3628
 2051TIP3    H130348   2.941   6.361   9.296 -0.8320 -1.4582  0.7161
 2051TIP3    H230349   2.906   6.218   9.263 -0.3406 -1.0431 -1.7962
 2052TIP3   OH230350   3.935   3.968   9.741 -0.1598  0.0717 -0.1209
 2052TIP3    H130351   3.906   3.908   9.672  0.1289 -0.2801  0.0603
 2052TIP3    H230352   3.855   3.993   9.787 -0.3504  0.2829 -0.5616
 2053TIP3   OH230353   2.256   1.980   9.662 -0.5460  0.0838  0.1194
 2053TIP3    H130354   2.341   1.994   9.703  0.8154 -4.0475 -0.7274
 2053TIP3    H230355   2.271   1.994   9.569 -1.0067  0.1435  0.0483
 2054TIP3   OH230356   4.422   3.615   9.361 -0.5134 -0.1820 -0.0465
 2054TIP3    H130357   4.484   3.626   9.433  1.4483 -1.4717 -1.4490
 2054TIP3    H230358   4.382   3.529   9.377 -0.6589 -0.1212 -0.0806
 2055TIP3   OH230359   2.260   2.502  10.931  0.2807  0.5332 -0.1120
 2055TIP3    H130360   2.327   2.493  10.999  0.0345  0.5985  0.1446
 2055TIP3    H230361   2.245   2.597  10.925  1.1316  0.6234 -1.0822
 2056TIP3   OH230362   1.809   2.041  11.156  0.5187 -0.0689 -0.3501
 2056TIP3    H130363   1.843   2.129  11.136 -2.2951  1.2572  0.1008
 2056TIP3    H230364   1.882   1.982  11.140  1.9903  2.1617 -2.5799
 2057TIP3   OH230365   3.717   6.628  10.525 -0.1628 -0.1516 -0.4989
 2057TIP3    H130366   3.729   6.670  10.440 -1.3625  3.7656  1.0259
 2057TIP3    H230367   3.623   6.612  10.531  0.0329 -1.3057 -0.2325
 2058TIP3   OH230368   5.435   5.548  10.609  0.1273  0.0465  0.4868
 2058TIP3    H130369   5.348   5.530  10.645  0.5581 -1.1241  0.9619
 2058TIP3    H230370   5.434   5.509  10.522 -0.6804  2.2932 -0.6043
 2059TIP3   OH230371   6.748   1.414  11.500 -0.5354 -0.2555  0.3662
 2059TIP3    H130372   6.713   1.478  11.563 -1.4259 -1.1668  0.8225
 2059TIP3    H230373   6.750   1.462  11.417  0.3937  0.8811  1.0093
 2060TIP3   OH230374   2.571   4.823  10.931  0.3937 -0.1385  0.2186
 2060TIP3    H130375   2.631   4.750  10.916  2.1897  0.9675  1.5147
 2060TIP3    H230376   2.600   4.891  10.870 -0.6677 -0.1611 -0.3348
 2061TIP3   OH230377   2.964   0.995   9.386 -0.0695 -0.1378 -0.0116
 2061TIP3    H130378   3.023   0.929   9.351  1.2147  0.1553  1.4650
 2061TIP3    H230379   2.987   1.000   9.479 -1.9809  0.4813  0.4600
 2062TIP3   OH230380   0.466   4.779  10.481  0.6799  0.1990  0.1767
 2062TIP3    H130381   0.453   4.796  10.387  0.6086  0.1156  0.1710
 2062TIP3    H230382   0.427   4.855  10.525  0.6916  0.2266  0.1394
 2063TIP3   OH230383   3.431   4.537  11.596 -0.4633  0.4218 -0.2151
 2063TIP3    H130384   3.504   4.479  11.618 -0.1876  1.6113  2.3184
 2063TIP3    H230385   3.353   4.482  11.606 -0.1767  0.3203  1.7532
 2064TIP3   OH230386   0.604   6.826   9.373  0.3712  0.0040 -0.1173
 2064TIP3    H130387   0.628   6.743   9.415 -0.7178 -0.1844  0.1731
 2064TIP3    H230388   0.627   6.813   9.281 -0.5647 -0.9639 -0.2372
 2065TIP3   OH230389   3.226   5.793  10.434  0.5866  0.1297  0.5284
 2065TIP3    H130390   3.214   5.783  10.529  1.0578  1.6620  0.7675
 2065TIP3    H230391   3.166   5.863  10.409  0.5599 -0.1706 -0.2998
 2066TIP3   OH230392   1.284   5.411   9.099 -0.3243  0.6317 -0.1159
 2066TIP3    H130393   1.250   5.437   9.013  2.2981 -1.9582 -2.1543
 2066TIP3    H230394   1.234   5.333   9.122  0.7020 -0.1910 -0.6125
 2067TIP3   OH230395   0.115   5.942   9.489 -0.1576  0.1844  0.3392
 2067TIP3    H130396   0.206   5.935   9.518 -0.2664 -4.0649  0.2677
 2067TIP3    H230397   0.089   6.032   9.511  3.8581  1.3996  0.7767
 2068TIP3   OH230398   2.531   3.833  10.616 -0.0681 -0.5867 -0.4663
 2068TIP3    H130399   2.617   3.866  10.592 -0.6794  1.8250  0.4019
 2068TIP3    H230400   2.542   3.799  10.705 -0.4284  1.9975  0.6755
 2069TIP3   OH230401   6.286   4.342   9.547  0.1146 -0.2480  0.4526
 2069TIP3    H130402   6.260   4.357   9.456  1.8244 -1.7103 -0.3584
 2069TIP3    H230403   6.241   4.262   9.572  0.3058 -0.3115  0.5955
 2070TIP3   OH230404   6.649   0.871  10.059  0.3491  0.1235  0.4049
 2070TIP3    H130405   6.666   0.965  10.065  0.5171  0.2372 -1.3147
 2070TIP3    H230406   6.562   0.864  10.018 -0.4598 -0.4890  2.1264
 2071TIP3   OH230407   0.388   1.017   9.707 -0.8926 -0.3971 -0.1419
 2071TIP3    H130408   0.379   0.931   9.748 -0.1428 -0.4311 -0.0235
 2071TIP3    H230409   0.445   1.002   9.632 -0.0186  0.1428  0.3996
 2072TIP3   OH230410   5.184   5.796  11.847 -0.2108 -0.3930  0.2645
 2072TIP3    H130411   5.159   5.704  11.855  0.3083 -0.4102  2.3865
 2072TIP3    H230412   5.102   5.844  11.862 -0.2805 -0.5127  0.2663
 2073TIP3   OH230413   1.915   0.997   9.647  0.0331 -0.6427  0.3320
 2073TIP3    H130414   2.002   0.985   9.684 -0.1958  2.0233  2.0333
 2073TIP3    H230415   1.931   1.031   9.559  0.7505 -0.0226  0.6874
 2074TIP3   OH230416   3.277   5.006   8.850 -0.2832  0.2173 -0.5147
 2074TIP3    H130417   3.347   5.054   8.894  1.0054 -1.7269 -0.3112
 2074TIP3    H230418   3.209   4.997   8.917  0.0108  0.6222 -0.1547
 2075TIP3   OH230419   0.940   6.130  10.261  0.4745  0.1526 -0.1393
 2075TIP3    H130420   0.914   6.110  10.171 -0.7180  1.2084 -0.0518
 2075TIP3    H230421   1.005   6.199  10.252 -0.8511  1.4497 -0.1656
 2076TIP3   OH230422   1.930   1.570  11.288 -0.0216 -0.0357 -0.0678
 2076TIP3    H130423   1.948   1.523  11.207  0.3362  0.7705 -0.4562
 2076TIP3    H230424   1.863   1.517  11.331 -0.2235 -0.4632 -0.8882
 2077TIP3   OH230425   5.784   6.412  10.780  0.2984  0.1730  0.3170
 2077TIP3    H130426   5.744   6.435  10.864  0.1066  0.3686  0.1717
 2077TIP3    H230427   5.720   6.440  10.715  0.7331  0.6169  0.0763
 2078TIP3   OH230428   4.639   1.163   8.455  0.2053  0.4903  0.1553
 2078TIP3    H130429   4.634   1.114   8.373  2.6162 -0.5910  0.5675
 2078TIP3    H230430   4.728   1.198   8.457  0.4325 -0.0504  2.5879
 2079TIP3   OH230431   4.304   1.440   9.541 -0.3908  0.1846 -0.1344
 2079TIP3    H130432   4.244   1.514   9.553  0.9517  1.2192  0.4713
 2079TIP3    H230433   4.247   1.365   9.529 -1.8050  1.2573 -0.4080
 2080TIP3   OH230434   6.372   4.321  11.953  0.1668  0.1376 -0.0965
 2080TIP3    H130435   6.325   4.360  12.026  0.8850 -1.9085  1.5850
 2080TIP3    H230436   6.334   4.233  11.944  1.0611 -0.1604 -1.2272
 2081TIP3   OH230437   0.600   1.160  10.002 -0.2620  0.1692  0.2861
 2081TIP3    H130438   0.654   1.123   9.932  1.6654  1.5111  0.9617
 2081TIP3    H230439   0.570   1.084  10.052  0.8513 -0.6533 -0.2523
 2082TIP3   OH230440   4.847   5.356   9.822  0.6118  0.0412  0.2216
 2082TIP3    H130441   4.871   5.390   9.735  1.3510  1.5728  0.9790
 2082TIP3    H230442   4.777   5.414   9.852  0.0773 -0.7352  0.4853
 2083TIP3   OH230443   2.950   1.098  10.462  0.0525 -0.1507  0.8590
 2083TIP3    H130444   2.969   1.185  10.427  0.3404 -0.7631 -0.5762
 2083TIP3    H230445   2.975   1.103  10.554  0.4214  1.1654  0.7091
 2084TIP3   OH230446   1.309   1.125  11.243 -0.6718  0.2183  0.2378
 2084TIP3    H130447   1.239   1.188  11.226 -1.1651 -0.0729  1.1024
 2084TIP3    H230448   1.327   1.134  11.336  0.6085  0.4369 -0.0121
 2085TIP3   OH230449   2.982   0.669  11.527  0.0311 -0.0133  0.4247
 2085TIP3    H130450   3.039   0.593  11.514  1.4506  1.0863  0.0061
 2085TIP3    H230451   3.040   0.737  11.561 -0.2088  2.2046 -3.1175
 2086TIP3   OH230452   6.123   5.038  11.668  0.9039 -0.5001 -0.3167
 2086TIP3    H130453   6.052   5.072  11.613  0.1607  0.2319  1.0368
 2086TIP3    H230454   6.163   4.968  11.616 -0.9608 -1.0960 -1.0371
 2087TIP3   OH230455   3.119   5.065  10.670  0.4674 -0.1413  0.6655
 2087TIP3    H130456   3.093   5.092  10.582 -0.3360  0.6024  1.1217
 2087TIP3    H230457   3.059   5.111  10.728  1.1081 -0.4825  1.6169
 2088TIP3   OH230458   6.404   3.104  10.327  0.2002  0.3347 -0.5694
 2088TIP3    H130459   6.399   3.116  10.232 -0.0653  0.1117 -0.5857
 2088TIP3    H230460   6.432   3.189  10.361  0.7048  0.2958 -0.8814
 2089TIP3   OH230461   6.785   3.429  11.777 -0.4030  1.0622 -0.3633
 2089TIP3    H130462   6.841   3.352  11.775  0.6531  1.7887 -2.3344
 2089TIP3    H230463   6.845   3.501  11.798 -0.8293  1.6867 -1.2248
 2090TIP3   OH230464   4.833   5.807  11.471 -0.3127  0.1442 -0.6938
 2090TIP3    H130465   4.790   5.807  11.556 -1.3650 -0.7025 -1.2125
 2090TIP3    H230466   4.771   5.766  11.411  0.5680  0.3462 -1.7994
 2091TIP3   OH230467   1.023   5.083  11.394 -0.4213 -0.2620 -0.2986
 2091TIP3    H130468   1.015   5.079  11.298 -0.7137  1.3117 -0.3692
 2091TIP3    H230469   0.983   5.167  11.418 -0.4440 -0.6762  1.2227
 2092TIP3   OH230470   3.892   3.732  10.511  0.9859 -0.3999 -0.5156
 2092TIP3    H130471   3.804   3.742  10.476  0.8600  1.4911  0.1995
 2092TIP3    H230472   3.950   3.757  10.438  0.8033  1.0431 -0.2060
 2093TIP3   OH230473   6.203   6.780  10.546  0.2459  0.5993 -0.1681
 2093TIP3    H130474   6.245   6.814  10.467  0.6272  0.5498  0.0098
 2093TIP3    H230475   6.250   6.821  10.618 -0.5432  1.1741  0.0362
 2094TIP3   OH230476   6.147   4.783  10.573  0.2047 -0.0724 -0.0686
 2094TIP3    H130477   6.120   4.796  10.664 -0.8947 -1.2330 -0.1901
 2094TIP3    H230478   6.071   4.741  10.532  1.3925 -1.3638 -1.0319
 2095TIP3   OH230479   2.634   1.107  10.434  0.0870 -0.2755  0.0296
 2095TIP3    H130480   2.706   1.168  10.419 -0.1903 -0.2949 -1.5399
 2095TIP3    H230481   2.559   1.163  10.454  0.1015 -0.1508 -0.2574
 2096TIP3   OH230482   0.002   6.175   9.607 -0.0012  0.6283 -0.2702
 2096TIP3    H130483  -0.056   6.121   9.554  0.1446 -0.1545  0.3587
 2096TIP3    H230484  -0.048   6.255   9.622 -0.4205  0.4725 -0.7824
 2097TIP3   OH230485   6.049   6.573  11.876  0.3694 -0.0925  0.5090
 2097TIP3    H130486   5.984   6.544  11.940  1.8487 -0.3714  1.9625
 2097TIP3    H230487   5.998   6.610  11.805 -1.3787 -0.5725  1.4517
 2098TIP3   OH230488   2.230   6.322  11.942  0.3092  0.0109  0.7003
 2098TIP3    H130489   2.205   6.375  11.866 -0.7946  0.4765  1.3687
 2098TIP3    H230490   2.168   6.250  11.942  0.8617 -0.4704  0.6667
 2099TIP3   OH230491   4.217   3.737   9.687  0.5197 -0.0758 -0.1475
 2099TIP3    H130492   4.293   3.794   9.697  0.9245 -0.3427 -1.4852
 2099TIP3    H230493   4.184   3.756   9.599 -1.9320  1.1670  0.9422
 2100TIP3   OH230494   3.687   4.055   9.497  0.0269  0.0127  0.2308
 2100TIP3    H130495   3.684   4.032   9.404  1.1535  0.3143  0.1054
 2100TIP3    H230496   3.744   4.132   9.500  0.4792 -0.3572  1.2399
 2101TIP3   OH230497   0.027   4.075   9.420  0.0539 -0.7077 -0.2463
 2101TIP3    H130498   0.079   4.076   9.501 -0.0033  0.3345 -0.2091
 2101TIP3    H230499   0.048   3.991   9.379  0.5708 -0.9717  0.5360
 2102TIP3   OH230500   1.605   4.650  10.178 -0.3809  0.2351 -0.2317
 2102TIP3    H130501   1.577   4.624  10.266 -0.0976  0.6934 -0.0047
 2102TIP3    H230502   1.589   4.745  10.175  1.9414  0.6840  0.2159
 2103TIP3   OH230503   4.095   2.203  11.449  0.4829  0.7838 -0.1920
 2103TIP3    H130504   4.092   2.163  11.536 -0.0249  1.0447 -0.0852
 2103TIP3    H230505   4.188   2.199  11.424  0.4084 -0.7327 -0.3224
 2104TIP3   OH230506   0.911   2.991  11.731 -0.5886 -0.5719  0.1619
 2104TIP3    H130507   0.993   3.010  11.686 -0.4481  0.5758  0.8516
 2104TIP3    H230508   0.920   3.034  11.816 -2.7119  1.4563 -0.5205
 2105TIP3   OH230509   0.986   1.947  11.383 -0.0430 -0.1077  0.1805
 2105TIP3    H130510   1.059   1.886  11.371  1.5049  1.9458 -1.7741
 2105TIP3    H230511   0.914   1.910  11.332  1.4467  0.4873 -2.5210
 2106TIP3   OH230512   3.284   6.190  10.841 -0.1866  0.0615  0.3060
 2106TIP3    H130513   3.200   6.181  10.887 -0.2340 -0.2603  0.1545
 2106TIP3    H230514   3.268   6.256  10.774  0.0584  1.0273  1.1637
 2107TIP3   OH230515   6.003   5.218  10.956 -0.4362  0.3552 -0.3008
 2107TIP3    H130516   6.056   5.185  10.883  0.2534  0.3310  0.2045
 2107TIP3    H230517   6.063   5.220  11.030 -1.3843 -0.5234  0.5006
 2108TIP3   OH230518   6.158   0.085  11.466  0.6660 -0.4792 -0.1453
 2108TIP3    H130519   6.193   0.038  11.542 -0.7454 -0.2332  0.6907
 2108TIP3    H230520   6.170   0.024  11.393 -0.3182 -1.8263  0.7547
 2109TIP3   OH230521   0.373   3.778   9.791 -0.1859  0.0181 -0.4890
 2109TIP3    H130522   0.467   3.779   9.810 -0.0555  0.3921 -1.1328
 2109TIP3    H230523   0.364   3.830   9.712 -1.0789  0.8460  0.1368
 2110TIP3   OH230524   1.786   4.697  10.590 -0.6586 -0.0481  0.3379
 2110TIP3    H130525   1.741   4.613  10.583  1.1051 -1.0421  0.3847
 2110TIP3    H230526   1.755   4.735  10.672 -1.0867 -0.9116  0.5827
 2111TIP3   OH230527   1.896   0.435   9.277  0.0441  0.0370  0.2752
 2111TIP3    H130528   1.981   0.419   9.317 -0.0593  0.4593  0.6788
 2111TIP3    H230529   1.900   0.392   9.192  0.3113 -0.7678  0.6909
 2112TIP3   OH230530   6.818   0.993   9.428  0.0773 -0.4359 -0.1406
 2112TIP3    H130531   6.831   0.925   9.362 -1.4487 -0.5839 -0.3239
 2112TIP3    H230532   6.818   0.947   9.511 -2.6576 -0.9991 -0.3569
 2113TIP3   OH230533   1.633   1.990  11.652 -0.3757 -0.5747  0.6806
 2113TIP3    H130534   1.715   2.040  11.650 -1.3773  1.2236  1.8134
 2113TIP3    H230535   1.573   2.044  11.704 -1.7513 -2.6726  1.4230
 2114TIP3   OH230536   1.442   1.918  10.591  0.1836 -0.2310 -0.2006
 2114TIP3    H130537   1.500   1.975  10.641 -1.0132  1.3020 -0.4866
 2114TIP3    H230538   1.407   1.974  10.521 -0.7945 -1.3884 -0.6848
 2115TIP3   OH230539   1.693   0.171  10.056 -0.2587 -0.0627 -0.4015
 2115TIP3    H130540   1.626   0.216  10.004 -0.4834  0.5804  0.4159
 2115TIP3    H230541   1.654   0.161  10.143  0.9369  0.9653  0.2945
 2116TIP3   OH230542   4.340   5.913  11.012 -0.0063  0.3489  0.0002
 2116TIP3    H130543   4.302   5.994  10.978 -2.2967 -0.3724  0.6767
 2116TIP3    H230544   4.338   5.852  10.938 -1.8806 -0.2057  0.4542
 2117TIP3   OH230545   1.405   1.974   9.839  0.1786  0.3968 -0.3972
 2117TIP3    H130546   1.336   1.914   9.811  0.4431 -0.4139  0.6181
 2117TIP3    H230547   1.373   2.013   9.920  0.4902  0.7775 -0.4502
 2118TIP3   OH230548   0.653   5.894  10.678  0.7070  0.7704 -0.0875
 2118TIP3    H130549   0.725   5.894  10.741  1.7450  0.0635 -1.2201
 2118TIP3    H230550   0.579   5.859  10.726  1.3788  0.5714  0.8373
 2119TIP3   OH230551   2.569   1.116   9.453  0.1714 -0.2798  0.2131
 2119TIP3    H130552   2.631   1.071   9.510  0.4660  1.0046  0.9574
 2119TIP3    H230553   2.571   1.207   9.483 -0.4333  0.2244 -1.1885
 2120TIP3   OH230554   5.855   1.023  10.494  0.6808  0.2357  0.1227
 2120TIP3    H130555   5.896   1.107  10.512  0.8568 -0.0409  1.1146
 2120TIP3    H230556   5.832   0.989  10.581  0.1221 -0.4912 -0.2977
 2121TIP3   OH230557   0.111   0.708  11.191 -0.0558  0.1666  0.2509
 2121TIP3    H130558   0.130   0.705  11.097 -3.0475 -0.8292 -0.4424
 2121TIP3    H230559   0.071   0.794  11.204 -1.2543 -0.3770  0.2212
 2122TIP3   OH230560   4.276   0.770  11.209  0.6204  0.1355  0.8993
 2122TIP3    H130561   4.186   0.782  11.240  1.0029 -0.3464  2.2488
 2122TIP3    H230562   4.325   0.744  11.287  1.7233 -0.6525 -0.0246
 2123TIP3   OH230563   2.683   2.768  10.328  0.0012  0.0236 -0.1754
 2123TIP3    H130564   2.740   2.723  10.265 -0.6136 -1.0945  0.0417
 2123TIP3    H230565   2.611   2.802  10.275 -0.1971 -0.3808 -0.1716
 2124TIP3   OH230566   0.680   4.983  10.498  0.1640 -0.2669 -0.3306
 2124TIP3    H130567   0.623   4.916  10.459 -2.3158  2.0266 -0.9783
 2124TIP3    H230568   0.756   4.986  10.441 -0.5122 -1.3187 -1.3271
 2125TIP3   OH230569   2.708   4.752  11.503 -0.3986  0.0006 -0.4054
 2125TIP3    H130570   2.686   4.846  11.504  1.3570  0.4511 -0.4650
 2125TIP3    H230571   2.793   4.748  11.461 -0.1609 -1.5762  0.1573
 2126TIP3   OH230572   2.114   3.091  11.687  0.1337 -0.1925 -0.0383
 2126TIP3    H130573   2.159   3.074  11.604  0.2072  1.8745 -0.4903
 2126TIP3    H230574   2.149   3.176  11.716 -0.2364 -0.6435  1.8848
 2127TIP3   OH230575   0.248   3.045   8.828  0.6529 -0.3439 -0.4520
 2127TIP3    H130576   0.332   3.026   8.787  0.7717  0.1203 -0.4342
 2127TIP3    H230577   0.183   3.008   8.769  0.7124  1.9576 -2.0951
 2128TIP3   OH230578   4.452   4.920   8.611  0.0649 -0.7597  0.1320
 2128TIP3    H130579   4.480   5.012   8.615 -0.3629 -0.5482 -1.1724
 2128TIP3    H230580   4.394   4.917   8.535  0.2970 -2.1781 -0.0027
 2129TIP3   OH230581   2.917   3.999   7.972 -0.3047 -0.3821 -0.1856
 2129TIP3    H130582   2.831   3.979   7.935 -0.3770  0.6891 -0.6248
 2129TIP3    H230583   2.952   4.068   7.917  1.0532 -1.1124 -0.3041
 2130TIP3   OH230584   2.176   4.117  10.102  0.0828 -0.2967 -0.7225
 2130TIP3    H130585   2.148   4.099  10.012 -1.1648  0.6425 -0.5565
 2130TIP3    H230586   2.103   4.086  10.156 -0.8760  2.4310 -0.2892
 2131TIP3   OH230587   3.440   6.571  10.611 -0.5349  0.2258  0.3860
 2131TIP3    H130588   3.453   6.651  10.662  0.8688  0.8795 -0.9607
 2131TIP3    H230589   3.348   6.547  10.628  0.2893 -0.6754  4.7091
 2132TIP3   OH230590   0.856   5.953  10.868  0.0348  0.5173 -0.9561
 2132TIP3    H130591   0.946   5.961  10.835  0.0290 -0.0290 -1.1129
 2132TIP3    H230592   0.866   5.911  10.953 -0.1243 -0.2855 -1.3231
 2133TIP3   OH230593   1.358   4.591  10.065 -0.1387  0.8210  0.1493
 2133TIP3    H130594   1.296   4.594  10.138 -0.6387 -0.7785 -0.1676
 2133TIP3    H230595   1.443   4.605  10.107 -0.0263 -2.9771  1.6728
 2134TIP3   OH230596   4.759   1.927   9.254  0.1055  0.0549  0.5442
 2134TIP3    H130597   4.703   1.880   9.316 -0.6697  1.0451  0.6203
 2134TIP3    H230598   4.847   1.890   9.267 -0.4051 -1.0800  0.8663
 2135TIP3   OH230599   3.600   4.402  11.233 -0.0890 -0.5903 -0.2300
 2135TIP3    H130600   3.609   4.315  11.273  0.0971 -0.4160  0.1182
 2135TIP3    H230601   3.681   4.414  11.184 -0.2372 -0.7275 -0.5114
 2136TIP3   OH230602   0.440   4.311  11.467  0.1206  0.2460 -0.7704
 2136TIP3    H130603   0.504   4.241  11.477  0.5533  0.5982 -1.0536
 2136TIP3    H230604   0.474   4.365  11.396  0.3322  1.3412  0.1401
 2137TIP3   OH230605   4.546   3.492  10.270  0.7365  0.0200  0.4071
 2137TIP3    H130606   4.561   3.435  10.346  0.9071  0.5904  0.8096
 2137TIP3    H230607   4.469   3.543  10.293 -0.4259 -1.1881 -0.6437
 2138TIP3   OH230608   6.012   3.351  11.107 -0.7320 -0.3322 -0.5104
 2138TIP3    H130609   5.968   3.322  11.027 -1.1018  0.7440 -0.7094
 2138TIP3    H230610   6.105   3.343  11.087 -0.8183 -0.9515 -0.7080
 2139TIP3   OH230611   2.448   0.921  11.472  0.0197  0.1481  0.2959
 2139TIP3    H130612   2.489   0.935  11.386 -0.5379 -0.0565 -0.0068
 2139TIP3    H230613   2.514   0.870  11.521 -0.0724 -0.6365 -0.3686
 2140TIP3   OH230614   1.496   4.765  10.960 -0.1847  0.8290  0.1692
 2140TIP3    H130615   1.501   4.861  10.961 -0.2776  0.8647 -1.4474
 2140TIP3    H230616   1.427   4.744  11.023 -0.0618  1.8120  0.6525
 2141TIP3   OH230617   2.701   6.736   9.438  0.1122  0.1682 -0.5851
 2141TIP3    H130618   2.610   6.731   9.466  0.9220 -1.1200  2.0910
 2141TIP3    H230619   2.724   6.829   9.447  0.2732 -0.1054  3.2902
 2142TIP3   OH230620   6.686   3.768  11.862  0.2679  0.4204  0.0868
 2142TIP3    H130621   6.696   3.859  11.832 -0.5808  0.2806 -0.6476
 2142TIP3    H230622   6.773   3.730  11.850  0.4233  0.9067 -0.3856
 2143TIP3   OH230623   0.612   2.519   9.596  0.3108  0.9440 -0.4137
 2143TIP3    H130624   0.520   2.539   9.574 -0.0469  0.3538  0.5115
 2143TIP3    H230625   0.623   2.552   9.685 -0.0705 -2.1004  0.8736
 2144TIP3   OH230626   3.789   2.151   8.905 -0.3677 -0.2945 -0.0830
 2144TIP3    H130627   3.881   2.132   8.926 -0.6732 -2.5231 -0.6067
 2144TIP3    H230628   3.739   2.098   8.966 -1.4262  2.0650  1.2659
 2145TIP3   OH230629   4.160   6.207   9.703  0.2885 -0.4721 -0.4274
 2145TIP3    H130630   4.106   6.208   9.624 -0.0917 -1.5489 -0.1939
 2145TIP3    H230631   4.098   6.215   9.775  0.7675  2.6600 -0.2332
 2146TIP3   OH230632   0.173   3.995  10.324 -0.3367  0.1558 -0.4297
 2146TIP3    H130633   0.219   3.925  10.279 -1.1572 -0.2199 -0.7149
 2146TIP3    H230634   0.122   4.038  10.254 -2.6760 -1.2598  0.2688
 2147TIP3   OH230635   4.742   6.547   8.654  0.1944 -0.3186  0.5006
 2147TIP3    H130636   4.731   6.481   8.586  0.0759 -0.4795  0.6739
 2147TIP3    H230637   4.821   6.520   8.700 -0.1871 -0.6848  0.9547
 2148TIP3   OH230638   3.440   2.414   9.479  0.1295 -0.0962 -0.5462
 2148TIP3    H130639   3.427   2.508   9.468  0.4874 -0.2556 -2.6456
 2148TIP3    H230640   3.423   2.399   9.572  0.3210  2.0718 -0.0981
 2149TIP3   OH230641   5.408   0.820  11.933  0.2055 -0.4001  0.2074
 2149TIP3    H130642   5.421   0.856  11.845  0.1563  1.6029  0.9781
 2149TIP3    H230643   5.321   0.851  11.959  0.6166 -0.1338  1.3325
 2150TIP3   OH230644   3.893   4.822  10.531 -0.0551  0.4135  0.5866
 2150TIP3    H130645   3.833   4.894  10.513  0.2467  0.7506  0.9154
 2150TIP3    H230646   3.975   4.865  10.555  0.2027 -0.0418  0.5282
 2151TIP3   OH230647   1.817   6.043  11.493  0.1315 -0.0577 -0.1570
 2151TIP3    H130648   1.819   6.098  11.414 -0.1530 -0.0198 -0.1361
 2151TIP3    H230649   1.734   5.998  11.489  1.3524 -2.3608 -1.4650
 2152TIP3   OH230650   0.565   3.663   8.930 -0.0824  0.1503  0.1755
 2152TIP3    H130651   0.629   3.734   8.917 -1.0309  1.1049  0.5596
 2152TIP3    H230652   0.602   3.589   8.883  0.2416  1.3189 -1.4971
 2153TIP3   OH230653   6.336   0.051  11.689 -0.3019 -0.4204  0.3788
 2153TIP3    H130654   6.428   0.074  11.678 -0.6535  0.7328 -0.2545
 2153TIP3    H230655   6.335  -0.045  11.689  1.0001 -0.4629  1.3504
 2154TIP3   OH230656   4.105   1.994  10.248  0.4591  0.1746 -0.3204
 2154TIP3    H130657   4.187   1.953  10.276 -0.2474 -1.0623  0.0424
 2154TIP3    H230658   4.076   2.043  10.325 -0.9995 -2.4573  0.9557
 2155TIP3   OH230659   3.760   4.512   8.958 -0.0309 -0.0946 -0.3606
 2155TIP3    H130660   3.669   4.481   8.954  0.0438 -0.2407 -1.0741
 2155TIP3    H230661   3.760   4.578   9.026 -0.8131  0.3580 -0.7836
 2156TIP3   OH230662   4.903   5.168  10.668  0.3064  0.0971  0.2217
 2156TIP3    H130663   4.992   5.159  10.702  0.7808  1.6818 -0.4887
 2156TIP3    H230664   4.849   5.114  10.726  1.8752 -1.8711 -0.0699
 2157TIP3   OH230665   6.730   6.833  10.975  0.1838 -0.8733 -0.0582
 2157TIP3    H130666   6.821   6.804  10.965 -0.7581 -3.4227 -2.0170
 2157TIP3    H230667   6.719   6.900  10.907  0.4593 -0.8599 -0.0933
 2158TIP3   OH230668   0.332   5.179   9.716  0.4494  0.6244 -0.1604
 2158TIP3    H130669   0.330   5.201   9.623 -3.5230  0.2043 -0.3550
 2158TIP3    H230670   0.326   5.263   9.761 -0.7522  0.7169 -0.4497
 2159TIP3   OH230671   3.459   6.791  10.089 -0.7730 -0.0633  0.4283
 2159TIP3    H130672   3.493   6.710  10.126 -2.0406 -0.6517  0.3500
 2159TIP3    H230673   3.499   6.796  10.002 -0.8436 -0.7101  0.3519
 2160TIP3   OH230674   2.770   2.967   9.658  0.0207  0.0554  0.4455
 2160TIP3    H130675   2.693   2.956   9.602  0.5975  1.0934 -0.5881
 2160TIP3    H230676   2.799   2.877   9.676  1.6482 -0.4512 -3.5401
 2161TIP3   OH230677   1.099   2.209  11.677  0.2896 -0.0237 -0.7139
 2161TIP3    H130678   1.137   2.246  11.597  1.5000  2.0852  0.7304
 2161TIP3    H230679   1.176   2.182  11.729 -0.3653  0.2373  0.4301
 2162TIP3   OH230680   2.496   4.099   9.423 -0.3696  0.1494 -0.3672
 2162TIP3    H130681   2.402   4.108   9.409 -0.1689  0.5976 -1.5385
 2162TIP3    H230682   2.530   4.067   9.339  0.8034  2.1319 -0.7060
 2163TIP3   OH230683   4.703   4.524   9.829  0.5640 -0.2432 -0.1748
 2163TIP3    H130684   4.784   4.562   9.863  0.2726 -0.0935  0.3679
 2163TIP3    H230685   4.709   4.431   9.853 -0.0326  0.0200  1.0966
 2164TIP3   OH230686   5.200   2.367   9.624  0.0490 -0.2283  0.2488
 2164TIP3    H130687   5.258   2.362   9.700 -0.6785  1.3940  0.9413
 2164TIP3    H230688   5.254   2.404   9.555  0.7512 -1.8295 -0.0949
 2165TIP3   OH230689   5.241   5.804  10.621 -0.2793 -0.2495 -0.7024
 2165TIP3    H130690   5.307   5.752  10.577  0.1136  0.2092 -0.6682
 2165TIP3    H230691   5.191   5.742  10.673  0.1197 -0.6007 -0.7366
 2166TIP3   OH230692   2.325   4.301  10.251  0.0892 -0.3495  0.4602
 2166TIP3    H130693   2.390   4.334  10.189 -1.0097  3.0039  0.8914
 2166TIP3    H230694   2.264   4.251  10.197  0.7464 -0.0058 -0.6474
 2167TIP3   OH230695   3.054   2.638  11.566  0.0346  0.0658  0.3572
 2167TIP3    H130696   2.992   2.696  11.523  0.4623 -1.0597 -1.9326
 2167TIP3    H230697   3.136   2.688  11.569 -0.1796  0.4077  0.4889
 2168TIP3   OH230698   4.206   5.251  11.616 -0.3699 -0.0901 -0.4916
 2168TIP3    H130699   4.214   5.293  11.702 -2.6815 -1.7830  0.6821
 2168TIP3    H230700   4.136   5.300  11.573 -0.8794 -0.7205 -0.3977
 2169TIP3   OH230701   6.169   6.259   9.049 -0.0477  0.1935  0.3482
 2169TIP3    H130702   6.181   6.180   8.996 -0.8651 -0.5202  1.1829
 2169TIP3    H230703   6.226   6.325   9.008  0.5778 -0.7944 -0.4141
 2170TIP3   OH230704   4.492   1.819  10.965  0.7921  0.6213  0.2845
 2170TIP3    H130705   4.531   1.865  10.891  0.7596  1.9423  1.0641
 2170TIP3    H230706   4.398   1.817  10.945  1.0819 -2.4044 -1.5065
 2171TIP3   OH230707   3.343   2.679  11.282 -0.3207  0.1289 -0.6880
 2171TIP3    H130708   3.352   2.689  11.377 -0.6784  0.6422 -0.7011
 2171TIP3    H230709   3.272   2.616  11.271 -0.3005  0.0929 -0.6115
 2172TIP3   OH230710   0.594   5.896   9.873  0.5217  0.2900 -0.2744
 2172TIP3    H130711   0.499   5.911   9.874  0.5734  0.8384 -1.8037
 2172TIP3    H230712   0.624   5.933   9.956 -0.5811  0.1648  0.2047
 2173TIP3   OH230713   3.419   4.838   9.164 -0.0330 -0.4370  0.7274
 2173TIP3    H130714   3.390   4.822   9.254  2.0989 -0.3108  1.5010
 2173TIP3    H230715   3.438   4.932   9.161 -0.7147 -0.3084 -0.0866
 2174TIP3   OH230716   2.805   4.439   7.818  0.1852  0.4283  0.8469
 2174TIP3    H130717   2.861   4.516   7.823  0.6271  0.1063  0.9348
 2174TIP3    H230718   2.718   4.474   7.799  0.8156  0.8182 -1.7708
 2175TIP3   OH230719   5.303   1.260  11.325 -0.4379 -0.1981  0.1570
 2175TIP3    H130720   5.233   1.195  11.326 -1.1529  0.5687  1.0207
 2175TIP3    H230721   5.383   1.208  11.315 -0.8024 -1.4234  2.7385
 2176TIP3   OH230722   2.762   0.907  10.656 -0.5172  0.2498 -0.4435
 2176TIP3    H130723   2.750   0.998  10.629 -0.3856  0.1313 -0.9166
 2176TIP3    H230724   2.795   0.912  10.745 -1.7748  0.6385  0.0282
 2177TIP3   OH230725   5.889   4.677   9.307 -0.0299  0.0128  0.1628
 2177TIP3    H130726   5.883   4.620   9.383  0.3042  0.2511  0.3708
 2177TIP3    H230727   5.812   4.733   9.312  0.7061  0.9724  1.1038
 2178TIP3   OH230728   4.037   1.154  11.410 -0.5299  0.4862 -0.3526
 2178TIP3    H130729   3.987   1.220  11.362 -2.4033 -0.7749 -0.2110
 2178TIP3    H230730   3.977   1.080  11.419  1.3273 -1.0644 -0.0693
 2179TIP3   OH230731   3.386   0.912  11.345 -0.2840  0.2010 -0.1732
 2179TIP3    H130732   3.385   1.008  11.350 -0.7465  0.1553  2.2524
 2179TIP3    H230733   3.459   0.886  11.401  0.6614 -0.8955 -1.8233
 2180TIP3   OH230734   1.809   4.870  10.833 -0.2349 -0.2476  0.0007
 2180TIP3    H130735   1.795   4.814  10.910  2.9061 -1.6073 -0.2715
 2180TIP3    H230736   1.823   4.957  10.869 -1.8351 -0.2360  0.6860
 2181TIP3   OH230737   2.189   0.683  10.256 -0.3017 -0.4691 -0.4689
 2181TIP3    H130738   2.229   0.649  10.336  0.6612 -1.4007 -1.3050
 2181TIP3    H230739   2.249   0.751  10.226 -0.0026 -0.9846 -1.0516
 2182TIP3   OH230740   6.694   2.580   9.262  0.1880  0.3041 -0.0703
 2182TIP3    H130741   6.675   2.493   9.227 -0.2301 -0.3379  1.6462
 2182TIP3    H230742   6.783   2.573   9.295  0.7119  1.0133 -1.2446
 2183TIP3   OH230743   4.580   1.360  11.756  0.4626 -0.8221 -0.2673
 2183TIP3    H130744   4.661   1.310  11.771  0.7175 -0.1525  0.6289
 2183TIP3    H230745   4.608   1.452  11.758 -0.3771 -0.5711  0.4423
 2184TIP3   OH230746   3.513   4.944   8.559  0.0839  0.0907  0.2466
 2184TIP3    H130747   3.573   4.933   8.633  0.0639  0.9340  0.3958
 2184TIP3    H230748   3.518   4.861   8.512  0.1960 -0.4143  1.1184
 2185TIP3   OH230749   3.615   6.589  11.859  0.1636  0.2797 -0.2414
 2185TIP3    H130750   3.633   6.602  11.766  1.6799 -0.1239 -0.0265
 2185TIP3    H230751   3.680   6.524  11.887  0.1921  0.9275  1.2591
 2186TIP3   OH230752   6.075   0.602   8.855 -0.1801  0.0559  0.7602
 2186TIP3    H130753   5.979   0.610   8.854 -0.2331 -0.5501  0.3427
 2186TIP3    H230754   6.100   0.630   8.943 -0.3493  4.2551 -0.3228
 2187TIP3   OH230755   6.497   4.162  10.659 -0.3484 -0.0290 -0.1058
 2187TIP3    H130756   6.486   4.148  10.753 -1.6753 -0.0501 -0.2430
 2187TIP3    H230757   6.465   4.251  10.644 -1.6901 -0.5803 -0.7418
 2188TIP3   OH230758   1.219   6.448   9.536 -0.4125  0.2247 -0.3630
 2188TIP3    H130759   1.264   6.403   9.607 -0.3414  3.2154  1.6185
 2188TIP3    H230760   1.288   6.486   9.483 -0.5178  0.7150 -0.1511
 2189TIP3   OH230761   4.067   4.947  10.244 -0.2706 -0.2115  0.1623
 2189TIP3    H130762   4.024   4.861  10.237 -0.1470 -0.2036 -0.8016
 2189TIP3    H230763   4.042   4.993  10.164  1.3568 -0.1300 -0.3324
 2190TIP3   OH230764   1.140   0.402   9.440  0.4567 -0.0326 -0.5997
 2190TIP3    H130765   1.123   0.337   9.371 -0.6658  0.2997 -0.6543
 2190TIP3    H230766   1.172   0.350   9.514  0.7020 -0.5079 -1.0299
 2191TIP3   OH230767   0.472   5.531   9.916  0.1107 -0.1473  0.2087
 2191TIP3    H130768   0.506   5.566   9.999 -1.2588 -1.3690  1.3468
 2191TIP3    H230769   0.466   5.607   9.859  0.2987  0.8965  1.5177
 2192TIP3   OH230770   4.201   4.868  10.882 -0.1573  0.6286 -0.4625
 2192TIP3    H130771   4.226   4.952  10.920  0.5542  0.1304  0.2001
 2192TIP3    H230772   4.142   4.829  10.947  4.6939 -2.3766  2.7929
 2193TIP3   OH230773   4.435   6.375  11.140  0.5215 -0.5008 -0.1673
 2193TIP3    H130774   4.504   6.309  11.125  0.4394 -0.1782 -2.1924
 2193TIP3    H230775   4.449   6.403  11.231  1.5997 -2.0961  0.2151
 2194TIP3   OH230776   5.340   4.191  10.605 -0.8373 -0.1227 -0.0706
 2194TIP3    H130777   5.346   4.272  10.554 -0.8092 -0.1989 -0.1879
 2194TIP3    H230778   5.393   4.128  10.556 -3.0036 -0.9796 -1.4374
 2195TIP3   OH230779   4.321   5.800   9.052 -0.7916 -0.0695 -0.6633
 2195TIP3    H130780   4.245   5.834   9.101 -1.3737  0.0503 -1.6337
 2195TIP3    H230781   4.289   5.788   8.963  0.3122 -0.1243 -1.0668
 2196TIP3   OH230782   1.497   3.272   9.994 -0.1824  0.1516  0.5108
 2196TIP3    H130783   1.508   3.184   9.961 -0.0263  0.2283  0.3589
 2196TIP3    H230784   1.407   3.274  10.029 -0.8715  0.4843 -1.1779
 2197TIP3   OH230785   1.456   5.891  10.696  0.2029  0.3225 -0.0237
 2197TIP3    H130786   1.472   5.984  10.680 -1.2245  1.1247  2.6352
 2197TIP3    H230787   1.426   5.857  10.612 -0.5494  2.5925 -0.7504
 2198TIP3   OH230788   4.174   0.562  10.150 -0.3719  0.2885  0.2216
 2198TIP3    H130789   4.244   0.587  10.211 -0.1886 -0.5823  0.3711
 2198TIP3    H230790   4.199   0.476  10.118 -0.7362  0.5202 -0.7057
 2199TIP3   OH230791   1.660   5.402  11.402 -0.3056 -0.3397 -0.1896
 2199TIP3    H130792   1.740   5.390  11.453 -1.0823 -1.4733  0.7950
 2199TIP3    H230793   1.614   5.473  11.446 -0.4968 -0.6391  0.1020
 2200TIP3   OH230794   6.516   0.268  10.848  0.0451 -0.2293  0.5539
 2200TIP3    H130795   6.604   0.230  10.840 -0.2801 -0.9896  0.5543
 2200TIP3    H230796   6.513   0.302  10.937  0.1881 -0.6104  0.7095
 2201TIP3   OH230797   5.897   4.313  11.245  0.1822  0.3516  1.2143
 2201TIP3    H130798   5.802   4.310  11.256 -0.1095 -0.2979 -1.0310
 2201TIP3    H230799   5.920   4.224  11.218  1.1762  0.9259  0.0991
 2202TIP3   OH230800   3.445   0.414  11.034 -0.5429 -0.0616 -0.2288
 2202TIP3    H130801   3.411   0.378  11.116 -0.8774 -1.2748 -0.8781
 2202TIP3    H230802   3.385   0.382  10.967  0.3024  0.0738 -1.0714
 2203TIP3   OH230803   3.896   1.106   9.453  0.4236  0.4247  0.2534
 2203TIP3    H130804   3.926   1.025   9.412 -1.6347  0.0689 -0.6767
 2203TIP3    H230805   3.801   1.103   9.445  0.0721  1.5337  2.9113
 2204TIP3   OH230806   4.721   3.120  11.631 -0.4966  0.3909 -0.1364
 2204TIP3    H130807   4.712   3.060  11.557  0.5919  3.3106 -2.8593
 2204TIP3    H230808   4.631   3.136  11.659 -0.8494 -2.0937  0.4628
 2205TIP3   OH230809   0.385   0.710  11.024  0.1372  0.2992  0.0367
 2205TIP3    H130810   0.418   0.759  10.948 -0.3273 -0.0791 -0.4130
 2205TIP3    H230811   0.390   0.618  10.997  1.4024  0.0491  1.0281
 2206TIP3   OH230812   4.283   5.207   9.887  0.2920  0.1431  0.4590
 2206TIP3    H130813   4.205   5.262   9.884  1.2582  1.5603 -1.0038
 2206TIP3    H230814   4.290   5.179   9.978 -2.8180 -1.4597  0.3224
 2207TIP3   OH230815   5.191   1.587   9.452 -0.4936 -0.1881  0.1812
 2207TIP3    H130816   5.172   1.521   9.519 -0.8219  0.0237  0.2945
 2207TIP3    H230817   5.165   1.670   9.491 -0.7010 -0.0632 -0.2120
 2208TIP3   OH230818   0.328   3.311   8.864 -0.1785 -0.0030 -0.3151
 2208TIP3    H130819   0.290   3.228   8.833 -0.6248  0.6862 -1.7137
 2208TIP3    H230820   0.404   3.324   8.807  0.6631 -0.0849  0.7632
 2209TIP3   OH230821   2.109   6.501  10.038  0.0162 -0.6417  0.3390
 2209TIP3    H130822   2.026   6.527   9.999  1.0463  0.2809 -1.3463
 2209TIP3    H230823   2.163   6.579  10.033  1.6573 -1.7867 -0.4713
 2210TIP3   OH230824   3.430   3.640  11.291  0.3753 -0.3574 -0.2135
 2210TIP3    H130825   3.444   3.732  11.310  0.2896  0.0480 -1.9141
 2210TIP3    H230826   3.334   3.630  11.291  0.3972 -0.6053  0.6187
 2211TIP3   OH230827   5.105   1.474  11.523  0.4461 -0.2095 -0.3193
 2211TIP3    H130828   5.179   1.497  11.580 -0.9790  0.0138  1.5262
 2211TIP3    H230829   5.128   1.387  11.490  1.8239  0.1230 -0.3202
 2212TIP3   OH230830   5.432   5.677  10.251  0.6564 -0.1400 -0.3923
 2212TIP3    H130831   5.349   5.724  10.250  0.7094  0.2222  2.8886
 2212TIP3    H230832   5.409   5.586  10.230 -0.4963  0.0428  0.0515
 2213TIP3   OH230833   3.877   0.238   8.765 -0.1268 -0.5176 -0.7098
 2213TIP3    H130834   3.951   0.251   8.706  0.9474  0.9928  0.8618
 2213TIP3    H230835   3.914   0.190   8.839 -0.9166 -0.4474 -0.2574
 2214TIP3   OH230836   0.786   3.965   9.628 -0.3488  0.0149  0.2325
 2214TIP3    H130837   0.691   3.978   9.620  0.0531  2.3925 -2.0019
 2214TIP3    H230838   0.821   4.053   9.639  1.7071 -0.6674 -0.4916
 2215TIP3   OH230839   3.611   3.176   9.317 -0.4807 -0.2431  0.8085
 2215TIP3    H130840   3.626   3.269   9.335 -0.5965 -0.3598  1.5451
 2215TIP3    H230841   3.691   3.133   9.347 -0.0637 -0.2887 -0.3602
 2216TIP3   OH230842   5.743   0.563  10.284  0.6014  0.1210 -0.1996
 2216TIP3    H130843   5.820   0.585  10.337  1.4614 -1.2734 -0.8067
 2216TIP3    H230844   5.695   0.501  10.338  0.7375 -0.2093 -0.4518
 2217TIP3   OH230845   5.760   2.070  11.102 -0.2224 -0.0706 -0.0868
 2217TIP3    H130846   5.795   2.032  11.183 -0.1758  0.4352  0.1327
 2217TIP3    H230847   5.833   2.067  11.041 -0.1523 -0.1306 -0.0006
 2218TIP3   OH230848   4.681   3.706  11.223 -0.0605  0.2030 -0.3307
 2218TIP3    H130849   4.730   3.727  11.302 -0.1951 -0.5378 -0.0398
 2218TIP3    H230850   4.660   3.791  11.184  0.6484  0.5471  0.0312
 2219TIP3   OH230851   0.088   0.381  10.556 -0.0830 -0.2954 -0.0373
 2219TIP3    H130852   0.046   0.316  10.612  0.1965  0.5190  1.1802
 2219TIP3    H230853   0.066   0.465  10.598  1.2368  0.2553 -0.3964
 2220TIP3   OH230854   6.567   2.909   9.332  0.1664 -0.0089  0.2835
 2220TIP3    H130855   6.638   2.928   9.394  0.9189 -1.2149 -0.1702
 2220TIP3    H230856   6.613   2.886   9.251 -0.7673 -0.2637 -0.1799
 2221TIP3   OH230857   4.095   2.695  10.862 -0.1945  0.0750 -0.0946
 2221TIP3    H130858   4.043   2.756  10.810 -0.5005  1.2837  1.5279
 2221TIP3    H230859   4.163   2.749  10.901  0.0118 -0.7779  0.7685
 2222TIP3   OH230860   2.627   1.061  10.020  0.1989  0.1363 -0.3224
 2222TIP3    H130861   2.541   1.095  10.044 -0.3490  0.4822 -2.5281
 2222TIP3    H230862   2.679   1.140  10.003  0.7126 -0.0831  0.2171
 2223TIP3   OH230863   6.016   1.448  10.853 -0.3026 -0.1569  0.2842
 2223TIP3    H130864   6.011   1.458  10.758  1.2624 -1.1834  0.0695
 2223TIP3    H230865   5.976   1.363  10.870 -0.7806  0.1212  0.5857
 2224TIP3   OH230866   4.373   5.212   8.188  0.1268 -0.4803 -0.4441
 2224TIP3    H130867   4.329   5.129   8.206  0.9662 -1.0231 -0.8088
 2224TIP3    H230868   4.337   5.241   8.104  0.7948 -1.1686 -0.9812
 2225TIP3   OH230869   0.708   6.392  11.299  0.3226  0.2245  0.0491
 2225TIP3    H130870   0.726   6.320  11.238  1.5863  0.4084  0.1718
 2225TIP3    H230871   0.667   6.350  11.375  0.2173 -0.2300 -0.2560
 2226TIP3   OH230872   4.350   2.728  11.247 -0.4334 -0.0349 -0.1281
 2226TIP3    H130873   4.274   2.670  11.248  0.5566 -1.3950 -0.8383
 2226TIP3    H230874   4.425   2.669  11.252  0.5986  1.2359 -0.1985
 2227TIP3   OH230875   4.828   5.463   9.248  0.4974 -0.4214 -0.1111
 2227TIP3    H130876   4.786   5.511   9.176 -0.1944 -0.1661  0.4435
 2227TIP3    H230877   4.815   5.371   9.225 -0.7065 -0.3555  0.2110
 2228TIP3   OH230878   0.874   3.476  10.770 -0.1416  0.0318 -0.2922
 2228TIP3    H130879   0.801   3.440  10.719 -0.4951  1.8591 -1.1372
 2228TIP3    H230880   0.952   3.450  10.721 -0.2939 -0.6928 -0.1651
 2229TIP3   OH230881   2.630   5.813   9.231 -0.1534  0.1237  0.2044
 2229TIP3    H130882   2.572   5.858   9.292  0.4802  2.8738 -1.0490
 2229TIP3    H230883   2.581   5.736   9.203 -2.1920  1.0685  0.9734
 2230TIP3   OH230884   0.676   0.099   9.858 -1.0762  0.3164 -0.5842
 2230TIP3    H130885   0.637   0.159   9.923  1.0881  1.6264 -0.3816
 2230TIP3    H230886   0.658   0.140   9.774  1.4417  2.0931 -0.3938
 2231TIP3   OH230887   5.039   2.269  11.430 -0.4840  0.1878  0.1525
 2231TIP3    H130888   5.129   2.277  11.398 -0.0602  0.3503  1.3488
 2231TIP3    H230889   4.985   2.292  11.354  0.4819  0.5357 -0.4542
 2232TIP3   OH230890   1.236   6.161   9.947 -0.3920 -0.1883 -0.3631
 2232TIP3    H130891   1.172   6.197   9.885 -0.9730 -1.0050 -0.2533
 2232TIP3    H230892   1.240   6.226  10.017 -0.9145 -0.0062 -0.4939
 2233TIP3   OH230893   4.998   2.275  10.825  0.3091  0.0829  0.1778
 2233TIP3    H130894   4.950   2.358  10.817 -2.0219 -1.3234 -2.4317
 2233TIP3    H230895   5.072   2.284  10.765  0.2140  0.3541  0.1017
 2234TIP3   OH230896   0.230   3.921   7.949 -0.2828  0.2229 -0.1644
 2234TIP3    H130897   0.266   3.917   7.860 -0.2311  2.1548 -0.2742
 2234TIP3    H230898   0.140   3.892   7.940 -0.6217  1.4781 -1.0886
 2235TIP3   OH230899   5.699   3.917  10.651 -0.5360 -0.4145  0.2909
 2235TIP3    H130900   5.629   3.872  10.699 -0.1756 -0.9376  0.3387
 2235TIP3    H230901   5.658   3.945  10.570 -0.2104 -2.9924 -0.8731
 2236TIP3   OH230902   5.896   1.650   8.530  0.1717  0.2395 -0.1313
 2236TIP3    H130903   5.868   1.574   8.582  0.2327 -0.5553 -1.2173
 2236TIP3    H230904   5.827   1.715   8.543 -1.6920 -1.2557 -1.8652
 2237TIP3   OH230905   5.397   6.402   9.659  0.4287 -0.0417  0.3261
 2237TIP3    H130906   5.302   6.411   9.650  0.0968 -0.2501  2.8834
 2237TIP3    H230907   5.422   6.345   9.586 -1.1929  0.9768 -1.1151
 2238TIP3   OH230908   4.025   4.020  10.044 -0.1578  0.1644 -0.1893
 2238TIP3    H130909   4.029   4.115  10.037 -1.3334  0.3605  1.2668
 2238TIP3    H230910   3.948   4.003  10.098 -0.0503 -1.6236 -0.5407
 2239TIP3   OH230911   3.113   2.353   9.645  0.0401 -0.5892  1.1365
 2239TIP3    H130912   3.077   2.426   9.695  0.1594  0.7951 -0.6993
 2239TIP3    H230913   3.037   2.300   9.622 -0.6397  1.0489 -0.7093
 2240TIP3   OH230914   1.101   3.162  11.173  0.1529  0.2702  0.2779
 2240TIP3    H130915   1.018   3.181  11.217 -0.1006  0.4122 -0.2506
 2240TIP3    H230916   1.113   3.235  11.113  1.4819  1.0958  1.4808
 2241TIP3   OH230917   5.404   4.113   9.424 -0.5836 -0.4343  0.1857
 2241TIP3    H130918   5.490   4.071   9.428 -1.3372 -1.9729  1.2634
 2241TIP3    H230919   5.354   4.057   9.364 -0.9345  0.2687 -0.1788
 2242TIP3   OH230920   6.796   4.904  11.260  0.0878 -0.1526  0.2119
 2242TIP3    H130921   6.825   4.963  11.330  0.7385  0.9773 -0.9507
 2242TIP3    H230922   6.707   4.881  11.283 -1.6925  4.3253 -1.0361
 2243TIP3   OH230923   6.477   1.727   9.861 -0.0228 -0.1066  0.1135
 2243TIP3    H130924   6.407   1.722   9.796 -0.4752  1.0402  0.4867
 2243TIP3    H230925   6.555   1.694   9.816 -0.8210 -1.5421 -0.2666
 2244TIP3   OH230926   0.001   5.212   9.378 -0.3495 -0.0177  0.2648
 2244TIP3    H130927  -0.008   5.295   9.332 -0.2140  0.7692  1.6160
 2244TIP3    H230928   0.006   5.236   9.470 -0.7201 -1.5580  0.7134
 2245TIP3   OH230929   5.157   2.037   9.770 -0.9965  0.0912  0.1685
 2245TIP3    H130930   5.183   1.989   9.849  1.1302  1.4350  0.3478
 2245TIP3    H230931   5.087   2.096   9.800 -0.5256  0.2712  0.9465
 2246TIP3   OH230932   2.270   6.431  10.274  0.8287 -0.5150 -0.0493
 2246TIP3    H130933   2.208   6.465  10.210 -1.9304 -2.5563  1.3434
 2246TIP3    H230934   2.291   6.506  10.329 -1.4822  0.0014  0.2160
 2247TIP3   OH230935   4.370   5.971   9.624 -0.0555 -0.2676 -0.2300
 2247TIP3    H130936   4.309   6.030   9.669  1.3854  0.6670  0.5686
 2247TIP3    H230937   4.455   6.015   9.630  0.4094 -0.6457 -2.9223
 2248TIP3   OH230938   4.680   2.931  10.908 -0.0755  0.3316 -0.3851
 2248TIP3    H130939   4.697   3.003  10.970  1.7281  0.3141 -0.7995
 2248TIP3    H230940   4.603   2.960  10.858 -1.5363  0.3856  1.7523
 2249TIP3   OH230941   4.977   0.429  10.303 -0.0154  0.1157 -0.2612
 2249TIP3    H130942   4.985   0.471  10.389  3.5906  0.9128 -0.8129
 2249TIP3    H230943   4.975   0.502  10.241  0.3768 -0.4570 -0.9677
 2250TIP3   OH230944   2.766   6.013  10.614  0.1408  0.1477  0.5029
 2250TIP3    H130945   2.691   5.990  10.560 -0.4529  0.2451  1.2618
 2250TIP3    H230946   2.785   6.104  10.591  0.8402 -0.2702 -0.6131
 2251TIP3   OH230947   5.883   0.252  11.852 -0.5376 -0.0782 -0.4164
 2251TIP3    H130948   5.974   0.281  11.844 -0.7518  0.8607  0.3145
 2251TIP3    H230949   5.889   0.166  11.893  0.0566 -0.4096 -1.1778
 2252TIP3   OH230950   3.481   4.689   8.384 -0.5602 -0.2200  0.2947
 2252TIP3    H130951   3.506   4.637   8.461  0.7695 -1.0829 -0.6810
 2252TIP3    H230952   3.556   4.681   8.325 -1.0851  1.3765 -0.6268
 2253TIP3   OH230953   2.044   3.912   9.616 -0.1134  0.0037 -0.1214
 2253TIP3    H130954   2.092   3.835   9.645 -0.2303 -0.2876 -0.7008
 2253TIP3    H230955   2.002   3.886   9.534 -0.7283  0.4554  0.0377
 2254TIP3   OH230956   6.274   2.097  11.268 -0.1116 -0.3573 -0.0012
 2254TIP3    H130957   6.201   2.078  11.326 -0.1117  0.0128  0.1207
 2254TIP3    H230958   6.236   2.093  11.180 -0.1003 -0.9606  0.0213
 2255TIP3   OH230959   3.715   4.340  10.627  0.0681  0.0599  0.3369
 2255TIP3    H130960   3.743   4.287  10.701  1.1660 -0.8981 -0.7370
 2255TIP3    H230961   3.734   4.430  10.653  2.9532 -0.4292  0.2385
 2256TIP3   OH230962   2.735   1.305   9.947 -0.2020  0.0967 -0.5132
 2256TIP3    H130963   2.717   1.398   9.957  1.3293  0.5881 -1.8085
 2256TIP3    H230964   2.808   1.288  10.007 -2.2229 -0.9554  1.7844
 2257TIP3   OH230965   4.301   6.741   9.925 -0.2446  0.2606 -0.8681
 2257TIP3    H130966   4.302   6.678   9.997 -0.0083 -0.9899 -1.9492
 2257TIP3    H230967   4.391   6.742   9.892 -0.0121  1.8624 -0.2972
 2258TIP3   OH230968   1.452   1.827   9.440 -0.4026 -0.2245  0.0695
 2258TIP3    H130969   1.390   1.842   9.369 -0.1337  0.9263  0.0582
 2258TIP3    H230970   1.538   1.829   9.398 -0.1645  1.5937  0.5432
 2259TIP3   OH230971   4.151   6.096   8.991 -0.4266 -0.0618  0.2423
 2259TIP3    H130972   4.124   6.026   9.050 -0.3993 -0.7353 -0.5162
 2259TIP3    H230973   4.214   6.147   9.042 -0.2676 -0.7297  0.7374
 2260TIP3   OH230974   4.771   1.249  10.082  0.2583  0.3391  0.3566
 2260TIP3    H130975   4.833   1.321  10.087 -1.5474  2.1598 -1.3985
 2260TIP3    H230976   4.687   1.291  10.061 -1.3551 -2.0873  1.4505
 2261TIP3   OH230977   6.750   2.320  10.234 -0.3212 -0.3899  0.0706
 2261TIP3    H130978   6.798   2.396  10.202 -0.9199  0.1226  0.3650
 2261TIP3    H230979   6.661   2.351  10.246 -0.7066 -1.2819 -0.3221
 2262TIP3   OH230980   3.471   3.015   9.160  0.3843 -0.3954  0.0096
 2262TIP3    H130981   3.540   3.074   9.192  1.4433 -2.0442  0.8980
 2262TIP3    H230982   3.437   2.972   9.238  0.8857 -2.2514 -0.7401
 2263TIP3   OH230983   3.608   4.512   9.933  0.3678  0.7209  0.4169
 2263TIP3    H130984   3.696   4.510   9.970  0.7872 -0.0890 -0.5827
 2263TIP3    H230985   3.619   4.483   9.843 -1.0890 -0.5780  0.6136
 2264TIP3   OH230986   3.019   1.915  11.571  0.0714  0.7312 -0.6327
 2264TIP3    H130987   3.026   1.854  11.498 -2.1330  0.3627 -0.6006
 2264TIP3    H230988   2.928   1.907  11.600 -0.1384  3.6049 -0.2311
 2265TIP3   OH230989   0.840   2.338  11.475  0.5098  0.2112 -0.2168
 2265TIP3    H130990   0.815   2.325  11.566 -0.5245 -0.9524 -0.6321
 2265TIP3    H230991   0.816   2.428  11.456 -1.4947 -0.2159  0.0341
 2266TIP3   OH230992   0.508   4.161   8.548  0.1083 -0.1794  0.1048
 2266TIP3    H130993   0.426   4.207   8.567 -0.0896 -0.4937  0.0189
 2266TIP3    H230994   0.510   4.090   8.613 -0.7191 -1.4536 -1.1932
 2267TIP3   OH230995   2.206   3.141  10.355  0.3831 -0.6249 -0.3211
 2267TIP3    H130996   2.222   3.133  10.449  1.6635 -0.8231 -0.5378
 2267TIP3    H230997   2.289   3.171  10.319  0.4348 -2.1537 -1.5916
 2268TIP3   OH230998   5.319   4.408   8.708 -0.3830  0.5049 -0.1896
 2268TIP3    H130999   5.249   4.411   8.773 -0.1187  1.4648  0.0693
 2268TIP3    H231000   5.303   4.484   8.651  0.9319  1.2938  0.4164
 2269TIP3   OH231001   6.048   1.208  11.850 -0.1694 -0.4034  0.6299
 2269TIP3    H131002   6.097   1.127  11.868  0.4593 -0.3601 -0.7497
 2269TIP3    H231003   6.116   1.272  11.828 -0.6010  0.7239  2.3951
 2270TIP3   OH231004   4.148   6.539   9.750  0.5721 -0.2378 -0.2988
 2270TIP3    H131005   4.063   6.502   9.724  0.2198  0.2993  0.0513
 2270TIP3    H231006   4.174   6.487   9.826 -0.1439  0.4947  0.4782
 2271TIP3   OH231007   5.447   1.716   9.317 -0.6139  0.0974  0.2283
 2271TIP3    H131008   5.399   1.700   9.236 -2.1800 -0.9650  1.3219
 2271TIP3    H231009   5.380   1.722   9.385  0.6768  0.6390  1.5131
 2272TIP3   OH231010   0.864   6.123  10.008  0.5841 -0.3514  0.7630
 2272TIP3    H131011   0.895   6.039   9.972 -1.3112 -0.2815 -1.2440
 2272TIP3    H231012   0.916   6.189   9.962  0.0278 -0.3571  0.1064
 2273TIP3   OH231013   3.874   6.383  11.646 -0.5470  0.2960 -0.8720
 2273TIP3    H131014   3.946   6.345  11.596  0.0063  0.8792 -0.5370
 2273TIP3    H231015   3.811   6.312  11.656  0.3998 -0.5047 -0.3820
 2274TIP3   OH231016   4.058   4.889  11.758  0.2452  0.0098 -0.1780
 2274TIP3    H131017   4.029   4.806  11.797 -1.3191 -0.2017 -1.6453
 2274TIP3    H231018   3.992   4.952  11.786  0.7009  0.4668 -0.1375
 2275TIP3   OH231019   5.524   5.215   8.735 -0.2294  0.0555 -0.2996
 2275TIP3    H131020   5.620   5.214   8.743 -0.3027  1.7701  1.8967
 2275TIP3    H231021   5.493   5.213   8.826 -2.2132  1.1825 -0.9045
 2276TIP3   OH231022   1.531   2.416  11.573 -0.0535 -0.9734 -0.0036
 2276TIP3    H131023   1.597   2.370  11.523  1.1058 -0.2838  0.8363
 2276TIP3    H231024   1.579   2.487  11.617 -1.3985 -0.2686  0.3921
 2277TIP3   OH231025   6.307   1.431   9.030  0.0554  0.0166  0.5656
 2277TIP3    H131026   6.338   1.488   9.100 -1.9549  1.8691  0.0541
 2277TIP3    H231027   6.310   1.486   8.951  1.2767 -1.6982 -0.6648
 2278TIP3   OH231028   6.063   4.467  10.682  0.2447 -0.0761  0.1893
 2278TIP3    H131029   6.014   4.413  10.620  0.0550 -0.5516  0.7359
 2278TIP3    H231030   6.009   4.545  10.695  0.1849 -0.0726 -0.0806
 2279TIP3   OH231031   5.933   4.520   9.980  0.1803  0.0393 -0.0783
 2279TIP3    H131032   5.902   4.597  10.026  0.8432 -0.1155  0.6441
 2279TIP3    H231033   6.027   4.518   9.997  0.1590 -0.9735 -0.0150
 2280TIP3   OH231034   6.753   5.848  11.496 -0.2665 -0.3541 -0.0689
 2280TIP3    H131035   6.766   5.835  11.590  0.5502  2.7913  0.3800
 2280TIP3    H231036   6.841   5.841  11.459 -0.6397 -2.0000 -0.7175
 2281TIP3   OH231037   1.172   2.649  11.843 -0.3423  0.0478  0.2681
 2281TIP3    H131038   1.084   2.684  11.829 -0.7219 -1.4941 -1.6398
 2281TIP3    H231039   1.190   2.666  11.935 -3.0287 -0.3930  0.9719
 2282TIP3   OH231040   2.632   1.850  10.369 -0.2683  0.5816 -0.3820
 2282TIP3    H131041   2.560   1.832  10.430  1.8057  0.1408  2.1424
 2282TIP3    H231042   2.621   1.941  10.344 -1.0215  0.8877  0.9639
 2283TIP3   OH231043   6.582   3.938   9.916  0.1083  0.0605 -0.4216
 2283TIP3    H131044   6.493   3.968   9.897 -0.4207 -0.0935  1.5868
 2283TIP3    H231045   6.600   3.969  10.005  1.3275 -1.5207 -0.0530
 2284TIP3   OH231046   5.707   1.747  10.257  0.2033 -0.2100  0.0817
 2284TIP3    H131047   5.623   1.706  10.280  0.1029 -0.4849 -0.7536
 2284TIP3    H231048   5.754   1.679  10.209  2.1712 -1.1808  3.0465
 2285TIP3   OH231049   1.362   3.822   8.663 -0.0992 -0.2095  0.3899
 2285TIP3    H131050   1.302   3.869   8.606 -1.9741 -1.4524  1.2486
 2285TIP3    H231051   1.446   3.868   8.653 -0.8230  0.7308 -1.8932
 2286TIP3   OH231052   3.560   0.242   9.298  0.3961  0.1553  0.4801
 2286TIP3    H131053   3.506   0.314   9.264  0.8283 -0.5171 -1.7985
 2286TIP3    H231054   3.650   0.271   9.282  0.5858 -1.5597 -2.2590
 2287TIP3   OH231055   2.891   5.777   9.582 -0.2243  0.0690  0.1327
 2287TIP3    H131056   2.889   5.684   9.605 -0.3058  0.1789  0.5712
 2287TIP3    H231057   2.828   5.818   9.640 -1.9478  0.0594 -1.6244
 2288TIP3   OH231058   6.387   3.393   9.859 -0.4244  0.1914 -0.3783
 2288TIP3    H131059   6.444   3.448   9.806  1.1798 -2.3808 -1.5436
 2288TIP3    H231060   6.299   3.416   9.831  0.0670  2.9291  0.0743
 2289TIP3   OH231061   6.069   5.917   8.368  0.5956 -0.0434 -0.3715
 2289TIP3    H131062   6.102   5.993   8.417  1.3712  0.8945 -2.2534
 2289TIP3    H231063   5.981   5.942   8.341  0.3996 -0.3125  0.0087
 2290TIP3   OH231064   2.296   1.824   9.330  0.4249 -0.3988 -0.3679
 2290TIP3    H131065   2.298   1.920   9.328  0.1158 -0.3919 -1.7290
 2290TIP3    H231066   2.290   1.801   9.422 -1.0234  0.9375 -0.0905
 2291TIP3   OH231067   3.766   6.798   9.681  0.0528 -0.0501 -0.6577
 2291TIP3    H131068   3.824   6.795   9.757  1.0003 -1.9323 -1.3962
 2291TIP3    H231069   3.785   6.882   9.640  0.6288  0.3283  0.3468
 2292TIP3   OH231070   4.863   2.603   8.901 -0.4718 -0.4363 -0.0238
 2292TIP3    H131071   4.925   2.569   8.837  1.4462 -1.5517  2.2782
 2292TIP3    H231072   4.851   2.695   8.877  1.6972 -0.3132 -0.8158
 2293TIP3   OH231073   1.859   3.723  10.447 -0.5168 -0.0964  0.2557
 2293TIP3    H131074   1.923   3.670  10.400 -0.2147  1.2858 -1.0074
 2293TIP3    H231075   1.822   3.780  10.379 -1.6142  0.5197  1.3391
 2294TIP3   OH231076   4.337   3.030   8.233 -0.3252  0.7334 -0.1543
 2294TIP3    H131077   4.305   2.947   8.197  0.8505  0.1066  0.1975
 2294TIP3    H231078   4.432   3.017   8.241 -0.1972  1.9367  0.3736
 2295TIP3   OH231079   1.230   6.361   9.176  0.1311 -0.0365  0.7132
 2295TIP3    H131080   1.198   6.407   9.098 -0.8984 -0.5163  0.8401
 2295TIP3    H231081   1.272   6.282   9.142 -0.2247 -0.1934  0.6351
 2296TIP3   OH231082   5.428   3.473   8.785 -0.0580 -0.1174  0.5048
 2296TIP3    H131083   5.421   3.415   8.861 -1.9662  1.2006  1.4188
 2296TIP3    H231084   5.385   3.424   8.714 -1.4549  0.0472  1.2051
 2297TIP3   OH231085   1.825   5.972  10.962  0.4920  0.3486 -0.1896
 2297TIP3    H131086   1.861   5.982  10.873  0.4960 -0.9354 -0.3472
 2297TIP3    H231087   1.831   5.879  10.980 -0.1627  0.5013  0.9016
 2298TIP3   OH231088   5.435   3.685  11.376  0.1404 -0.1325  0.0320
 2298TIP3    H131089   5.385   3.604  11.389 -0.7903  0.2701 -0.8410
 2298TIP3    H231090   5.458   3.684  11.283  0.7439  0.2626  0.1717
 2299TIP3   OH231091   2.773   0.153   9.468  0.2000  0.3422  0.0041
 2299TIP3    H131092   2.802   0.188   9.384 -0.0313  1.7857  0.4951
 2299TIP3    H231093   2.838   0.185   9.531  0.8475 -1.4106  0.2966
 2300TIP3   OH231094   1.766   2.162  10.251 -0.2338 -0.2837  0.2355
 2300TIP3    H131095   1.703   2.226  10.217 -2.0584 -1.0450  1.9731
 2300TIP3    H231096   1.840   2.167  10.191 -1.7812  0.9468 -1.7040
 2301TIP3   OH231097   6.011   3.868   9.145  0.1555  0.3102 -0.3908
 2301TIP3    H131098   5.916   3.857   9.138 -0.3195  2.7204  1.0759
 2301TIP3    H231099   6.041   3.789   9.189 -1.3688  0.0634  0.2793
 2302TIP3   OH231100   4.469   3.016   9.527 -0.4873  0.2185  0.1967
 2302TIP3    H131101   4.521   2.937   9.539 -2.1864 -0.9286  0.3245
 2302TIP3    H231102   4.534   3.087   9.525  1.0855 -1.1592 -0.0129
 2303TIP3   OH231103   1.593   5.427  10.882 -0.2400  0.0405 -0.0734
 2303TIP3    H131104   1.594   5.518  10.853  0.2670  0.4497  1.1598
 2303TIP3    H231105   1.628   5.429  10.971  2.0926 -1.6421 -0.8294
 2304TIP3   OH231106   1.706   4.034  10.966  0.4305  0.1671 -0.3763
 2304TIP3    H131107   1.731   4.125  10.982  0.3418  0.3045 -0.9723
 2304TIP3    H231108   1.645   4.013  11.036  1.4519  0.1423  0.5323
 2305TIP3   OH231109   6.157   3.928  10.668 -0.9599  0.7016  0.1148
 2305TIP3    H131110   6.133   4.003  10.722  0.6883  1.4667 -0.1498
 2305TIP3    H231111   6.213   3.964  10.600 -0.8809 -0.6454 -0.5775
 2306TIP3   OH231112   3.412   1.639   8.514 -0.3991 -0.6777  0.1030
 2306TIP3    H131113   3.347   1.686   8.565  1.2004 -0.2632  1.8722
 2306TIP3    H231114   3.480   1.704   8.494 -0.3241 -1.1737 -1.3807
 2307TIP3   OH231115   2.824   1.853   8.939 -0.7448  0.1109  0.0633
 2307TIP3    H131116   2.894   1.797   8.906 -0.6700  0.5439 -0.5442
 2307TIP3    H231117   2.826   1.930   8.881 -2.1367 -0.1564 -0.3756
 2308TIP3   OH231118   0.253   5.434   9.181  0.2922 -0.1284 -0.3815
 2308TIP3    H131119   0.161   5.422   9.205  0.7811 -0.2910  1.6194
 2308TIP3    H231120   0.264   5.529   9.175 -0.0527 -0.1159 -0.9103
 2309TIP3   OH231121   1.776   1.126  10.656  0.9852  0.1650 -0.4911
 2309TIP3    H131122   1.737   1.151  10.572  1.7751  1.3034 -0.5450
 2309TIP3    H231123   1.835   1.054  10.635 -1.5782 -2.1589 -0.2879
 2310TIP3   OH231124   5.536   1.508  10.992  0.7140  0.1552  0.0149
 2310TIP3    H131125   5.496   1.519  11.078 -0.2699  1.7254 -0.6035
 2310TIP3    H231126   5.618   1.558  10.997  0.4401  0.6176 -0.0961
 2311TIP3   OH231127   4.285   1.877  11.389 -0.4811  0.3511  0.0046
 2311TIP3    H131128   4.221   1.885  11.318  0.2513 -0.3460 -0.7580
 2311TIP3    H231129   4.361   1.837  11.348 -0.3181 -0.8013  1.3648
 2312TIP3   OH231130   4.925   4.180   8.790  0.4014 -0.0297 -0.1044
 2312TIP3    H131131   4.915   4.173   8.695 -1.2104  0.5688  0.0088
 2312TIP3    H231132   4.918   4.089   8.821 -0.2800 -0.1006 -0.4490
 2313TIP3   OH231133   2.162   0.834  10.776  0.0208 -0.7828  0.6358
 2313TIP3    H131134   2.138   0.743  10.758  1.0421 -0.9357 -0.0676
 2313TIP3    H231135   2.224   0.856  10.707  0.6319  0.1002  1.4414
 2314TIP3   OH231136   6.234   2.777  10.523 -0.1519  0.7857 -0.1691
 2314TIP3    H131137   6.143   2.789  10.551 -0.2601 -0.4434  0.0615
 2314TIP3    H231138   6.228   2.747  10.433  0.0724  1.4000 -0.3986
 2315TIP3   OH231139   2.571   1.652   9.641  0.1463 -0.5324  0.0990
 2315TIP3    H131140   2.648   1.700   9.609 -0.5353  1.3843  1.2291
 2315TIP3    H231141   2.498   1.689   9.592 -0.5042  0.2412  1.6291
 2316TIP3   OH231142   3.655   3.982   9.214  0.0867 -0.0645 -0.2949
 2316TIP3    H131143   3.729   4.006   9.159  0.2258  0.8492  0.2496
 2316TIP3    H231144   3.589   3.950   9.154  0.5870  0.0074 -0.8893
 2317TIP3   OH231145   5.705   5.505   9.957 -0.4347 -0.5628 -0.0761
 2317TIP3    H131146   5.741   5.508  10.046  1.6263 -1.4609 -0.8091
 2317TIP3    H231147   5.615   5.535   9.966 -0.2601 -0.5906  2.3033
 2318TIP3   OH231148   0.401   0.715  11.292  0.5917  0.2265  0.0252
 2318TIP3    H131149   0.389   0.792  11.347  0.2464 -0.3205  0.7409
 2318TIP3    H231150   0.371   0.742  11.205 -0.1834  0.7027  0.4239
 2319TIP3   OH231151   3.729   4.040  10.483  0.8221 -0.2962 -0.2917
 2319TIP3    H131152   3.787   4.115  10.497  0.6913 -0.2345 -0.0716
 2319TIP3    H231153   3.643   4.070  10.514  0.7255 -0.4694 -0.3898
 2320TIP3   OH231154   3.637   5.734   9.410 -0.3217 -0.0862 -0.2806
 2320TIP3    H131155   3.625   5.641   9.427 -0.5521  0.0130  0.1280
 2320TIP3    H231156   3.550   5.772   9.424 -0.1872  0.2170 -0.2605
 2321TIP3   OH231157   3.638   4.438   9.642  0.0952 -0.1684  0.0313
 2321TIP3    H131158   3.606   4.498   9.575 -0.9459  0.4343  1.0441
 2321TIP3    H231159   3.656   4.357   9.594 -2.7272 -0.4706 -0.6919
 2322TIP3   OH231160   2.372   5.815  10.593 -0.1025  0.2375 -0.0682
 2322TIP3    H131161   2.383   5.782  10.503  2.9483 -1.1787  0.6845
 2322TIP3    H231162   2.403   5.905  10.589 -1.1998  0.6052 -0.6560
 2323TIP3   OH231163   1.223   2.696  10.767  0.2882  0.0410  0.0632
 2323TIP3    H131164   1.267   2.770  10.725  0.5874  1.0476  2.0045
 2323TIP3    H231165   1.286   2.625  10.762  1.5998  1.0269  1.4295
 2324TIP3   OH231166   5.850   2.781  11.299 -0.1984 -0.2716 -0.2776
 2324TIP3    H131167   5.825   2.871  11.280  0.0417 -0.4956 -1.7803
 2324TIP3    H231168   5.931   2.789  11.349 -0.5363  0.3428  0.1948
 2325TIP3   OH231169   1.032   1.696   9.780 -0.2928 -0.1569 -0.2014
 2325TIP3    H131170   1.080   1.651   9.850  0.2126  2.6863  1.4350
 2325TIP3    H231171   0.940   1.691   9.807 -0.2528 -0.3138 -0.0904
 2326TIP3   OH231172   2.747   2.476  11.304  0.1148 -0.1093 -0.6896
 2326TIP3    H131173   2.795   2.505  11.382  0.4787 -0.6480 -0.7146
 2326TIP3    H231174   2.766   2.543  11.238  0.6326 -0.1881 -0.6257
 2327TIP3   OH231175   1.259   1.788  10.436 -0.1307  0.1013  0.0783
 2327TIP3    H131176   1.314   1.794  10.514 -1.9956  1.7483  1.3600
 2327TIP3    H231177   1.172   1.766  10.469 -1.2583  2.0769 -1.3338
 2328TIP3   OH231178   3.230   4.193   9.255  0.2082 -0.3586  0.1378
 2328TIP3    H131179   3.231   4.178   9.160 -2.6392  1.1037 -0.2166
 2328TIP3    H231180   3.153   4.146   9.286  1.1944 -0.9422  1.7923
 2329TIP3   OH231181   5.765   5.666  11.844  0.1610  0.0783 -0.5496
 2329TIP3    H131182   5.734   5.598  11.785  1.2622 -0.8236 -0.1260
 2329TIP3    H231183   5.690   5.723  11.857 -0.7287 -0.9486 -1.0775
 2330TIP3   OH231184   6.542   0.702   8.713 -0.4814 -0.0743  0.0935
 2330TIP3    H131185   6.513   0.787   8.681  0.8971  0.3157 -0.1629
 2330TIP3    H231186   6.575   0.656   8.636  1.2432  0.1990  0.6396
 2331TIP3   OH231187   1.965   6.659  11.029  0.2573  0.5687  0.1768
 2331TIP3    H131188   2.008   6.744  11.039 -1.0295  1.1082  1.5205
 2331TIP3    H231189   1.882   6.680  10.985 -0.3399  0.1115  1.0641
 2332TIP3   OH231190   0.839   4.956  10.722 -0.0620  0.5277  0.3895
 2332TIP3    H131191   0.884   4.917  10.647 -2.2622 -0.6499 -0.4270
 2332TIP3    H231192   0.752   4.976  10.689  0.1121  3.7389  1.5759
 2333TIP3   OH231193   1.976   3.403  11.867  0.7559 -0.6845 -0.2270
 2333TIP3    H131194   2.018   3.463  11.928  0.5408  0.3261 -1.0283
 2333TIP3    H231195   1.883   3.422  11.875  0.7889  0.2867 -1.6384
 2334TIP3   OH231196   1.517   1.348  10.387  0.3342  0.0146 -0.1864
 2334TIP3    H131197   1.578   1.393  10.445  0.0953 -1.2901  1.1446
 2334TIP3    H231198   1.445   1.410  10.375  1.1156  0.8990 -0.3683
 2335TIP3   OH231199   5.740   6.650  11.382  0.1290 -0.2665  0.3512
 2335TIP3    H131200   5.800   6.699  11.326  0.1721 -0.3226  0.3475
 2335TIP3    H231201   5.656   6.696  11.372  0.6558  1.1695  2.0725
 2336TIP3   OH231202   5.593   3.782   8.605  0.3191 -0.8478 -0.2803
 2336TIP3    H131203   5.515   3.731   8.586 -0.3343  0.7126 -2.2212
 2336TIP3    H231204   5.649   3.769   8.528  1.6212 -1.2628  0.6967
 2337TIP3   OH231205   3.370   3.245  11.545  0.0955  0.2813  0.0681
 2337TIP3    H131206   3.307   3.310  11.513  0.2092  0.9670  1.1884
 2337TIP3    H231207   3.414   3.213  11.466 -0.5384  0.9676 -0.5730
 2338TIP3   OH231208   2.629   2.583  10.589  0.0132  0.0393 -0.0669
 2338TIP3    H131209   2.615   2.659  10.533  1.4241  0.9078  0.7099
 2338TIP3    H231210   2.614   2.507  10.531 -2.8733  0.8287 -0.4954
 2339TIP3   OH231211   5.851   0.786  11.473  0.2173 -0.1556  0.7131
 2339TIP3    H131212   5.819   0.699  11.495  0.4495 -0.2366  0.7391
 2339TIP3    H231213   5.790   0.846  11.516 -0.9232 -0.2824 -0.6766
 2340TIP3   OH231214   1.376   5.346   8.694  0.0976  0.3520  0.3877
 2340TIP3    H131215   1.337   5.277   8.640 -0.7860  0.7557  0.4861
 2340TIP3    H231216   1.465   5.316   8.712  0.4811  0.2677 -1.4113
 2341TIP3   OH231217   4.396   4.578   9.028 -0.6931 -0.3856  0.1413
 2341TIP3    H131218   4.422   4.640   9.096  2.4183 -0.4491 -0.7988
 2341TIP3    H231219   4.362   4.632   8.957  1.3069  0.2829 -0.3789
 2342TIP3   OH231220   0.691   3.002  11.545  0.0377 -0.2929 -0.1602
 2342TIP3    H131221   0.718   3.041  11.629 -1.2591  1.7424 -0.6331
 2342TIP3    H231222   0.623   2.939  11.569  1.3609 -1.5248  0.5075
 2343TIP3   OH231223   4.126   5.498   9.981 -0.3060  0.4915 -0.2904
 2343TIP3    H131224   4.188   5.549   9.929  1.1526 -1.0459 -0.1201
 2343TIP3    H231225   4.166   5.493  10.068 -1.1178  0.2273  0.0811
 2344TIP3   OH231226   5.481   1.050   9.869  0.5198  0.4930  1.1360
 2344TIP3    H131227   5.539   1.011   9.935  0.9332 -0.3879  0.2886
 2344TIP3    H231228   5.472   0.981   9.802  0.3415  1.4601  0.1386
 2345TIP3   OH231229   1.914   3.144   9.169  0.1800  0.2256  0.0196
 2345TIP3    H131230   1.873   3.162   9.085 -0.4981  1.4471  0.5946
 2345TIP3    H231231   1.841   3.126   9.228  0.5377  1.0660  0.7398
 2346TIP3   OH231232   4.570   2.615  11.102 -0.4734  0.2486  0.5760
 2346TIP3    H131233   4.568   2.582  11.012 -2.5156  0.0846  0.6254
 2346TIP3    H231234   4.583   2.537  11.155 -0.6400  0.1418  0.4659
 2347TIP3   OH231235   5.985   3.209   8.198 -0.3396 -0.4408 -0.1247
 2347TIP3    H131236   6.041   3.187   8.272 -0.9776  0.5183  0.6709
 2347TIP3    H231237   5.961   3.124   8.159  0.3458 -0.9301  0.5001
 2348TIP3   OH231238   5.983   5.301   8.921 -0.2798 -0.8425 -0.0767
 2348TIP3    H131239   6.014   5.269   9.006 -1.6879  1.0385  1.2178
 2348TIP3    H231240   6.062   5.307   8.867  0.5080 -3.0631  0.7053
 2349TIP3   OH231241   6.681   5.106  11.124 -0.8706 -0.4527  0.0609
 2349TIP3    H131242   6.741   5.036  11.150  0.1209 -0.0990 -1.1385
 2349TIP3    H231243   6.707   5.181  11.177 -1.7160 -0.8751  1.1082
 2350TIP3   OH231244   0.630   2.019  11.650 -0.2540  0.2749 -0.0564
 2350TIP3    H131245   0.723   1.999  11.640 -0.2200  0.8561 -0.9409
 2350TIP3    H231246   0.596   1.947  11.704  0.7902  0.2997  0.6684
 2351TIP3   OH231247   4.973   1.453  10.102  0.5168  0.4632  0.5635
 2351TIP3    H131248   4.984   1.534  10.151 -3.0156  1.1673  0.4330
 2351TIP3    H231249   5.001   1.475  10.013  1.4478  0.9081  0.9536
 2352TIP3   OH231250   0.089   3.294  10.214  0.4760 -0.4547 -0.6271
 2352TIP3    H131251   0.149   3.270  10.144  0.9969  1.1298 -0.7648
 2352TIP3    H231252   0.134   3.268  10.294  0.8125 -0.3745 -0.7893
 2353TIP3   OH231253   3.824   3.885  10.798 -0.2933 -0.0840 -0.3960
 2353TIP3    H131254   3.900   3.832  10.824  1.1667  0.7673 -2.5657
 2353TIP3    H231255   3.809   3.861  10.706 -1.5100  1.0906 -0.5295
 2354TIP3   OH231256   1.689   6.754   9.956 -0.4561  0.2068  0.1940
 2354TIP3    H131257   1.706   6.824  10.018 -0.5450 -0.7872  1.3733
 2354TIP3    H231258   1.596   6.733   9.967 -0.4280 -0.1082 -0.1399
 2355TIP3   OH231259   0.947   2.839   8.915  0.4381 -0.1058 -0.0106
 2355TIP3    H131260   0.905   2.867   8.833 -1.5234  0.6973  1.2031
 2355TIP3    H231261   1.039   2.824   8.890  1.1438  4.6740 -1.4809
 2356TIP3   OH231262   4.455   6.629   8.516  0.2440 -0.1335 -0.2746
 2356TIP3    H131263   4.548   6.652   8.513  0.5451 -0.8621  1.6781
 2356TIP3    H231264   4.418   6.686   8.583 -0.7171  0.0787 -0.9617
 2357TIP3   OH231265   1.615   5.565   8.746  0.2950 -0.1691  0.3242
 2357TIP3    H131266   1.674   5.638   8.732 -1.1221  0.6903 -1.6575
 2357TIP3    H231267   1.672   5.488   8.744  1.3479  0.5655 -2.1917
 2358TIP3   OH231268   2.987   4.661  11.748  0.2142 -0.1673 -0.3434
 2358TIP3    H131269   3.024   4.692  11.831 -0.3511 -1.7905  0.5663
 2358TIP3    H231270   2.990   4.737  11.690  3.5175  0.2218  0.1494
 2359TIP3   OH231271   1.542   6.076   9.642  0.2596  0.3398  0.1011
 2359TIP3    H131272   1.527   6.171   9.651  2.7748  0.7227  0.9849
 2359TIP3    H231273   1.541   6.043   9.732  1.3539 -0.0959 -0.0250
 2360TIP3   OH231274   1.850   5.582  12.202 -0.0181  0.0773 -0.2357
 2360TIP3    H131275   1.855   5.514  12.269 -0.1987  0.0330 -0.2647
 2360TIP3    H231276   1.757   5.607  12.201  0.2025  0.9694  0.4121
 2361TIP3   OH231277   5.982   0.545   9.813 -0.7702 -0.4338  0.5166
 2361TIP3    H131278   5.975   0.456   9.848  0.7360 -0.1856  1.5537
 2361TIP3    H231279   5.942   0.540   9.726 -1.7822 -1.8261  1.0235
 2362TIP3   OH231280   0.453   2.272   8.709  0.6902  0.5597  0.1197
 2362TIP3    H131281   0.456   2.192   8.761 -0.3675  0.8569  0.6732
 2362TIP3    H231282   0.371   2.266   8.659  0.6166  1.2552  0.1332
 2363TIP3   OH231283   0.032   5.654   8.128  0.4059  0.4660 -0.0480
 2363TIP3    H131284  -0.054   5.690   8.150 -0.3983 -0.1327 -1.9279
 2363TIP3    H231285   0.021   5.559   8.133  1.8732  0.3538  2.6782
 2364TIP3   OH231286   6.769   6.195  11.773  0.3872  0.0096 -0.3699
 2364TIP3    H131287   6.735   6.124  11.828  2.2485  0.4465  1.4624
 2364TIP3    H231288   6.828   6.151  11.712  1.6684 -0.0375  0.8720
 2365TIP3   OH231289   5.917   5.060   9.508  0.2418  0.1904  0.3682
 2365TIP3    H131290   5.953   5.013   9.583  1.2043 -0.5016 -0.4991
 2365TIP3    H231291   5.934   5.152   9.527  0.8424 -0.0061  0.8155
 2366TIP3   OH231292   2.398   4.204  11.740 -0.1312  0.4809  0.4755
 2366TIP3    H131293   2.350   4.134  11.696 -1.6612  0.4485  2.1020
 2366TIP3    H231294   2.477   4.217  11.687 -0.3144 -1.7685 -0.4154
 2367TIP3   OH231295   0.318   0.169   9.725  0.2219  0.2411 -0.6874
 2367TIP3    H131296   0.357   0.246   9.766  0.3283  1.1113 -2.3456
 2367TIP3    H231297   0.318   0.103   9.794  0.4769  1.5968  0.6727
 2368TIP3   OH231298   6.257   3.100   9.474  0.7119 -0.3012 -0.6845
 2368TIP3    H131299   6.185   3.064   9.422  0.3877  1.1906 -1.3490
 2368TIP3    H231300   6.315   3.026   9.491 -0.6243 -1.3906 -0.7345
 2369TIP3   OH231301   3.022   4.143  10.328  0.8839 -0.0814 -0.1221
 2369TIP3    H131302   2.942   4.116  10.284 -1.2443  1.7762  2.3405
 2369TIP3    H231303   3.041   4.230  10.292  1.2381 -0.0894  0.0366
 2370TIP3   OH231304   2.097   5.862   8.848 -0.0743 -0.3158  0.1430
 2370TIP3    H131305   2.060   5.948   8.870 -1.4695 -0.6217 -0.8747
 2370TIP3    H231306   2.059   5.840   8.763  1.6266 -1.1814 -0.4437
 2371TIP3   OH231307   3.334   6.621  11.948 -0.1334 -0.3266  0.5934
 2371TIP3    H131308   3.307   6.530  11.962  0.0620 -0.5075 -0.1872
 2371TIP3    H231309   3.417   6.615  11.900 -1.5650  0.2543 -2.1418
 2372TIP3   OH231310   2.430   1.065  11.911  0.0565 -0.3526  1.3105
 2372TIP3    H131311   2.500   1.036  11.852 -0.6351  0.9320 -0.2126
 2372TIP3    H231312   2.465   1.142  11.955 -0.6194  0.7452 -0.0135
 2373TIP3   OH231313   0.796   5.692  11.767 -0.0681 -0.1954  0.0087
 2373TIP3    H131314   0.869   5.693  11.829  0.2466 -2.1923 -0.2373
 2373TIP3    H231315   0.767   5.783  11.762  1.3389  0.3807  1.3620
 2374TIP3   OH231316   4.839   3.249   9.721 -0.2315 -0.3158  0.2167
 2374TIP3    H131317   4.751   3.217   9.740 -1.1695  1.3844 -0.9135
 2374TIP3    H231318   4.859   3.309   9.793 -0.4894  0.1555 -0.0978
 2375TIP3   OH231319   2.689   4.263   8.399  0.3567 -0.0279  0.2530
 2375TIP3    H131320   2.667   4.257   8.492 -0.7140 -1.0406 -0.0418
 2375TIP3    H231321   2.625   4.325   8.364 -1.6972 -2.3779 -0.4557
 2376TIP3   OH231322   1.819   4.066   9.887  0.5507 -0.5893 -0.7099
 2376TIP3    H131323   1.912   4.060   9.908  0.3180  0.5494  0.8392
 2376TIP3    H231324   1.816   4.126   9.812  1.0030  0.3750  0.0167
 2377TIP3   OH231325   3.425   5.718   8.396  0.4356  0.5704 -0.5952
 2377TIP3    H131326   3.480   5.648   8.361 -0.6722 -0.2139 -0.8649
 2377TIP3    H231327   3.388   5.760   8.319 -0.4175  0.1661 -0.4244
 2378TIP3   OH231328   4.199   3.355  10.463  0.1049 -0.1558 -0.2059
 2378TIP3    H131329   4.133   3.406  10.417  1.4242  0.7377 -1.2163
 2378TIP3    H231330   4.217   3.405  10.543 -1.3424 -1.0928  0.7482
 2379TIP3   OH231331   0.329   4.632  11.465  0.1757 -0.2581 -0.0381
 2379TIP3    H131332   0.262   4.566  11.482  0.4872 -0.4395  0.5328
 2379TIP3    H231333   0.370   4.646  11.551  0.4135  0.3456 -0.2451
 2380TIP3   OH231334   3.094   0.074  10.954  0.3277  0.0643  0.2054
 2380TIP3    H131335   3.056   0.079  10.867  2.2012  0.0645 -0.6711
 2380TIP3    H231336   3.025   0.104  11.013 -1.1081 -0.2995 -1.2223
 2381TIP3   OH231337   2.784   1.912  10.032  0.3746 -0.1473 -0.0168
 2381TIP3    H131338   2.860   1.928   9.977  0.0403  2.7577  0.1861
 2381TIP3    H231339   2.741   1.997  10.039 -1.5768 -1.1651  1.8328
 2382TIP3   OH231340   0.920   1.018  11.004 -0.4172 -0.1448 -0.3584
 2382TIP3    H131341   0.874   0.960  11.065  0.5971 -0.9398 -0.3339
 2382TIP3    H231342   1.011   0.989  11.008 -0.0584  0.8638 -1.0361
 2383TIP3   OH231343   0.102   3.658  11.818  0.1402 -0.7025  0.0475
 2383TIP3    H131344   0.162   3.678  11.890 -0.0455 -0.3771  0.1167
 2383TIP3    H231345   0.139   3.703  11.742 -0.0705 -0.4170  0.1134
 2384TIP3   OH231346   6.450   3.864  11.074 -0.2521  0.7201 -0.2121
 2384TIP3    H131347   6.419   3.849  10.984  0.1813  1.5724 -0.5185
 2384TIP3    H231348   6.514   3.795  11.089 -0.3789  0.5278 -0.5339
 2385TIP3   OH231349   4.448   3.447  11.657  0.0189  0.0423  0.0027
 2385TIP3    H131350   4.446   3.491  11.572 -1.3196  3.1357  1.4652
 2385TIP3    H231351   4.427   3.516  11.720 -2.1543 -2.7322  2.5967
 2386TIP3   OH231352   2.696   3.775  10.137  0.4188 -0.6744  0.3288
 2386TIP3    H131353   2.744   3.845  10.182 -0.3632 -1.1927  2.0947
 2386TIP3    H231354   2.630   3.821  10.086  0.1769 -0.0713  1.1483
 2387TIP3   OH231355   4.845   6.179   8.779  0.4332  0.7230 -0.6042
 2387TIP3    H131356   4.854   6.207   8.688  0.6243 -0.3472 -0.9349
 2387TIP3    H231357   4.874   6.087   8.778  1.8671  1.1277  0.8297
 2388TIP3   OH231358   6.250   1.407  10.219  0.3217 -0.1741  0.2136
 2388TIP3    H131359   6.260   1.427  10.312 -0.5112  2.4762 -0.1784
 2388TIP3    H231360   6.330   1.439  10.178 -0.0731  0.3337 -0.1766
 2389TIP3   OH231361   0.180   2.096   8.654 -0.3305  0.1800 -0.4318
 2389TIP3    H131362   0.182   2.001   8.657  0.7930  0.1507  3.2046
 2389TIP3    H231363   0.089   2.119   8.635 -1.3750 -1.7082  1.8962
 2390TIP3   OH231364   3.159   3.334  11.942  0.0920 -0.1917 -0.3941
 2390TIP3    H131365   3.213   3.259  11.965  0.8688  0.0195 -1.4246
 2390TIP3    H231366   3.069   3.304  11.952  0.1429 -2.8758 -5.1800
 2391TIP3   OH231367   6.426   5.235  10.810 -0.0729 -0.1670 -0.4086
 2391TIP3    H131368   6.427   5.255  10.716 -1.2221  0.2383 -0.3524
 2391TIP3    H231369   6.356   5.291  10.845 -0.1765 -0.8890  0.5586
 2392TIP3   OH231370   1.901   6.357  11.328  0.4555  0.8225 -0.7645
 2392TIP3    H131371   1.979   6.409  11.306  0.8824  0.3564 -0.3726
 2392TIP3    H231372   1.895   6.292  11.258  0.0809  1.2200 -1.1064
 2393TIP3   OH231373   6.827   2.139  11.485  0.1396  0.6113 -0.0184
 2393TIP3    H131374   6.733   2.126  11.473  0.2282 -2.1668  1.5397
 2393TIP3    H231375   6.867   2.107  11.404 -0.2098  2.2845 -0.9009
 2394TIP3   OH231376   2.271   1.935  10.571  0.3261 -0.4123  0.1067
 2394TIP3    H131377   2.306   1.948  10.659  0.2407 -0.6285  0.1731
 2394TIP3    H231378   2.290   2.017  10.525 -1.2219  0.4212  0.8524
 2395TIP3   OH231379   6.269   6.404  11.847  0.0743 -0.3707 -0.0809
 2395TIP3    H131380   6.240   6.353  11.772 -1.0784 -1.0508  0.7806
 2395TIP3    H231381   6.192   6.453  11.874  0.5016 -0.0324  0.5657
 2396TIP3   OH231382   1.058   3.686  11.551  0.1573  0.1973 -0.1304
 2396TIP3    H131383   0.995   3.705  11.620  0.3734 -1.1649  0.4890
 2396TIP3    H231384   1.098   3.770  11.529  0.9452  0.5168  2.2684
 2397TIP3   OH231385   3.939   2.861  10.421 -0.9017  0.2741  0.4529
 2397TIP3    H131386   4.024   2.826  10.392 -0.4013  2.3718 -0.8109
 2397TIP3    H231387   3.945   2.862  10.516 -0.6652 -2.2406  0.5393
 2398TIP3   OH231388   2.569   1.950   8.977  0.0712  0.4084  0.0193
 2398TIP3    H131389   2.570   2.045   8.976  1.5315  0.4107 -0.3997
 2398TIP3    H231390   2.661   1.925   8.985 -0.1571 -0.9688 -1.1914
 2399TIP3   OH231391   0.645   6.732  10.994 -0.4004  0.2162  0.1195
 2399TIP3    H131392   0.708   6.714  10.924 -1.7668  0.2192 -1.1416
 2399TIP3    H231393   0.687   6.800  11.047 -0.2202  1.8111 -1.9438
 2400TIP3   OH231394   1.668   2.670  11.686 -0.5095 -0.2583  0.4181
 2400TIP3    H131395   1.673   2.758  11.723  0.3847  0.1992 -0.7321
 2400TIP3    H231396   1.746   2.662  11.632 -1.7729 -0.8465 -1.4489
 2401TIP3   OH231397   0.319   2.738  10.172 -0.5400  0.1698 -0.2706
 2401TIP3    H131398   0.384   2.794  10.214  0.5512 -0.8264 -0.5900
 2401TIP3    H231399   0.239   2.750  10.224  0.0630  0.9365  0.4979
 2402TIP3   OH231400   4.590   3.257  10.076 -0.3448 -0.2935 -0.0880
 2402TIP3    H131401   4.672   3.240  10.121  0.7371 -0.1983 -1.9305
 2402TIP3    H231402   4.551   3.330  10.125  0.9434  0.0505  0.4714
 2403TIP3   OH231403   6.485   0.889  11.460  0.2593  0.0615 -0.1804
 2403TIP3    H131404   6.517   0.979  11.452 -0.2719  0.3205  0.4305
 2403TIP3    H231405   6.540   0.850  11.528 -0.8420  0.5946  1.0760
 2404TIP3   OH231406   5.455   2.042  11.312  0.2679  0.2487  0.0944
 2404TIP3    H131407   5.498   2.116  11.353  0.5869  0.6127 -0.8749
 2404TIP3    H231408   5.473   2.052  11.219 -1.6618  0.2565 -0.3197
 2405TIP3   OH231409   4.302   0.242  10.378 -0.1941 -1.0362  0.4352
 2405TIP3    H131410   4.394   0.268  10.377  0.2438 -2.2203  2.7745
 2405TIP3    H231411   4.263   0.288  10.303  1.8168  1.1882  0.6366
 2406TIP3   OH231412   2.976   2.603  11.133  0.3006 -1.0795  0.2458
 2406TIP3    H131413   2.997   2.547  11.058  0.5777  0.1859 -0.6640
 2406TIP3    H231414   2.890   2.640  11.112 -0.0284 -1.4043  0.9889
 2407TIP3   OH231415   5.459   3.767   7.913  0.5447  0.1425 -0.1897
 2407TIP3    H131416   5.511   3.731   7.841 -0.2647 -2.5953  0.4614
 2407TIP3    H231417   5.521   3.773   7.986  0.8601  0.8034 -0.5075
 2408TIP3   OH231418   2.434   0.645   8.245 -0.6257  0.0915 -0.7004
 2408TIP3    H131419   2.493   0.584   8.200  0.5642  1.2392 -0.7873
 2408TIP3    H231420   2.486   0.725   8.254 -1.5162  0.5126  1.0041
 2409TIP3   OH231421   3.010   4.059  10.004  0.3098  0.7884  0.0035
 2409TIP3    H131422   3.101   4.060  10.033  0.2877 -0.1726  0.1511
 2409TIP3    H231423   3.014   4.020   9.916 -0.1304 -1.0322  0.7517
 2410TIP3   OH231424   3.569   2.734  10.529  0.5173 -0.0180 -0.8290
 2410TIP3    H131425   3.533   2.772  10.608  0.3966 -0.4270 -0.6861
 2410TIP3    H231426   3.655   2.701  10.555  0.8912  0.7059 -1.1016
 2411TIP3   OH231427   1.436   2.590  10.515 -0.1585 -0.4872 -0.5074
 2411TIP3    H131428   1.345   2.573  10.490 -0.6966 -0.8782  1.5875
 2411TIP3    H231429   1.437   2.681  10.542 -0.1125 -0.7035  0.2297
 2412TIP3   OH231430   1.541   0.205  11.406  0.0836  0.4380  0.2514
 2412TIP3    H131431   1.538   0.260  11.485 -0.4703  1.8245 -0.7052
 2412TIP3    H231432   1.452   0.209  11.371 -0.3932 -2.2977  0.9249
 2413TIP3   OH231433   5.873   3.489  11.435 -0.3240  0.1230  0.2835
 2413TIP3    H131434   5.841   3.499  11.524 -0.9620 -1.6426  0.2898
 2413TIP3    H231435   5.851   3.573  11.392 -0.8302  0.6429  1.5213
 2414TIP3   OH231436   3.787   0.857  10.027 -0.0964  0.2326  0.1562
 2414TIP3    H131437   3.806   0.897   9.942 -0.1277  1.2871  0.6306
 2414TIP3    H231438   3.700   0.889  10.049 -1.0583 -1.8050 -0.4020
 2415TIP3   OH231439   4.639   5.541  10.247  0.0588  0.0560 -0.2206
 2415TIP3    H131440   4.693   5.578  10.316 -0.3457  0.1364  0.0573
 2415TIP3    H231441   4.586   5.615  10.216 -0.3878 -0.1722 -0.0117
 2416TIP3   OH231442   2.356   2.498  11.979 -0.2180 -0.3135  0.4157
 2416TIP3    H131443   2.425   2.508  11.913 -1.8611  1.1471 -1.1756
 2416TIP3    H231444   2.356   2.581  12.026 -0.5430 -0.5114  0.7643
 2417TIP3   OH231445   5.030   4.430  10.462 -0.3568 -0.4981  0.7485
 2417TIP3    H131446   5.029   4.401  10.371 -0.3878 -1.5691  1.0799
 2417TIP3    H231447   5.000   4.355  10.512 -2.2987  0.7107  1.4967
 2418TIP3   OH231448   2.937   5.362  11.148  0.1517  0.5008 -0.7460
 2418TIP3    H131449   2.909   5.453  11.140  0.3151  0.5502 -0.7715
 2418TIP3    H231450   3.033   5.367  11.149  0.3647  0.8345  4.6301
 2419TIP3   OH231451   5.978   3.109   9.699 -0.5924 -0.5338  0.2899
 2419TIP3    H131452   5.890   3.077   9.718 -1.4688  0.1688 -2.2399
 2419TIP3    H231453   5.993   3.085   9.608  1.2938  0.5659  0.2636
 2420TIP3   OH231454   2.980   5.815   8.689 -0.0990  0.4553  0.1587
 2420TIP3    H131455   2.886   5.800   8.682 -0.3378  1.7463  0.2708
 2420TIP3    H231456   3.012   5.809   8.599 -0.3495  0.3707  0.0749
 2421TIP3   OH231457   5.015   4.290  11.348  0.4651  0.0601  0.1751
 2421TIP3    H131458   4.946   4.349  11.379 -0.5982 -0.2920 -1.4117
 2421TIP3    H231459   5.054   4.336  11.274  0.6020 -0.5946 -0.1626
 2422TIP3   OH231460   0.161   0.192   9.250 -0.3393 -0.0675  0.3880
 2422TIP3    H131461   0.122   0.275   9.226 -1.7842 -0.5428  0.9653
 2422TIP3    H231462   0.199   0.208   9.337  1.1230  0.4842 -0.3118
 2423TIP3   OH231463   3.794   0.776  10.294  0.4390  0.3020  0.4523
 2423TIP3    H131464   3.799   0.805  10.203  0.5353  0.5866  0.5465
 2423TIP3    H231465   3.754   0.689  10.290  1.4326 -0.1583  0.0439
 2424TIP3   OH231466   6.460   6.241   8.485  0.7276  0.1797 -0.5071
 2424TIP3    H131467   6.513   6.164   8.463 -0.4290 -0.5581 -0.8370
 2424TIP3    H231468   6.494   6.311   8.429  0.7762 -0.5149 -1.3718
 2425TIP3   OH231469   1.896   1.077  10.230  0.5116 -0.2715 -0.5778
 2425TIP3    H131470   1.903   1.129  10.310 -1.5842 -1.8302  0.6992
 2425TIP3    H231471   1.902   1.141  10.159  2.7365  1.1124  0.7439
 2426TIP3   OH231472   2.055   6.489   9.289  0.2058 -0.3181  0.0941
 2426TIP3    H131473   2.030   6.575   9.321  2.4783  0.1127  0.9453
 2426TIP3    H231474   2.049   6.432   9.366  0.3944 -0.5280 -0.0433
 2427TIP3   OH231475   4.574   1.531   9.543  0.7779  0.0002  0.1080
 2427TIP3    H131476   4.486   1.493   9.547  1.1425 -0.7355  1.4419
 2427TIP3    H231477   4.559   1.624   9.525 -0.2085 -0.3286 -0.8940
 2428TIP3   OH231478   2.412   6.812  11.600  0.3265 -0.0053  0.1975
 2428TIP3    H131479   2.338   6.777  11.649 -0.0750 -0.4930 -0.7388
 2428TIP3    H231480   2.488   6.793  11.655  0.0233 -1.5447  0.1350
 2429TIP3   OH231481   6.373   1.616   9.615 -0.2483 -0.1339  0.3536
 2429TIP3    H131482   6.285   1.647   9.593 -1.4587 -1.1818  3.2117
 2429TIP3    H231483   6.382   1.533   9.567 -0.6504  0.1751 -0.2599
 2430TIP3   OH231484   1.694   1.401   9.083 -0.2150 -0.1939  0.2105
 2430TIP3    H131485   1.687   1.480   9.030  0.7888 -0.3319 -0.1485
 2430TIP3    H231486   1.638   1.337   9.039  0.7484 -0.3615 -0.7951
 2431TIP3   OH231487   4.458   4.118  10.481  0.2274 -0.2157  0.2095
 2431TIP3    H131488   4.448   4.153  10.569 -1.8244  1.5457 -0.6308
 2431TIP3    H231489   4.441   4.025  10.489 -1.2614  0.1440  1.4886
 2432TIP3   OH231490   5.155   1.643  11.320  0.6550 -0.3686  0.3186
 2432TIP3    H131491   5.142   1.610  11.409  0.0842 -2.2462 -0.4218
 2432TIP3    H231492   5.145   1.738  11.328  0.2304 -0.5340  2.1850
 2433TIP3   OH231493   3.869   6.483  11.938 -1.1611  0.2909  0.0449
 2433TIP3    H131494   3.939   6.425  11.969  1.7375  3.6881  0.5166
 2433TIP3    H231495   3.890   6.498  11.846 -2.3560  0.0053 -0.2937
 2434TIP3   OH231496   6.774   2.217  10.800 -0.2536  0.3491  0.0883
 2434TIP3    H131497   6.810   2.265  10.725  0.1989 -1.7803 -1.1283
 2434TIP3    H231498   6.728   2.143  10.761  2.6271 -2.6460  1.8772
 2435TIP3   OH231499   2.082   1.593   9.086  0.1714  0.1432 -0.5995
 2435TIP3    H131500   2.117   1.596   9.175  1.8096  0.5378 -1.2287
 2435TIP3    H231501   2.069   1.499   9.069  3.2971 -0.2904 -1.1822
 2436TIP3   OH231502   6.377   5.328  10.568  0.0978 -0.0783  0.5606
 2436TIP3    H131503   6.344   5.249  10.526  0.3255  0.0990  0.0356
 2436TIP3    H231504   6.433   5.368  10.501  0.7175  0.0445  1.1486
 2437TIP3   OH231505   3.388   3.379   9.350  1.0075 -0.4185  0.2859
 2437TIP3    H131506   3.383   3.289   9.317 -0.8527 -0.2452  0.0028
 2437TIP3    H231507   3.340   3.378   9.432 -0.4530  0.6160 -0.5030
 2438TIP3   OH231508   5.466   5.497   8.828  0.9575 -0.5551 -0.4679
 2438TIP3    H131509   5.491   5.589   8.817  1.8895 -0.8494 -0.9394
 2438TIP3    H231510   5.397   5.498   8.895  2.0166  0.3480  0.6471
 2439TIP3   OH231511   5.555   4.609  10.645 -0.4526 -0.3607  0.0994
 2439TIP3    H131512   5.481   4.670  10.652 -0.6716 -0.5724 -0.3673
 2439TIP3    H231513   5.558   4.566  10.731 -0.7501 -0.2171  0.1844
 2440TIP3   OH231514   3.521   5.010  11.488  0.2459  0.2424  0.7608
 2440TIP3    H131515   3.504   4.919  11.513 -1.0532  0.6627  1.4605
 2440TIP3    H231516   3.457   5.061  11.536 -1.0804  1.2670 -1.9030
 2441TIP3   OH231517   3.540   6.554  10.165 -0.0773  0.1154 -0.4538
 2441TIP3    H131518   3.558   6.491  10.095 -1.0813  1.1041 -1.6421
 2441TIP3    H231519   3.584   6.517  10.241  3.8984  0.5338 -2.2477
 2442TIP3   OH231520   2.797   3.946   9.702  0.0815 -0.5412  0.0902
 2442TIP3    H131521   2.707   3.935   9.733 -0.0979 -0.0554 -0.2462
 2442TIP3    H231522   2.805   4.040   9.684  0.7542 -0.5294  0.4199
 2443TIP3   OH231523   4.890   5.911   8.691 -0.1225 -0.0542  0.1395
 2443TIP3    H131524   4.862   5.874   8.608  2.1804  0.6189 -1.0258
 2443TIP3    H231525   4.927   5.837   8.739  1.7719  0.1239 -0.9559
 2444TIP3   OH231526   4.835   6.659   9.570 -0.1452 -0.3336 -0.2945
 2444TIP3    H131527   4.779   6.735   9.557  0.0256  0.1379  1.4384
 2444TIP3    H231528   4.774   6.586   9.579 -0.4160 -0.0737  0.0144
 2445TIP3   OH231529   5.561   3.226  11.066 -0.2671 -0.4064 -0.6032
 2445TIP3    H131530   5.641   3.246  11.018  0.1742 -0.9784 -0.1204
 2445TIP3    H231531   5.591   3.193  11.151 -1.0102 -0.7007 -0.4454
 2446TIP3   OH231532   6.331   2.062   8.833 -0.1662  0.1817  0.2323
 2446TIP3    H131533   6.256   2.078   8.776  0.6862  2.3971 -0.3692
 2446TIP3    H231534   6.402   2.039   8.774 -0.0839 -0.8333  0.7088
 2447TIP3   OH231535   4.998   3.045  10.097 -0.6559 -1.0872  0.0322
 2447TIP3    H131536   4.957   3.131  10.109 -2.4651 -2.0171  0.9415
 2447TIP3    H231537   4.942   2.985  10.146  2.3159 -2.3779  2.0863
 2448TIP3   OH231538   6.682   2.036   9.387  0.5077  0.2602 -0.0818
 2448TIP3    H131539   6.740   1.961   9.376  0.1922 -0.1293  0.7768
 2448TIP3    H231540   6.658   2.034   9.480 -2.0599 -0.4999 -0.6842
 2449TIP3   OH231541   0.146   1.821   8.671  0.8435  0.2706  0.2972
 2449TIP3    H131542   0.208   1.807   8.743  3.1414 -1.5800 -1.8810
 2449TIP3    H231543   0.129   1.733   8.636 -1.7470  0.9018 -0.2989
 2450TIP3   OH231544   3.190   3.190   8.189 -0.2971  0.5406  0.0442
 2450TIP3    H131545   3.253   3.253   8.224 -0.3149  0.0707  0.9758
 2450TIP3    H231546   3.240   3.138   8.126  0.0948  0.5602  0.3321
 2451TIP3   OH231547   2.971   4.903  11.043  0.8167 -0.1321  0.2666
 2451TIP3    H131548   3.053   4.873  11.079  1.4455 -0.9413 -1.6916
 2451TIP3    H231549   2.967   4.864  10.956 -1.5939 -0.0259  0.2546
 2452TIP3   OH231550   4.971   1.739   9.286 -0.3139  0.0108 -0.0457
 2452TIP3    H131551   5.040   1.727   9.222 -0.8598  1.1907 -0.8885
 2452TIP3    H231552   4.990   1.674   9.354  1.1395 -0.2320 -0.6460
 2453TIP3   OH231553   2.170   1.553   9.346  0.0909  0.1703 -0.4880
 2453TIP3    H131554   2.124   1.553   9.430 -1.1651  0.6440 -1.1567
 2453TIP3    H231555   2.243   1.613   9.359  0.8497 -0.9546  0.7361
 2454TIP3   OH231556   6.713   1.112   9.903  0.0535  0.1953 -0.9501
 2454TIP3    H131557   6.662   1.066   9.837  1.3153 -2.6478 -0.0931
 2454TIP3    H231558   6.803   1.084   9.888  0.4597 -0.0562  1.5000
 2455TIP3   OH231559   2.575   0.794  10.837 -0.1791 -0.4529 -0.4818
 2455TIP3    H131560   2.666   0.770  10.852 -0.5419 -0.8405  1.3190
 2455TIP3    H231561   2.563   0.875  10.885 -0.7807 -0.3825 -0.7388
 2456TIP3   OH231562   0.942   2.536   9.625  0.5402  0.7792  0.2194
 2456TIP3    H131563   0.878   2.562   9.691 -0.9397  1.2346 -1.3165
 2456TIP3    H231564   0.921   2.590   9.549  2.2578  0.3544 -0.6027
 2457TIP3   OH231565   3.439   6.224   9.496  0.1329  0.4576 -0.4965
 2457TIP3    H131566   3.428   6.166   9.421 -0.1352  1.7300 -1.4724
 2457TIP3    H231567   3.362   6.280   9.495 -0.0568  0.2396  0.9719
 2458TIP3   OH231568   1.270   5.213   9.909  0.1945  0.5713 -0.1477
 2458TIP3    H131569   1.222   5.142   9.868 -0.6456  1.9518 -1.6632
 2458TIP3    H231570   1.238   5.216   9.998 -0.6513 -0.1599 -0.4182
 2459TIP3   OH231571   6.242   0.533  10.439  0.5222 -0.2109  0.0300
 2459TIP3    H131572   6.322   0.547  10.489 -1.1096 -0.5801  2.9863
 2459TIP3    H231573   6.241   0.440  10.420  1.1746 -0.0626 -0.7557
 2460TIP3   OH231574   3.533   2.473  11.467  0.2682 -0.0510 -0.5602
 2460TIP3    H131575   3.444   2.498  11.492  0.2986  0.1120 -0.6210
 2460TIP3    H231576   3.521   2.412  11.394  0.1965 -0.2096 -0.4167
 2461TIP3   OH231577   1.937   4.009  11.314 -0.0881 -0.3525  0.0516
 2461TIP3    H131578   1.847   4.038  11.295  0.2079  0.7457  0.2392
 2461TIP3    H231579   1.970   4.074  11.376  1.0590 -0.3694 -0.5168
 2462TIP3   OH231580   3.132   6.362   9.849 -0.0032 -0.5912 -0.0750
 2462TIP3    H131581   3.121   6.409   9.767 -0.7150  1.6723  1.2172
 2462TIP3    H231582   3.095   6.420   9.915 -0.2326 -2.6851  1.7698
 2463TIP3   OH231583   5.787   3.255  10.170  0.1605 -0.1879  0.3621
 2463TIP3    H131584   5.819   3.344  10.183  0.5897 -0.3518  0.4564
 2463TIP3    H231585   5.850   3.200  10.217  0.1902 -0.5834 -0.1363
 2464TIP3   OH231586   0.789   4.545  10.769  0.2109  0.1082 -0.2756
 2464TIP3    H131587   0.746   4.576  10.689  1.5687  0.7438 -0.7777
 2464TIP3    H231588   0.882   4.559  10.754  0.7793 -2.4827  0.2343
 2465TIP3   OH231589   4.602   5.794  10.051  0.2011  0.0183 -0.2653
 2465TIP3    H131590   4.683   5.805  10.001 -0.6687 -1.8361 -2.3047
 2465TIP3    H231591   4.536   5.840  10.000 -0.4854 -0.7982 -0.1487
 2466TIP3   OH231592   4.368   0.695  10.600  0.2048 -0.0958  0.0075
 2466TIP3    H131593   4.347   0.788  10.592  0.8843  0.0300 -0.3598
 2466TIP3    H231594   4.343   0.672  10.689  0.6730  0.6139  0.3271
 2467TIP3   OH231595   0.743   3.347  10.322  0.1144  0.1400  0.2918
 2467TIP3    H131596   0.790   3.396  10.389 -0.2276  0.9163 -0.0227
 2467TIP3    H231597   0.798   3.355  10.244 -0.5351  1.0740 -0.0858
 2468TIP3   OH231598   2.527   3.539  10.133 -0.3857  0.3287 -0.4971
 2468TIP3    H131599   2.575   3.619  10.155  1.2441 -0.8485  0.4150
 2468TIP3    H231600   2.551   3.477  10.201  0.1411 -1.6366 -2.3516
 2469TIP3   OH231601   4.830   2.778  10.477 -0.0725 -0.2042 -0.0408
 2469TIP3    H131602   4.757   2.717  10.492  0.9892 -1.3245  0.6997
 2469TIP3    H231603   4.830   2.834  10.555 -1.1788  0.9359 -0.8147
 2470TIP3   OH231604   6.064   3.215  11.511 -0.0973  0.0658 -0.2602
 2470TIP3    H131605   6.024   3.239  11.595 -0.6645  0.3023 -0.5913
 2470TIP3    H231606   5.991   3.182  11.459  0.4440 -1.1802 -0.2632
 2471TIP3   OH231607   6.480   3.950  11.716 -0.5807 -0.4638  0.4720
 2471TIP3    H131608   6.503   3.857  11.717  0.8829 -0.1213  1.8478
 2471TIP3    H231609   6.520   3.984  11.636 -0.3171 -0.8239  0.4493
 2472TIP3   OH231610   0.995   6.316   9.864  0.2014  0.2758  0.0701
 2472TIP3    H131611   0.993   6.365   9.782 -0.1697  0.4192  0.1625
 2472TIP3    H231612   1.024   6.380   9.930  0.7172  0.1034  0.0151
 2473TIP3   OH231613   3.713   5.014  10.408  0.7767  0.1718  0.0939
 2473TIP3    H131614   3.657   4.958  10.354  2.4432 -0.7050 -0.7868
 2473TIP3    H231615   3.674   5.101  10.401 -0.6896 -0.4676 -0.1555
 2474TIP3   OH231616   3.076   6.400  11.302 -0.3115 -0.2298 -0.8146
 2474TIP3    H131617   3.131   6.414  11.225 -0.9304 -0.8777 -1.3800
 2474TIP3    H231618   3.000   6.457  11.289 -0.0927  0.1748 -0.3473
 2475TIP3   OH231619   0.286   1.906  11.417  0.4243  0.4738 -1.0319
 2475TIP3    H131620   0.336   1.953  11.350  0.6135  1.7977 -0.0029
 2475TIP3    H231621   0.234   1.843  11.369  2.4427 -0.3675 -2.2364
 2476TIP3   OH231622   3.415   6.410  11.421  0.1431 -0.3375  0.6716
 2476TIP3    H131623   3.437   6.460  11.343  0.7484 -1.7875 -0.1328
 2476TIP3    H231624   3.319   6.408  11.423  0.1274 -0.2565 -0.0160
 2477TIP3   OH231625   4.258   1.692  10.566  0.2112  0.2545  0.2443
 2477TIP3    H131626   4.209   1.611  10.555 -2.6263  1.8059  0.5987
 2477TIP3    H231627   4.337   1.666  10.612  0.0089 -2.4590 -0.7479
 2478TIP3   OH231628   3.218   3.731  11.749 -0.1282 -0.2940 -0.7790
 2478TIP3    H131629   3.289   3.770  11.699  0.3142 -1.3747 -1.0183
 2478TIP3    H231630   3.143   3.789  11.735  0.2225 -0.1232 -1.9842
 2479TIP3   OH231631   5.440   5.646  11.334  0.7692  0.4491 -0.6021
 2479TIP3    H131632   5.496   5.723  11.343 -0.0772  1.3125 -2.1634
 2479TIP3    H231633   5.398   5.657  11.248 -2.4152  0.3200  0.7801
 2480TIP3   OH231634   1.790   2.827   9.430  0.1736  0.0551 -0.3014
 2480TIP3    H131635   1.755   2.740   9.412 -0.0465  0.3217 -1.1645
 2480TIP3    H231636   1.884   2.812   9.444  0.3710 -0.1629 -1.7286
 2481TIP3   OH231637   2.401   2.697   9.998  0.1285  0.1170  0.5532
 2481TIP3    H131638   2.361   2.653   9.922  1.2225 -0.3777  0.2397
 2481TIP3    H231639   2.327   2.725  10.051 -0.6420 -1.4166  0.3567
 2482TIP3   OH231640   0.801   1.169  11.756 -0.6178 -0.5929 -0.2118
 2482TIP3    H131641   0.720   1.158  11.806 -0.6295 -0.5126 -0.2136
 2482TIP3    H231642   0.773   1.179  11.665 -0.7423  1.3437 -0.0134
 2483TIP3   OH231643   6.021   4.374  10.225 -0.4819  0.3611  0.3431
 2483TIP3    H131644   5.952   4.352  10.162  0.2248 -2.1949  0.3345
 2483TIP3    H231645   6.014   4.306  10.291  2.5533 -0.5339 -0.1174
 2484TIP3   OH231646   3.615   2.215  10.784 -0.0942  0.1436  0.1612
 2484TIP3    H131647   3.691   2.188  10.837  0.4652  3.0931  1.0011
 2484TIP3    H231648   3.540   2.199  10.841  0.0225 -1.0507  0.0214
 2485TIP3   OH231649   6.778   0.653   9.932 -0.9391 -0.0311  0.6496
 2485TIP3    H131650   6.705   0.591   9.930 -1.8763  1.0329  0.8592
 2485TIP3    H231651   6.749   0.721   9.993 -0.2542  1.0045 -0.1601
 2486TIP3   OH231652   3.348   4.475   8.217  0.0355 -0.2959  0.1711
 2486TIP3    H131653   3.371   4.399   8.271 -0.1110 -0.2396  0.3156
 2486TIP3    H231654   3.370   4.550   8.272 -0.3355 -0.2406  0.2445
 2487TIP3   OH231655   4.553   2.259  10.062 -0.2068 -0.2610 -0.1539
 2487TIP3    H131656   4.621   2.324  10.079 -0.9610  0.4915  0.1010
 2487TIP3    H231657   4.478   2.311  10.033 -0.6781 -1.0695 -0.4086
 2488TIP3   OH231658   4.624   0.519  10.175  0.4132 -0.2341 -0.3380
 2488TIP3    H131659   4.546   0.510  10.230  0.5461 -0.1628 -0.1395
 2488TIP3    H231660   4.670   0.436  10.184  2.9367  1.2898  3.4522
 2489TIP3   OH231661   4.895   5.868  10.861  0.3274 -0.5210 -0.0928
 2489TIP3    H131662   4.875   5.919  10.940  0.1108 -0.3270 -0.2724
 2489TIP3    H231663   4.923   5.783  10.894  0.5322 -0.3408  0.2050
 2490TIP3   OH231664   4.606   4.669  10.942  0.2781 -0.2450  0.3077
 2490TIP3    H131665   4.686   4.651  10.894 -0.1530 -1.1720 -0.0969
 2490TIP3    H231666   4.602   4.599  11.008  0.0681  0.1052  0.6748
 2491TIP3   OH231667   1.515   6.053  10.447  0.6383  0.3370 -0.0939
 2491TIP3    H131668   1.552   6.001  10.376  3.5513  0.3691  1.2448
 2491TIP3    H231669   1.484   6.133  10.405 -0.1020 -0.7133 -1.6197
 2492TIP3   OH231670   4.015   4.054   8.886 -0.2094 -0.1788  0.7522
 2492TIP3    H131671   3.931   4.020   8.854  0.4025 -0.6454 -0.4181
 2492TIP3    H231672   3.992   4.106   8.963 -1.6424  0.1505  0.1335
 2493TIP3   OH231673   4.795   3.718   8.247  0.1273  0.5425  0.1569
 2493TIP3    H131674   4.704   3.688   8.248 -0.5459  2.4680  0.3241
 2493TIP3    H231675   4.846   3.637   8.244 -1.5869 -0.5693 -1.1798
 2494TIP3   OH231676   2.150   5.878  10.349  0.0259  0.1130 -0.2992
 2494TIP3    H131677   2.232   5.830  10.337  0.4105  0.5029  0.6749
 2494TIP3    H231678   2.099   5.824  10.409 -0.0537  0.3182 -0.1815
 2495TIP3   OH231679   5.483   5.786  11.846  0.2944  0.3364  1.0959
 2495TIP3    H131680   5.485   5.700  11.802  0.3286  0.5813  0.6070
 2495TIP3    H231681   5.393   5.816  11.835  0.6017  0.9525  0.0802
 2496TIP3   OH231682   1.388   4.352  10.515  0.1665  0.1215 -0.0327
 2496TIP3    H131683   1.403   4.274  10.463  0.0542  1.2461 -1.8188
 2496TIP3    H231684   1.438   4.421  10.471  0.5688  1.0000  1.7096
 2497TIP3   OH231685   6.514   3.478  11.922 -0.8781 -0.3578 -0.4198
 2497TIP3    H131686   6.522   3.398  11.972 -0.4404  1.2781  2.3468
 2497TIP3    H231687   6.604   3.499  11.896 -0.7403  0.1021  0.3905
 2498TIP3   OH231688   4.232   4.013   9.814 -0.0186  0.5395 -0.2527
 2498TIP3    H131689   4.270   3.956   9.881 -0.7076  0.7107  0.2927
 2498TIP3    H231690   4.138   4.001   9.823 -0.1171  0.0293 -1.6727
 2499TIP3   OH231691   1.077   4.205  10.661 -0.7670 -0.6355 -0.4259
 2499TIP3    H131692   1.083   4.112  10.640 -0.0506 -0.5502 -0.6346
 2499TIP3    H231693   1.018   4.209  10.737  0.2654 -1.4112  0.4550
 2500TIP3   OH231694   6.520   5.958  11.548 -0.0320  0.0452  0.4308
 2500TIP3    H131695   6.599   5.923  11.508 -0.6700  0.1030 -0.9174
 2500TIP3    H231696   6.523   6.052  11.530 -0.4550  0.0355  0.3012
 2501TIP3   OH231697   2.519   1.548  11.118 -0.2498 -0.0242 -0.3826
 2501TIP3    H131698   2.530   1.536  11.212  0.9457 -2.3689 -0.7470
 2501TIP3    H231699   2.561   1.632  11.099 -0.8733  0.6848  1.1988
 2502TIP3   OH231700   5.716   1.354   8.338  0.0660  0.5896  0.6014
 2502TIP3    H131701   5.628   1.315   8.338  0.1175  0.4722  0.8588
 2502TIP3    H231702   5.707   1.433   8.284 -0.1555  0.4839  0.4812
 2503TIP3   OH231703   2.733   4.501   8.677  0.2923  0.1875 -0.5393
 2503TIP3    H131704   2.694   4.553   8.607  1.6403 -0.3995 -1.7679
 2503TIP3    H231705   2.699   4.540   8.758 -1.2309  0.9264 -1.4978
 2504TIP3   OH231706   4.561   6.756  10.620  0.6827  0.4800 -0.1572
 2504TIP3    H131707   4.540   6.684  10.562 -1.0902  1.8117 -1.2920
 2504TIP3    H231708   4.477   6.782  10.658  0.3877  4.4027 -2.8334
 2505TIP3   OH231709   3.812   0.735  11.106 -0.1971 -0.7950 -0.4356
 2505TIP3    H131710   3.776   0.795  11.171 -1.3382 -2.1331  0.2062
 2505TIP3    H231711   3.736   0.694  11.065  0.4386  0.3758 -3.0596
 2506TIP3   OH231712   1.015   6.041  10.601 -0.1893 -0.1566 -0.0112
 2506TIP3    H131713   1.059   6.114  10.557 -0.1934  0.4045  0.8897
 2506TIP3    H231714   0.923   6.067  10.604 -0.1927 -0.2045  0.2971
 2507TIP3   OH231715   4.630   6.714  11.109  0.3398 -0.1099  0.4567
 2507TIP3    H131716   4.546   6.690  11.070  0.7937 -0.5317 -0.2814
 2507TIP3    H231717   4.611   6.791  11.162 -0.2996  0.4932 -0.6184
 2508TIP3   OH231718   0.123   6.060   9.835 -0.2070 -0.2552 -0.2615
 2508TIP3    H131719   0.116   6.082   9.742  1.5039 -0.3522 -0.4494
 2508TIP3    H231720   0.136   6.144   9.878  1.9709 -0.3967 -0.4950
 2509TIP3   OH231721   1.430   5.265  10.276 -0.3425  0.4700  0.4186
 2509TIP3    H131722   1.346   5.310  10.285 -0.2952  1.3760 -2.5927
 2509TIP3    H231723   1.408   5.172  10.286 -1.2311  0.8175  2.0883
 2510TIP3   OH231724   1.627   4.149  11.813 -0.1570  0.4795 -0.0006
 2510TIP3    H131725   1.596   4.216  11.753 -0.3037  0.1889 -0.2526
 2510TIP3    H231726   1.710   4.183  11.845  0.0925  0.4821 -0.6316
 2511TIP3   OH231727   1.682   0.668   9.760 -0.1115  0.0276 -0.2262
 2511TIP3    H131728   1.715   0.642   9.846 -0.0613  0.1009 -0.2232
 2511TIP3    H231729   1.673   0.585   9.712 -0.3090 -0.0299 -0.0912
 2512TIP3   OH231730   0.579   2.906   9.796  0.2435  0.0883 -0.0235
 2512TIP3    H131731   0.618   2.943   9.876 -1.2920  1.4397  0.1385
 2512TIP3    H231732   0.492   2.876   9.824 -0.0278 -0.0848 -1.0354
 2513TIP3   OH231733   0.822   5.229  11.731 -0.3291 -0.0519 -0.0083
 2513TIP3    H131734   0.885   5.278  11.678  1.5611 -3.6255 -1.4635
 2513TIP3    H231735   0.779   5.295  11.785  1.0651  3.2613 -2.5610
 2514TIP3   OH231736   5.082   5.555  11.915 -0.1574 -0.3196 -0.2663
 2514TIP3    H131737   5.038   5.520  11.992  0.4383  2.2951  1.3738
 2514TIP3    H231738   5.170   5.515  11.918 -0.0815 -0.1100  0.5262
 2515TIP3   OH231739   2.606   6.495  11.622  0.2551 -0.4500 -0.1766
 2515TIP3    H131740   2.630   6.425  11.561 -2.0173 -0.6905 -0.8777
 2515TIP3    H231741   2.605   6.452  11.708 -0.1664 -1.0398 -0.4687
 2516TIP3   OH231742   6.241   0.287  12.133 -0.3481  0.3216  0.3651
 2516TIP3    H131743   6.157   0.313  12.171  0.0387  2.1686  0.0880
 2516TIP3    H231744   6.218   0.223  12.066 -1.6700  1.4766 -0.3393
 2517TIP3   OH231745   1.899   0.526  10.929  0.3028 -0.1567 -0.3465
 2517TIP3    H131746   1.892   0.438  10.967  2.6276 -0.0024  0.6277
 2517TIP3    H231747   1.871   0.584  11.000 -0.3416 -0.0629 -0.6740
 2518TIP3   OH231748   3.883   6.410   9.743 -0.0194 -0.2820  0.2382
 2518TIP3    H131749   3.793   6.382   9.731 -0.4585  0.4667  1.6534
 2518TIP3    H231750   3.919   6.349   9.808  0.1238  0.1593  0.5778
 2519TIP3   OH231751   6.327   0.857   8.561 -0.1010  0.0853  0.0273
 2519TIP3    H131752   6.308   0.767   8.536  0.6893 -0.2607  0.6268
 2519TIP3    H231753   6.395   0.885   8.501 -0.8963  0.5692 -0.6741
 2520TIP3   OH231754   1.997   2.959  10.539  0.0350  0.0161 -0.2143
 2520TIP3    H131755   1.960   3.035  10.583  0.0413 -0.1217  0.0326
 2520TIP3    H231756   2.007   2.894  10.608 -2.0240 -0.9903 -0.8073
 2521TIP3   OH231757   2.879   5.235   8.117  0.3046 -0.4050  0.3442
 2521TIP3    H131758   2.948   5.287   8.157 -0.4575  0.4302  0.5998
 2521TIP3    H231759   2.869   5.159   8.175  0.9323 -0.4797  0.3568
 2522TIP3   OH231760   2.159   0.597  11.642  0.3888  0.0033  0.5175
 2522TIP3    H131761   2.071   0.636  11.643  0.8561  1.1103  1.7983
 2522TIP3    H231762   2.200   0.628  11.723  1.8074 -0.8716  0.1752
 2523TIP3   OH231763   1.618   4.209  11.327 -0.0962 -0.4211 -0.3951
 2523TIP3    H131764   1.690   4.240  11.382  0.7401 -1.4236 -0.8743
 2523TIP3    H231765   1.605   4.279  11.263 -0.3785  0.2952  0.4225
 2524TIP3   OH231766   3.927   5.286   9.493 -1.4295  0.4909 -0.3933
 2524TIP3    H131767   3.912   5.250   9.406 -2.5812  1.2059 -0.5108
 2524TIP3    H231768   3.862   5.242   9.549 -0.9903  0.3561  0.0203
 2525TIP3   OH231769   5.662   6.728  10.379  0.2959  0.3268  0.0026
 2525TIP3    H131770   5.613   6.719  10.461  1.9756  0.0467  1.0364
 2525TIP3    H231771   5.704   6.813  10.386 -0.4546  0.8016 -1.1123
 2526TIP3   OH231772   1.091   5.913   9.343 -0.1937 -0.1824 -0.2304
 2526TIP3    H131773   1.116   5.852   9.413 -0.0475  0.7585  0.5766
 2526TIP3    H231774   1.138   5.994   9.365 -3.6893  1.6568  1.2746
 2527TIP3   OH231775   3.015   3.786  10.799 -0.2812  0.0680 -0.3776
 2527TIP3    H131776   2.932   3.832  10.782 -0.1143  0.8417  0.8021
 2527TIP3    H231777   3.038   3.810  10.889  0.2349 -1.7064  0.0003
 2528TIP3   OH231778   3.147   5.752   8.487  0.6841 -0.1282  0.3537
 2528TIP3    H131779   3.142   5.657   8.491  0.7705 -0.1911 -0.6935
 2528TIP3    H231780   3.239   5.770   8.465  0.7121  0.2016  0.7363
 2529TIP3   OH231781   0.671   2.495  11.044 -0.5589 -1.0170 -0.4863
 2529TIP3    H131782   0.661   2.413  11.092  0.1059  0.0850  1.6641
 2529TIP3    H231783   0.765   2.498  11.023 -0.0802  0.2747  1.6165
 2530TIP3   OH231784   5.467   0.544  11.895  0.5034 -0.2075 -0.0775
 2530TIP3    H131785   5.562   0.552  11.885  0.4601  0.2237 -0.1859
 2530TIP3    H231786   5.438   0.632  11.919  0.1765 -0.4258  0.3530
 2531TIP3   OH231787   5.889   0.848   9.474  0.3177  0.9433 -0.4345
 2531TIP3    H131788   5.841   0.842   9.391 -0.2807 -1.5947  0.0415
 2531TIP3    H231789   5.840   0.793   9.535  1.1897  2.1322  1.4269
 2532TIP3   OH231790   5.912   5.159   9.960  0.0784 -0.2505 -0.2161
 2532TIP3    H131791   5.886   5.214   9.887  0.8781 -1.0485 -1.1332
 2532TIP3    H231792   5.849   5.087   9.959 -0.6771  0.3766  0.6846
 2533TIP3   OH231793   3.890   5.295  10.395 -0.3637 -0.0212  0.3382
 2533TIP3    H131794   3.807   5.254  10.421 -0.3328  1.3049  2.7528
 2533TIP3    H231795   3.864   5.380  10.359 -0.2222 -0.9573 -2.2129
 2534TIP3   OH231796   3.023   3.045  10.501  0.6574 -0.4325 -0.4532
 2534TIP3    H131797   3.044   2.979  10.567  3.0373  0.6869 -0.0143
 2534TIP3    H231798   3.085   3.030  10.430  0.1742  0.3511 -1.0685
 2535TIP3   OH231799   2.261   5.629   9.512  0.2315  0.6411  0.3131
 2535TIP3    H131800   2.176   5.655   9.478 -0.5043 -1.7716  0.1322
 2535TIP3    H231801   2.273   5.681   9.591 -2.1307 -0.0598  1.1974
 2536TIP3   OH231802   4.553   0.343   9.239 -0.0999  0.6924  0.1900
 2536TIP3    H131803   4.576   0.435   9.257  0.7743  0.3917  0.7109
 2536TIP3    H231804   4.568   0.332   9.146 -0.5017  1.1620  0.0690
 2537TIP3   OH231805   2.823   4.338  11.292  0.0802  0.2186 -0.9060
 2537TIP3    H131806   2.731   4.337  11.318  0.5618 -2.4555  1.2161
 2537TIP3    H231807   2.832   4.262  11.233  0.8165  0.8912 -1.6932
 2538TIP3   OH231808   1.556   2.154   9.253 -0.2697 -0.4268  0.0791
 2538TIP3    H131809   1.625   2.115   9.199 -0.8197 -1.3927  0.0574
 2538TIP3    H231810   1.475   2.138   9.204 -0.5214  0.7674  0.0616
 2539TIP3   OH231811   3.386   3.514  10.010  0.1003  0.2154  0.2068
 2539TIP3    H131812   3.358   3.549  10.095  0.9217  0.6254  0.3141
 2539TIP3    H231813   3.304   3.484   9.970 -0.4172  0.8000  0.7808
 2540TIP3   OH231814   1.198   6.165   9.420  0.1165 -0.6105 -0.8032
 2540TIP3    H131815   1.131   6.168   9.488  1.1413 -1.7369  0.3145
 2540TIP3    H231816   1.189   6.247   9.373 -0.2002  0.5019  1.1099
 2541TIP3   OH231817   1.217   3.369   8.799 -0.2183  0.6223  0.1567
 2541TIP3    H131818   1.233   3.454   8.840 -0.1727 -0.1053  1.7228
 2541TIP3    H231819   1.157   3.388   8.727 -1.5229  1.7946  1.4748
 2542TIP3   OH231820   5.086   0.548  11.509  0.2143  0.0505  0.4945
 2542TIP3    H131821   5.024   0.618  11.488 -0.0640 -0.2446  0.3281
 2542TIP3    H231822   5.035   0.485  11.560  0.3650 -0.2089  0.3291
 2543TIP3   OH231823   4.448   5.972  10.558  0.3766  0.0274  0.2879
 2543TIP3    H131824   4.364   5.944  10.521 -1.8292  1.5092  3.7678
 2543TIP3    H231825   4.449   6.067  10.549  1.6192  0.0551  0.4755
 2544TIP3   OH231826   4.652   3.352   8.836 -0.4229  0.5540  0.5131
 2544TIP3    H131827   4.683   3.262   8.821 -0.9678  0.5949 -1.0496
 2544TIP3    H231828   4.728   3.397   8.874  1.0857  0.3118 -1.9772
 2545TIP3   OH231829   1.688   4.920   9.160 -0.7529  0.1485 -0.2142
 2545TIP3    H131830   1.744   4.871   9.100 -0.7576  0.1425 -0.2135
 2545TIP3    H231831   1.653   4.854   9.220 -0.7295  0.1578 -0.1899
 2546TIP3   OH231832   6.272   4.658  11.751  0.2596  0.1162  0.2884
 2546TIP3    H131833   6.356   4.646  11.795 -0.3317 -0.0763  1.4110
 2546TIP3    H231834   6.261   4.753  11.747  0.7493  0.1518 -0.3045
 2547TIP3   OH231835   5.619   2.135  10.352 -0.2753 -0.0118  0.2669
 2547TIP3    H131836   5.701   2.086  10.354 -0.6279 -0.6446  2.2669
 2547TIP3    H231837   5.597   2.147  10.444 -0.5298  3.4781 -0.1397
 2548TIP3   OH231838   3.995   1.356  10.912  0.4736 -0.8542  0.2568
 2548TIP3    H131839   4.078   1.308  10.909  0.0521 -1.7012  1.4857
 2548TIP3    H231840   4.010   1.425  10.976 -0.0198 -1.5516  1.1506
 2549TIP3   OH231841   3.370   2.310   9.718  0.2673  0.4313 -0.1064
 2549TIP3    H131842   3.394   2.226   9.756  0.2054  0.4126 -0.1078
 2549TIP3    H231843   3.279   2.299   9.692  0.1108  0.6554  0.3338
 2550TIP3   OH231844   0.639   4.560  10.552 -0.2569  0.8056 -0.6465
 2550TIP3    H131845   0.602   4.641  10.517 -0.4589  0.3798 -1.4462
 2550TIP3    H231846   0.601   4.491  10.498  1.3388  0.3143 -1.1893
 2551TIP3   OH231847   3.668   2.971   9.649 -0.0878  0.2928  0.2324
 2551TIP3    H131848   3.637   3.061   9.663 -1.2598 -0.1224  0.4592
 2551TIP3    H231849   3.652   2.927   9.733 -0.0715 -0.2697 -0.0549
 2552TIP3   OH231850   6.381   5.717  11.538 -0.3551 -0.1229 -0.0050
 2552TIP3    H131851   6.432   5.792  11.506 -0.1234 -0.1144  0.3830
 2552TIP3    H231852   6.374   5.731  11.632 -2.4194  0.6914 -0.2356
 2553TIP3   OH231853   2.014   3.739  10.769  0.0627 -0.2690 -0.5089
 2553TIP3    H131854   2.019   3.643  10.771  2.7414 -0.1835 -0.2076
 2553TIP3    H231855   2.080   3.765  10.706 -0.4605  1.4203 -0.3944
 2554TIP3   OH231856   1.280   6.704  10.718  0.3769 -0.4115  0.1139
 2554TIP3    H131857   1.199   6.683  10.672 -0.1137  0.4815  0.5368
 2554TIP3    H231858   1.343   6.640  10.687 -0.7692 -1.8291  0.5891
 2555TIP3   OH231859   5.447   0.218  10.697  0.4632  0.2130 -0.0085
 2555TIP3    H131860   5.434   0.127  10.726  0.1625 -0.2820 -1.6256
 2555TIP3    H231861   5.488   0.261  10.773 -0.7305 -0.8823  1.3115
 2556TIP3   OH231862   1.110   3.938  10.550 -0.2272  0.2336 -0.1691
 2556TIP3    H131863   1.096   3.916  10.458  0.1068 -1.1248  0.0732
 2556TIP3    H231864   1.023   3.932  10.589 -0.2753  0.1843 -0.2821
 2557TIP3   OH231865   3.523   3.379  11.084  0.6778  0.5438 -0.3130
 2557TIP3    H131866   3.558   3.467  11.097 -1.1506  1.2168  0.2546
 2557TIP3    H231867   3.436   3.392  11.047  0.9350 -1.0780 -1.6090
 2558TIP3   OH231868   6.404   2.991  10.594 -0.1487  1.0060 -0.1711
 2558TIP3    H131869   6.438   3.045  10.522  1.5159  0.5752  0.2468
 2558TIP3    H231870   6.353   2.922  10.550  0.2956  1.1292 -0.9019
 2559TIP3   OH231871   5.056   4.324  10.212  0.1491 -0.0504  0.1126
 2559TIP3    H131872   5.055   4.375  10.131 -0.3570  1.0881  0.7904
 2559TIP3    H231873   5.136   4.273  10.208  0.6733  0.7901 -0.6326
 2560TIP3   OH231874   2.300   3.188   8.681  1.0052  0.5229  0.4159
 2560TIP3    H131875   2.238   3.189   8.608  1.0116  2.2697  0.4112
 2560TIP3    H231876   2.358   3.114   8.661 -1.2803 -1.4892  0.6532
 2561TIP3   OH231877   2.376   0.441  10.009 -0.0512  0.0893  0.1731
 2561TIP3    H131878   2.284   0.464   9.999 -0.0595  0.4334  0.9984
 2561TIP3    H231879   2.422   0.497   9.946 -0.3642  0.2267  0.0667
 2562TIP3   OH231880   5.413   5.153  10.391  0.0527 -0.2657  0.0082
 2562TIP3    H131881   5.492   5.164  10.443 -0.3106  0.9702  0.3253
 2562TIP3    H231882   5.421   5.065  10.354  0.5654 -0.9957  1.7344
 2563TIP3   OH231883   4.251   4.665  10.195  0.2382 -0.3835 -0.2126
 2563TIP3    H131884   4.318   4.720  10.155 -0.9145  0.4564 -1.0339
 2563TIP3    H231885   4.203   4.627  10.121 -0.7463 -0.2817  0.3585
 2564TIP3   OH231886   1.228   3.896   9.261  0.6336 -0.2951  0.3214
 2564TIP3    H131887   1.201   3.885   9.170  0.5383  2.3923 -0.0340
 2564TIP3    H231888   1.147   3.904   9.310  0.7025  0.7076  0.2792
 2565TIP3   OH231889   3.715   2.671  11.432  0.4189  0.1882 -0.0660
 2565TIP3    H131890   3.650   2.600  11.432 -1.6635  1.9976  0.3040
 2565TIP3    H231891   3.776   2.646  11.501 -0.3034 -1.2072  0.1227
 2566TIP3   OH231892   6.795   1.897  10.859  0.1180 -0.4391  0.0305
 2566TIP3    H131893   6.847   1.972  10.889 -1.3362  0.2861  0.8716
 2566TIP3    H231894   6.804   1.898  10.764  2.6305 -1.1206  0.2027
 2567TIP3   OH231895   0.198   2.370   8.793  0.2695 -0.3686  0.0296
 2567TIP3    H131896   0.177   2.431   8.722  1.5523 -0.4618 -0.4530
 2567TIP3    H231897   0.293   2.359   8.788  0.3562 -0.5971  1.5883
 2568TIP3   OH231898   3.310   3.683  10.212 -0.3902  0.2075 -0.6314
 2568TIP3    H131899   3.255   3.752  10.175 -0.4160  0.4515 -0.1473
 2568TIP3    H231900   3.353   3.724  10.287  0.2232 -0.0703 -0.8245
 2569TIP3   OH231901   4.447   6.618  11.722 -0.2245  0.1376 -0.8781
 2569TIP3    H131902   4.376   6.580  11.774  1.6534  1.2816  2.8866
 2569TIP3    H231903   4.408   6.633  11.636 -3.7661 -1.5065  0.2326
 2570TIP3   OH231904   4.027   1.073  10.662  0.4489 -1.0580  0.3954
 2570TIP3    H131905   4.004   1.004  10.600 -0.6031 -2.1360  1.9470
 2570TIP3    H231906   3.985   1.048  10.744  0.8426  0.9332  1.2667
 2571TIP3   OH231907   1.782   3.799   9.613 -0.6210  0.4585  0.1918
 2571TIP3    H131908   1.844   3.847   9.668 -1.0243  0.6045  0.5242
 2571TIP3    H231909   1.722   3.866   9.581 -1.5305  0.1209  1.1155
 2572TIP3   OH231910   5.513   3.238  10.244  0.3092 -0.0312  0.1631
 2572TIP3    H131911   5.429   3.194  10.226 -1.3855  2.4230  1.4174
 2572TIP3    H231912   5.570   3.211  10.173 -1.6933 -1.4924 -0.9894
 2573TIP3   OH231913   4.948   4.032  11.258  0.0654 -0.4721  0.4012
 2573TIP3    H131914   4.991   4.103  11.306 -0.6782 -0.6957  1.4618
 2573TIP3    H231915   4.872   4.074  11.217  0.5220 -0.3461 -0.3294
 2574TIP3   OH231916   0.782   6.127  10.495  0.2201  0.0572  0.1088
 2574TIP3    H131917   0.692   6.121  10.464  0.3204 -1.4917  0.0386
 2574TIP3    H231918   0.834   6.144  10.417  0.0952 -0.1937 -0.0309
 2575TIP3   OH231919   2.623   5.580   9.492 -0.4571 -0.2452  0.0792
 2575TIP3    H131920   2.564   5.571   9.567 -0.9524  1.7518  0.0057
 2575TIP3    H231921   2.609   5.670   9.462  0.8624 -0.5092 -1.4639
 2576TIP3   OH231922   5.964   6.830  10.767  0.3502  0.3964  0.4783
 2576TIP3    H131923   5.941   6.788  10.850 -1.2253 -1.2491 -0.7036
 2576TIP3    H231924   5.918   6.914  10.769 -0.2785  0.0465  0.9891
 2577TIP3   OH231925   5.826   3.608   8.769  0.0385  0.4524  0.0416
 2577TIP3    H131926   5.732   3.607   8.752 -0.0655 -0.2655  0.5964
 2577TIP3    H231927   5.846   3.518   8.795  0.6416  0.9057  1.1917
 2578TIP3   OH231928   1.789   1.104   9.063 -0.5729 -0.4688  0.0606
 2578TIP3    H131929   1.749   1.028   9.020 -0.9492 -0.0021 -0.4261
 2578TIP3    H231930   1.742   1.111   9.147 -1.6089  0.1275 -0.5429
 2579TIP3   OH231931   0.018   3.546  11.285  0.5392  0.6181 -0.6832
 2579TIP3    H131932  -0.075   3.539  11.262  0.5277 -2.3878 -0.0888
 2579TIP3    H231933   0.056   3.462  11.259  2.8001  1.1992  0.4398
 2580TIP3   OH231934   1.048   4.427  11.221 -0.5797  0.5891  0.0497
 2580TIP3    H131935   0.997   4.508  11.217  0.8538  1.7678  2.8176
 2580TIP3    H231936   0.984   4.358  11.203 -2.7153  2.1346  1.1627
 2581TIP3   OH231937   4.219   4.324  10.600 -0.8850  0.4625 -0.1016
 2581TIP3    H131938   4.201   4.233  10.625  1.0053 -0.5137 -2.0098
 2581TIP3    H231939   4.233   4.369  10.684 -2.7423 -0.7600  0.9204
 2582TIP3   OH231940   0.162   5.368  10.379  0.6355 -0.1184 -0.0938
 2582TIP3    H131941   0.215   5.292  10.401 -1.0450 -0.7217  2.3607
 2582TIP3    H231942   0.106   5.381  10.456  0.0829  2.9422 -0.8765
 2583TIP3   OH231943   0.704   6.777   9.077  0.1420 -0.2869  0.1359
 2583TIP3    H131944   0.787   6.736   9.053  0.3875 -0.5284  1.3355
 2583TIP3    H231945   0.702   6.860   9.028 -0.3699 -1.6580 -2.3643
 2584TIP3   OH231946   5.267   4.374   7.984  0.0691  0.0480  0.6570
 2584TIP3    H131947   5.313   4.292   7.965 -0.5960 -0.1974  0.0522
 2584TIP3    H231948   5.214   4.354   8.060 -2.2423 -0.9834 -1.1094
 2585TIP3   OH231949   5.424   0.045  11.977 -0.3426  0.1899 -0.1110
 2585TIP3    H131950   5.351   0.005  12.025  0.0364  0.4113  0.6646
 2585TIP3    H231951   5.382   0.103  11.913 -0.8901 -0.9650 -0.8482
 2586TIP3   OH231952   4.470   3.347   9.199  0.1927  1.3214 -0.4053
 2586TIP3    H131953   4.419   3.387   9.129 -0.4631  0.3347 -0.5046
 2586TIP3    H231954   4.471   3.253   9.178 -0.8940  0.8605  1.4371
 2587TIP3   OH231955   2.187   2.426   9.106  0.2821 -0.3174 -0.1946
 2587TIP3    H131956   2.175   2.429   9.201  0.6554  2.3404 -0.1580
 2587TIP3    H231957   2.281   2.414   9.094  0.6163  1.8505 -0.1308
 2588TIP3   OH231958   5.988   2.596  11.129 -0.4048  0.0087 -0.5018
 2588TIP3    H131959   5.941   2.625  11.208 -0.5912 -1.6590  0.0301
 2588TIP3    H231960   5.983   2.671  11.070 -3.0370  0.2025 -0.1613
 2589TIP3   OH231961   1.661   1.401  11.144  0.2363  0.3354 -0.0790
 2589TIP3    H131962   1.644   1.469  11.210  2.5974  0.2228  0.7436
 2589TIP3    H231963   1.580   1.396  11.094 -1.4759  0.8372  2.4374
 2590TIP3   OH231964   4.755   4.915  11.873 -0.2798 -0.4186  0.0765
 2590TIP3    H131965   4.843   4.945  11.849 -0.8137  0.9786 -0.2311
 2590TIP3    H231966   4.721   4.985  11.929 -0.6750 -1.6241  1.4013
 2591TIP3   OH231967   0.321   2.525   9.099 -0.3797 -0.2911 -0.5817
 2591TIP3    H131968   0.371   2.573   9.165 -1.6224  0.8134 -0.4227
 2591TIP3    H231969   0.314   2.586   9.025 -2.5348  0.0945 -0.1284
 2592TIP3   OH231970   5.882   4.839   9.930 -0.7723 -0.3586 -0.4886
 2592TIP3    H131971   5.874   4.865  10.022 -0.5154 -0.0142 -0.5640
 2592TIP3    H231972   5.967   4.873   9.903 -1.5008  0.8781 -1.2997
 2593TIP3   OH231973   1.196   6.203   8.445 -0.5681  0.2462  0.4997
 2593TIP3    H131974   1.237   6.152   8.375  1.2147  0.8024  1.0901
 2593TIP3    H231975   1.222   6.293   8.426 -0.8552  0.5175  1.3717
 2594TIP3   OH231976   5.007   0.516  10.034 -0.4950 -0.1538  0.5666
 2594TIP3    H131977   5.096   0.485  10.047  0.0576  0.3803 -1.6386
 2594TIP3    H231978   4.959   0.438  10.004 -0.7575 -0.3893  1.5449
 2595TIP3   OH231979   1.656   5.377  10.418 -0.1401 -0.1929  0.3689
 2595TIP3    H131980   1.591   5.320  10.378 -2.3181  1.9312  0.6731
 2595TIP3    H231981   1.639   5.371  10.512  1.0751 -0.6492  0.5891
 2596TIP3   OH231982   4.650   1.675   9.870 -0.0532  0.3235 -0.1685
 2596TIP3    H131983   4.700   1.595   9.854 -0.8849 -0.0281 -1.1832
 2596TIP3    H231984   4.570   1.646   9.914  0.1872  0.7602  0.5768
 2597TIP3   OH231985   3.059   4.697  10.327  0.5384  0.1132  0.3177
 2597TIP3    H131986   2.966   4.696  10.350  0.0263 -1.3740 -1.5753
 2597TIP3    H231987   3.103   4.714  10.410 -1.4299  2.1937  1.0478
 2598TIP3   OH231988   1.868   5.944  11.775 -0.4063 -0.4144 -0.3432
 2598TIP3    H131989   1.834   6.008  11.712  3.4329  1.8985 -0.3855
 2598TIP3    H231990   1.888   5.867  11.722 -0.8165  0.0526 -1.2012
 2599TIP3   OH231991   5.259   4.919  10.875 -0.1579  0.0823  0.1399
 2599TIP3    H131992   5.173   4.902  10.914 -0.0062  0.6545  0.7185
 2599TIP3    H231993   5.307   4.968  10.941  0.6911 -0.4040 -0.1046
 2600TIP3   OH231994   2.157   2.590   8.647  0.1417  0.9369 -0.1195
 2600TIP3    H131995   2.213   2.543   8.585 -0.5393  2.3631 -1.8963
 2600TIP3    H231996   2.173   2.547   8.731  1.8555 -0.4239 -1.0786
 2601TIP3   OH231997   4.229   2.972  11.375  0.1342 -0.1736  0.6756
 2601TIP3    H131998   4.239   2.914  11.300 -2.1252  1.4920 -1.0232
 2601TIP3    H231999   4.162   2.929  11.429  2.4560 -1.8875  2.4311
 2602TIP3   OH232000   1.317   0.680  10.323 -0.0282  0.0680 -0.3248
 2602TIP3    H132001   1.270   0.642  10.398 -0.3687  3.3332  1.2901
 2602TIP3    H232002   1.408   0.682  10.351 -0.0246  0.5034 -0.3690
 2603TIP3   OH232003   4.102   1.088   9.754 -0.5808 -0.0471  0.4859
 2603TIP3    H132004   4.021   1.041   9.736 -0.4409 -0.4558  0.9140
 2603TIP3    H232005   4.101   1.100   9.849 -0.9780  1.4741  0.3158
 2604TIP3   OH232006   0.700   2.275  11.198  0.5047  0.6192 -0.1141
 2604TIP3    H132007   0.741   2.298  11.281 -0.6473  1.2675  0.3080
 2604TIP3    H232008   0.615   2.239  11.223  1.0554 -1.3641 -0.9233
 2605TIP3   OH232009   4.921   6.319  11.734 -0.2356 -0.2278 -0.4375
 2605TIP3    H132010   4.955   6.233  11.759 -0.1132  0.2920  1.3602
 2605TIP3    H232011   4.827   6.305  11.721 -0.2148 -0.6331 -0.1638
 2606TIP3   OH232012   4.133   4.053  11.428 -0.6995 -0.5064  0.4877
 2606TIP3    H132013   4.153   4.060  11.521 -0.0738 -1.2289  0.4113
 2606TIP3    H232014   4.208   4.092  11.383 -1.7634  1.4375  0.3018
 2607TIP3   OH232015   1.972   0.718   9.848  0.4350  0.2580  0.0452
 2607TIP3    H132016   1.886   0.729   9.890 -0.8933 -0.2595 -2.3662
 2607TIP3    H232017   2.006   0.807   9.839 -0.0697  0.5105  0.5734
 2608TIP3   OH232018   5.513   1.105  10.472  0.0271 -0.1145  0.1207
 2608TIP3    H132019   5.587   1.052  10.441  0.2990  1.0646 -1.4097
 2608TIP3    H232020   5.477   1.056  10.546  2.2147 -0.8291  0.7998
 2609TIP3   OH232021   4.170   3.052  11.746  0.3201  0.3338 -0.0710
 2609TIP3    H132022   4.078   3.036  11.764  0.6574 -0.4210  1.0605
 2609TIP3    H232023   4.170   3.107  11.667 -1.1304  1.6126  0.7587
 2610TIP3   OH232024   0.984   6.163   9.620  0.2042  0.2497  0.4576
 2610TIP3    H132025   0.896   6.125   9.627 -0.0507  0.7119 -0.1443
 2610TIP3    H232026   0.993   6.217   9.699 -0.1616  0.4145  0.3899
 2611TIP3   OH232027   5.395   5.194   9.012  0.0379  0.5219 -0.1541
 2611TIP3    H132028   5.359   5.105   9.019 -1.2100  0.9582 -0.7000
 2611TIP3    H232029   5.320   5.251   9.032  0.9194  1.4575  0.5843
 2612TIP3   OH232030   6.541   3.672  11.635 -0.0201  0.5511  0.4206
 2612TIP3    H132031   6.579   3.672  11.723  0.6077  0.3799  0.1590
 2612TIP3    H232032   6.609   3.633  11.580 -1.3778 -1.8023  0.2580
 2613TIP3   OH232033   0.003   6.128  10.821 -0.1190  0.4211 -0.2321
 2613TIP3    H132034  -0.033   6.081  10.746 -2.6506  0.8079  0.6253
 2613TIP3    H232035  -0.068   6.129  10.885  1.2763  1.8005  1.4102
 2614TIP3   OH232036   4.318   6.076  11.542 -0.1077 -0.5037 -0.4062
 2614TIP3    H132037   4.256   6.059  11.613  1.0813 -0.0221  0.7802
 2614TIP3    H232038   4.367   5.994  11.533  0.2842 -0.3028 -0.1153
 2615TIP3   OH232039   6.258   6.376   8.630  0.5524  0.1527 -0.1025
 2615TIP3    H132040   6.320   6.322   8.582  1.3082  0.2367  0.7388
 2615TIP3    H232041   6.176   6.367   8.583  1.1027 -0.3021 -1.0001
 2616TIP3   OH232042   6.785   0.927   8.615  0.1076 -0.4743  0.5368
 2616TIP3    H132043   6.861   0.972   8.653  0.9444  0.6531 -2.2567
 2616TIP3    H232044   6.821   0.845   8.582  0.3024  0.2871 -1.2538
 2617TIP3   OH232045   6.246   5.192  11.428  0.4653 -0.1708 -0.2680
 2617TIP3    H132046   6.264   5.286  11.431  0.0644 -0.1119  0.6489
 2617TIP3    H232047   6.157   5.184  11.462  0.8485 -0.9711  0.5852
 2618TIP3   OH232048   4.638   6.173  10.433 -0.3562 -0.3711  0.0897
 2618TIP3    H132049   4.695   6.247  10.410  0.3419 -1.3277 -1.4318
 2618TIP3    H232050   4.551   6.212  10.441  0.3407  0.9921  1.6934
 2619TIP3   OH232051   3.569   0.525  11.363 -0.1817  0.0760  0.7946
 2619TIP3    H132052   3.482   0.563  11.347 -0.3293 -0.4579  0.2909
 2619TIP3    H232053   3.613   0.589  11.418  0.1560  1.7879 -1.3154
 2620TIP3   OH232054   0.485   6.693  10.392  0.2808 -1.0331  0.2576
 2620TIP3    H132055   0.407   6.711  10.445  1.1211  0.0492  1.1936
 2620TIP3    H232056   0.519   6.610  10.427  0.0469 -1.0501  0.4468
 2621TIP3   OH232057   2.097   1.865  10.152 -0.3260 -0.6937  0.0733
 2621TIP3    H132058   2.003   1.865  10.139 -0.3544 -0.7642  0.2694
 2621TIP3    H232059   2.112   1.926  10.224 -0.2075 -0.5635 -0.0626
 2622TIP3   OH232060   3.024   4.343   8.945 -0.1008  0.8163 -0.1774
 2622TIP3    H132061   2.930   4.354   8.959 -0.1281  1.2600 -0.7005
 2622TIP3    H232062   3.039   4.250   8.957 -0.7732  0.5829 -1.0628
 2623TIP3   OH232063   5.101   5.138   8.612  0.1022  0.2819  0.1781
 2623TIP3    H132064   5.156   5.092   8.675  1.2279  0.5690 -0.5626
 2623TIP3    H232065   5.088   5.076   8.540 -2.3160 -0.5567  1.2218
 2624TIP3   OH232066   6.238   4.865  10.865 -0.2218 -0.4979 -0.1485
 2624TIP3    H132067   6.276   4.779  10.879 -2.1192 -1.4757 -0.6526
 2624TIP3    H232068   6.280   4.921  10.930  2.8583 -1.1780 -1.4116
 2625TIP3   OH232069   4.856   5.791   8.435 -0.0854 -0.4698  0.0398
 2625TIP3    H132070   4.897   5.768   8.351 -0.2363 -0.2928 -0.0839
 2625TIP3    H232071   4.776   5.739   8.438 -0.1198 -0.4177  0.0377
 2626TIP3   OH232072   5.162   4.658  10.469  0.0706  0.3611 -0.4115
 2626TIP3    H132073   5.208   4.649  10.386  2.8803 -0.7698  1.1122
 2626TIP3    H232074   5.101   4.584  10.471  0.0564  0.3333 -1.3957
 2627TIP3   OH232075   3.293   1.825  11.613  0.3243 -0.0678 -0.0067
 2627TIP3    H132076   3.342   1.905  11.596  1.7069 -1.0586 -0.9158
 2627TIP3    H232077   3.203   1.854  11.626  0.6623  1.5673 -1.0302
 2628TIP3   OH232078   3.441   0.485   9.168 -0.6163  0.2817  0.0628
 2628TIP3    H132079   3.372   0.504   9.232 -0.5471  1.3813 -0.1812
 2628TIP3    H232080   3.432   0.552   9.101 -0.2957 -0.4978 -0.7891
 2629TIP3   OH232081   6.073   3.998   8.866  0.4114 -0.5890  0.3500
 2629TIP3    H132082   6.106   3.959   8.947 -0.6924  2.0816  2.2484
 2629TIP3    H232083   5.990   3.954   8.850 -0.7836  0.7679  2.4093
 2630TIP3   OH232084   5.470   6.576   9.185 -0.1199  0.1194 -0.0474
 2630TIP3    H132085   5.470   6.646   9.119  1.1298 -0.7765 -1.0577
 2630TIP3    H232086   5.558   6.540   9.181 -0.5060 -0.9914  1.0241
 2631TIP3   OH232087   4.010   3.717   8.844  0.0151 -0.6338 -0.3324
 2631TIP3    H132088   3.962   3.634   8.843 -1.5695  0.1946  1.5883
 2631TIP3    H232089   4.063   3.712   8.924 -2.2647  1.2718  1.4403
 2632TIP3   OH232090   1.779   6.838   9.701  0.2805 -0.1838  0.0591
 2632TIP3    H132091   1.740   6.825   9.788 -0.2949  2.3449  0.2742
 2632TIP3    H232092   1.845   6.905   9.715  1.8460 -1.4279 -1.0852
 2633TIP3   OH232093   5.393   4.347   9.559  0.3791  0.2638 -0.3139
 2633TIP3    H132094   5.420   4.423   9.507 -2.5851  1.1799 -0.6674
 2633TIP3    H232095   5.406   4.273   9.501 -1.2160  1.0843 -1.8133
 2634TIP3   OH232096   3.582   5.423   8.051  0.2430  0.6395  0.2422
 2634TIP3    H132097   3.597   5.403   7.959 -0.3617 -0.5815  0.3949
 2634TIP3    H232098   3.574   5.338   8.094  1.7079  1.1440  1.6400
 2635TIP3   OH232099   5.799   2.746   9.964  0.8735  0.1538  0.1918
 2635TIP3    H132100   5.761   2.668  10.004 -0.3296  0.1960 -0.8387
 2635TIP3    H232101   5.799   2.811  10.034 -2.4575  0.6582 -0.1297
 2636TIP3   OH232102   4.501   5.342  10.362  0.1789  0.0362  0.0193
 2636TIP3    H132103   4.526   5.419  10.312  0.9716 -0.4312 -0.3255
 2636TIP3    H232104   4.579   5.320  10.414 -0.6223  0.5211  1.5092
 2637TIP3   OH232105   4.676   6.582   9.334 -0.3127  0.9004  0.0170
 2637TIP3    H132106   4.669   6.528   9.413  2.1014 -1.8600 -1.4392
 2637TIP3    H232107   4.586   6.606   9.313 -2.0367 -4.4798 -0.3038
 2638TIP3   OH232108   6.800   5.031  11.542  0.2369 -0.5395 -0.5540
 2638TIP3    H132109   6.711   5.047  11.508  0.1768  1.5443  0.4831
 2638TIP3    H232110   6.788   5.019  11.636  1.1635  1.0887 -0.1929
 2639TIP3   OH232111   0.061   0.324  10.038  0.0381  0.2169 -0.2929
 2639TIP3    H132112   0.082   0.394   9.976  0.9081  0.3690  0.1481
 2639TIP3    H232113   0.044   0.370  10.120 -0.7783 -0.0055 -0.3331
 2640TIP3   OH232114   2.489   6.639  11.295 -0.8754 -0.3134  0.3410
 2640TIP3    H132115   2.550   6.711  11.313 -0.7789 -0.9365  2.9269
 2640TIP3    H232116   2.403   6.680  11.298 -0.7273  0.3610 -2.2154
 2641TIP3   OH232117   5.926   3.368   9.874  0.0029 -0.0975 -0.1769
 2641TIP3    H132118   5.977   3.289   9.854  2.4464  0.8940  1.6025
 2641TIP3    H232119   5.989   3.440   9.863 -1.2035  1.2740  1.4676
 2642TIP3   OH232120   6.620   3.457   8.145 -0.1222 -0.6830 -0.2448
 2642TIP3    H132121   6.689   3.521   8.163 -1.1349  0.5730 -0.6828
 2642TIP3    H232122   6.653   3.407   8.070  0.6725 -0.6646  0.0839
 2643TIP3   OH232123   2.983   6.136  10.798 -0.3061  0.5155 -0.0079
 2643TIP3    H132124   2.979   6.203  10.729  0.3577 -0.0931 -0.6502
 2643TIP3    H232125   2.924   6.067  10.767 -1.2393  0.9075  0.8051
 2644TIP3   OH232126   4.595   1.826  10.438 -0.2316  0.4922  0.2144
 2644TIP3    H132127   4.608   1.768  10.513 -2.5211 -1.8632 -1.0083
 2644TIP3    H232128   4.675   1.878  10.433  2.3441 -2.9939  1.1245
 2645TIP3   OH232129   4.387   6.260  10.537 -0.0042 -0.2539  0.1176
 2645TIP3    H132130   4.292   6.268  10.532  0.0464 -0.3863 -2.8460
 2645TIP3    H232131   4.412   6.317  10.610 -2.1805  1.7458 -0.5747
 2646TIP3   OH232132   1.437   0.722  11.454  0.4232  0.1719 -0.0446
 2646TIP3    H132133   1.423   0.802  11.504  0.2754  0.1330 -0.0227
 2646TIP3    H232134   1.506   0.744  11.392 -0.8789  0.8968 -1.3152
 2647TIP3   OH232135   0.851   3.723  10.873  0.1132 -0.3021  0.1944
 2647TIP3    H132136   0.799   3.688  10.946  0.3184 -0.3985  0.2960
 2647TIP3    H232137   0.845   3.656  10.805 -0.5617  0.0531 -0.1006
 2648TIP3   OH232138   4.839   3.803   9.988 -0.2376 -0.1857  0.0682
 2648TIP3    H132139   4.754   3.763  10.010  0.1769 -1.3979 -0.4648
 2648TIP3    H232140   4.858   3.860  10.063 -1.7070  0.4297  0.0111
 2649TIP3   OH232141   6.787   3.991  11.740  0.5903 -0.7239  0.2337
 2649TIP3    H132142   6.772   3.962  11.651  0.7933 -1.8599  0.5526
 2649TIP3    H232143   6.853   4.060  11.732 -2.5059  2.3934 -0.9051
 2650TIP3   OH232144   5.586   3.430   9.381  0.2703  0.3544 -0.4487
 2650TIP3    H132145   5.561   3.341   9.405  0.7360  0.2799 -0.2391
 2650TIP3    H232146   5.577   3.432   9.285 -0.6694  0.3746 -0.3662
 2651TIP3   OH232147   5.381   0.517  11.382  0.0342  0.4086  0.1377
 2651TIP3    H132148   5.293   0.503  11.347 -0.2808  0.6029  0.8328
 2651TIP3    H232149   5.407   0.432  11.418  0.7411 -0.0531 -1.3512
 2652TIP3   OH232150   0.330   6.409  10.467  0.1349 -0.4127  0.6177
 2652TIP3    H132151   0.380   6.396  10.548 -3.4180 -1.0645  2.9296
 2652TIP3    H232152   0.324   6.504  10.457  3.4294 -0.2225 -0.9911
 2653TIP3   OH232153   0.661   4.771  11.724 -0.0003 -0.2655  0.2938
 2653TIP3    H132154   0.710   4.699  11.765 -0.1618 -0.9606 -0.6937
 2653TIP3    H232155   0.729   4.834  11.699  0.5497 -1.5961 -1.8069
 2654TIP3   OH232156   2.207   3.208   9.669  0.1756  0.1059  0.5363
 2654TIP3    H132157   2.185   3.220   9.577  0.4840  2.2389  0.7033
 2654TIP3    H232158   2.303   3.213   9.672  0.1594  0.1833  0.9987
 2655TIP3   OH232159   0.674   0.570  11.721  0.0586  0.2190  0.5379
 2655TIP3    H132160   0.714   0.656  11.705  0.2895  0.0888  0.4128
 2655TIP3    H232161   0.582   0.590  11.739 -0.0812  0.4228 -0.3373
 2656TIP3   OH232162   2.578   2.826   9.495  0.1131 -0.2955  0.1726
 2656TIP3    H132163   2.619   2.847   9.411  0.0017 -1.1900 -0.1196
 2656TIP3    H232164   2.488   2.858   9.487  0.5301  1.0252  0.5469
 2657TIP3   OH232165   0.200   2.490  10.781  0.2394  0.0144  0.0842
 2657TIP3    H132166   0.149   2.544  10.721 -0.5712 -0.8024  0.0219
 2657TIP3    H232167   0.142   2.473  10.854  0.0149 -1.8125 -0.4742
 2658TIP3   OH232168   6.574   3.930  10.208  0.2750 -0.2281 -0.1157
 2658TIP3    H132169   6.542   4.014  10.242 -0.4718 -0.1476 -0.9704
 2658TIP3    H232170   6.500   3.896  10.157  0.6849 -1.2569 -0.0329
 2659TIP3   OH232171   2.675   6.382  11.875  0.5780  0.3298 -0.0007
 2659TIP3    H132172   2.638   6.402  11.960  0.5552  0.6631 -0.0880
 2659TIP3    H232173   2.749   6.443  11.866 -0.3049  1.3090 -0.8343
 2660TIP3   OH232174   6.703   0.079  10.430 -0.1352 -0.0740 -0.0595
 2660TIP3    H132175   6.767   0.011  10.411 -0.5392 -0.5718  0.3352
 2660TIP3    H232176   6.747   0.137  10.492 -0.1480 -0.5488  0.3965
 2661TIP3   OH232177   5.144   1.234  11.752 -0.1025 -0.9114  0.3515
 2661TIP3    H132178   5.162   1.167  11.686 -0.1270  0.4973 -1.1522
 2661TIP3    H232179   5.223   1.236  11.806  0.6236 -0.9532 -0.6692
 2662TIP3   OH232180   1.615   5.713   9.308 -0.2222  0.0081 -0.2268
 2662TIP3    H132181   1.587   5.750   9.392  2.5597 -2.7617  2.2109
 2662TIP3    H232182   1.678   5.777   9.274 -2.5049  1.9031 -1.1580
 2663TIP3   OH232183   4.932   4.231   9.935  0.4174  0.2569  0.4174
 2663TIP3    H132184   4.856   4.203   9.884  0.5720  0.5293  0.0294
 2663TIP3    H232185   5.005   4.228   9.873  0.4698  1.3491  0.3910
 2664TIP3   OH232186   2.366   1.427   9.191  0.1970 -0.0335 -0.0062
 2664TIP3    H132187   2.336   1.347   9.147  0.9634 -0.6214  0.5219
 2664TIP3    H232188   2.293   1.451   9.248  0.2175 -0.7423  0.3281
 2665TIP3   OH232189   5.699   6.481   9.787 -0.3145  0.0454  0.0129
 2665TIP3    H132190   5.661   6.569   9.784 -0.1581  0.1056 -0.1601
 2665TIP3    H232191   5.721   6.469   9.879 -0.7956 -0.0076  0.1248
 2666TIP3   OH232192   6.598   2.616  11.444  0.4524 -0.0822  0.0105
 2666TIP3    H132193   6.641   2.542  11.486  0.2602 -0.6980 -0.8588
 2666TIP3    H232194   6.621   2.608  11.351 -0.0954  0.5814 -0.1929
 2667TIP3   OH232195   2.701   4.037   9.199 -0.2588 -0.5598 -0.0074
 2667TIP3    H132196   2.733   4.122   9.229 -1.6395 -0.5968  1.8329
 2667TIP3    H232197   2.724   3.977   9.269 -0.1372 -1.5162 -0.8485
 2668TIP3   OH232198   4.070   2.316  11.980  0.4994  0.6258 -0.1335
 2668TIP3    H132199   4.115   2.299  12.063  0.8115 -1.0257 -0.6044
 2668TIP3    H232200   4.141   2.332  11.918  0.2808  1.4579 -0.1800
 2669TIP3   OH232201   5.749   5.766   9.312 -0.0684 -0.5628  0.6078
 2669TIP3    H132202   5.780   5.690   9.264  0.9899 -0.2837  0.8232
 2669TIP3    H232203   5.757   5.839   9.251  1.8928 -0.0930  1.3679
 2670TIP3   OH232204   3.496   5.213   8.517 -0.8082 -0.1476 -0.1476
 2670TIP3    H132205   3.509   5.123   8.546 -2.5005  0.1078  1.6513
 2670TIP3    H232206   3.409   5.213   8.478 -1.7544  1.0632  1.7958
 2671TIP3   OH232207   3.076   6.224  11.036  0.0689  0.8144  0.1755
 2671TIP3    H132208   3.020   6.232  11.113  1.1079  1.2095  0.9118
 2671TIP3    H232209   3.019   6.186  10.969 -0.6020 -0.5143  1.4292
 2672TIP3   OH232210   6.751   5.047  10.844  0.2799 -0.6329  0.1042
 2672TIP3    H132211   6.843   5.041  10.868  0.6103 -2.0335 -1.3326
 2672TIP3    H232212   6.707   5.078  10.923  1.8047 -1.1842  1.2129
 2673TIP3   OH232213   5.426   3.178   9.688  0.2684  0.0605 -0.2809
 2673TIP3    H132214   5.509   3.209   9.726  0.0941 -0.5632  0.6417
 2673TIP3    H232215   5.406   3.099   9.737 -0.0350 -0.7224 -1.6289
 2674TIP3   OH232216   2.141   5.583  10.953  0.5806  0.1420 -0.2543
 2674TIP3    H132217   2.193   5.584  10.872  0.7032 -0.9122 -0.2095
 2674TIP3    H232218   2.201   5.615  11.020  0.0543  2.3931 -0.7833
 2675TIP3   OH232219   4.938   3.431  10.665  0.8283 -0.2818  0.0202
 2675TIP3    H132220   5.020   3.479  10.653  0.4391  0.0885 -1.3444
 2675TIP3    H232221   4.890   3.482  10.730  2.1992 -1.2437  1.8980
 2676TIP3   OH232222   0.331   1.784   8.866 -1.0503  0.6967  0.3520
 2676TIP3    H132223   0.296   1.754   8.950 -0.0673 -1.5521  0.0237
 2676TIP3    H232224   0.401   1.722   8.845 -0.8973  1.5162 -1.8810
 2677TIP3   OH232225   0.143   2.520   9.316  0.1315 -0.0874 -0.3256
 2677TIP3    H132226   0.173   2.491   9.229 -0.5225 -0.9758 -0.2703
 2677TIP3    H232227   0.187   2.461   9.377 -0.6711 -0.5355 -0.1668
 2678TIP3   OH232228   0.888   0.622  10.970  0.0824 -0.1095 -0.3279
 2678TIP3    H132229   0.830   0.669  10.911 -0.5620  0.7360  0.9402
 2678TIP3    H232230   0.856   0.532  10.968 -0.2925  0.0306 -0.8016
 2679TIP3   OH232231   0.501   5.392  11.556  0.0827  0.5221 -0.3526
 2679TIP3    H132232   0.542   5.390  11.643  1.9287  1.2833 -1.1518
 2679TIP3    H232233   0.501   5.484  11.531 -0.1141  0.2789 -1.2976
 2680TIP3   OH232234   0.528   5.668  11.526 -0.4524  0.1993  0.4443
 2680TIP3    H132235   0.560   5.692  11.440 -0.5520  1.3500  0.7124
 2680TIP3    H232236   0.575   5.726  11.587 -0.9849 -0.0228  1.0831
 2681TIP3   OH232237   3.340   5.084   7.881 -0.2275 -0.3766 -0.1228
 2681TIP3    H132238   3.323   5.172   7.912  2.9528  0.2947  0.0975
 2681TIP3    H232239   3.414   5.093   7.820 -0.9650 -2.6826 -1.5196
 2682TIP3   OH232240   0.028   6.804  11.398  0.2610 -0.1767  0.0027
 2682TIP3    H132241   0.080   6.724  11.391  0.4793 -0.0040 -0.4093
 2682TIP3    H232242   0.029   6.841  11.309 -1.7934 -0.9407 -0.3947
 2683TIP3   OH232243   0.420   6.198   9.664  0.7644  0.3529 -0.1379
 2683TIP3    H132244   0.493   6.258   9.678  0.2426  0.7932  0.7816
 2683TIP3    H232245   0.349   6.233   9.719 -0.3284  0.2710 -1.4216
 2684TIP3   OH232246   4.248   6.225  10.190  0.2307 -0.2695 -0.0999
 2684TIP3    H132247   4.221   6.282  10.262 -0.1164  1.5258 -1.5724
 2684TIP3    H232248   4.339   6.249  10.174 -0.0408  0.2350 -1.0020
 2685TIP3   OH232249   4.773   0.751  11.047  0.8311 -0.2450  0.4012
 2685TIP3    H132250   4.744   0.671  11.090  1.9206 -0.9171 -0.0774
 2685TIP3    H232251   4.850   0.725  10.997  0.8348  0.9716 -0.2646
 2686TIP3   OH232252   6.170   3.706  12.044  0.0969 -0.0510  0.7990
 2686TIP3    H132253   6.253   3.728  12.002 -0.8024  0.8458 -0.6122
 2686TIP3    H232254   6.182   3.729  12.136  1.1472  0.8085  0.4609
 2687TIP3   OH232255   4.162   5.215  10.729 -0.0335 -0.7263 -0.5852
 2687TIP3    H132256   4.233   5.259  10.776 -0.6451  0.1502 -0.4573
 2687TIP3    H232257   4.172   5.244  10.638  0.3859 -1.4167 -0.7623
 2688TIP3   OH232258   3.832   6.058  10.994 -0.0896 -0.3178 -0.1555
 2688TIP3    H132259   3.812   6.077  10.903 -0.5722  1.2199  0.2500
 2688TIP3    H232260   3.890   5.982  10.990  0.6419  0.2840 -1.7868
 2689TIP3   OH232261   1.972   3.986  10.595  0.0525  0.7121  0.3340
 2689TIP3    H132262   1.935   3.909  10.551  2.1260 -1.0994  1.5946
 2689TIP3    H232263   2.036   4.021  10.533  1.7425 -0.8250  1.1362
 2690TIP3   OH232264   2.771   6.091   9.287  0.3195  0.2870 -0.6280
 2690TIP3    H132265   2.797   5.999   9.290  0.6748  0.3513 -1.4295
 2690TIP3    H232266   2.683   6.089   9.250 -0.1491  0.1960  0.4514
 2691TIP3   OH232267   4.947   4.882  10.312 -0.6454 -0.8542 -0.0383
 2691TIP3    H132268   4.921   4.870  10.221  0.6854  0.0217 -0.5738
 2691TIP3    H232269   5.043   4.891  10.309 -0.4918 -1.5028  1.5276
 2692TIP3   OH232270   2.525   5.842   9.486 -0.4468 -0.5833 -0.3671
 2692TIP3    H132271   2.574   5.878   9.560  1.1358 -0.8329 -1.2511
 2692TIP3    H232272   2.441   5.888   9.488  0.2094  0.6263  0.5925
 2693TIP3   OH232273   3.313   2.759  11.542 -0.3596  0.2330 -0.2793
 2693TIP3    H132274   3.265   2.825  11.493 -2.9049 -1.5562 -0.3597
 2693TIP3    H232275   3.366   2.810  11.604 -2.0292  2.3715 -0.4774
 2694TIP3   OH232276   3.577   3.214  10.795 -0.0953  0.3201 -0.4568
 2694TIP3    H132277   3.581   3.185  10.886  0.1228 -0.3557 -0.6790
 2694TIP3    H232278   3.505   3.164  10.757  1.1149 -0.9451 -1.1857
 2695TIP3   OH232279   4.292   6.732   8.750  0.1383  0.3566 -0.0368
 2695TIP3    H132280   4.291   6.824   8.776  0.0365  0.1568  0.7110
 2695TIP3    H232281   4.372   6.697   8.790 -0.6124 -0.2291  1.0083
 2696TIP3   OH232282   1.592   0.743   9.291  0.0097  0.6191  0.7266
 2696TIP3    H132283   1.582   0.770   9.382 -0.0410  3.3973  0.0049
 2696TIP3    H232284   1.590   0.825   9.242 -0.0759 -0.7959 -1.8029
 2697TIP3   OH232285   2.454   2.116   8.736  0.1605 -0.2973  0.7408
 2697TIP3    H132286   2.520   2.156   8.792 -0.0446 -0.5686  1.1897
 2697TIP3    H232287   2.387   2.085   8.797  0.0651 -0.8452  0.3673
 2698TIP3   OH232288   5.639   0.493  11.227 -0.2433  0.1435 -1.2476
 2698TIP3    H132289   5.664   0.484  11.319 -0.8218 -0.1028 -1.1116
 2698TIP3    H232290   5.580   0.568  11.225 -1.0738 -0.4956 -1.2418
 2699TIP3   OH232291   1.487   2.904   9.257  0.7341 -0.5384 -0.4891
 2699TIP3    H132292   1.468   2.849   9.333  0.7822  0.7725  0.5081
 2699TIP3    H232293   1.400   2.930   9.225  0.7284  0.2466  0.1417
 2700TIP3   OH232294   4.163   5.672   9.582 -0.0924  0.4611  1.2908
 2700TIP3    H132295   4.188   5.582   9.562  1.7169  1.1364  0.3420
 2700TIP3    H232296   4.079   5.684   9.537 -0.0271 -0.5348  0.8802
 2701TIP3   OH232297   0.329   4.792  10.224  0.0306  0.1950 -0.7272
 2701TIP3    H132298   0.284   4.713  10.253 -2.3932  1.4003 -0.9535
 2701TIP3    H232299   0.259   4.856  10.210  1.9156  2.4995 -0.2710
 2702TIP3   OH232300   3.194   5.226  11.161 -0.5389 -0.1072 -0.1195
 2702TIP3    H132301   3.132   5.167  11.204 -1.1550  1.3642  1.1121
 2702TIP3    H232302   3.245   5.170  11.103 -1.5259 -1.7228  0.5204
 2703TIP3   OH232303   3.015   3.550  11.820 -0.4038  0.0267 -0.4001
 2703TIP3    H132304   3.050   3.476  11.868 -0.3091  0.1826 -0.2298
 2703TIP3    H232305   3.081   3.619  11.828 -1.3386  0.8089  1.1141
 2704TIP3   OH232306   0.368   5.159  10.440  0.2360 -0.1437 -0.2629
 2704TIP3    H132307   0.445   5.183  10.492 -0.3126  2.3313 -0.4626
 2704TIP3    H232308   0.398   5.169  10.349 -0.3312  1.0445 -0.3405
 2705TIP3   OH232309   3.189   4.765  11.166  0.2068 -0.4381 -0.5619
 2705TIP3    H132310   3.268   4.712  11.172  0.5469  0.0084 -0.9839
 2705TIP3    H232311   3.118   4.705  11.185  0.6701 -0.7837  0.0950
 2706TIP3   OH232312   0.543   0.917   9.508  0.6418 -0.2265 -0.1761
 2706TIP3    H132313   0.633   0.898   9.532  0.2019 -1.8406  0.3038
 2706TIP3    H232314   0.526   0.864   9.430  1.0810  2.5997 -2.3901
 2707TIP3   OH232315   0.002   4.550  10.184  0.3562  0.6284  0.8762
 2707TIP3    H132316  -0.056   4.477  10.159  0.9379  0.8849 -1.5016
 2707TIP3    H232317   0.015   4.598  10.102  3.3207  1.0064  1.4817
 2708TIP3   OH232318   1.944   0.928  10.632 -0.7954  0.2067 -0.0184
 2708TIP3    H132319   1.964   0.888  10.548 -0.1215  1.3012 -0.4069
 2708TIP3    H232320   2.013   0.896  10.691 -0.5057  0.4626 -0.2179
 2709TIP3   OH232321   5.057   6.221   9.827  0.3913  0.3113 -0.7318
 2709TIP3    H132322   5.126   6.185   9.883  0.1396  1.9624  0.7302
 2709TIP3    H232323   5.104   6.273   9.762  0.6111 -0.4190 -1.1712
 2710TIP3   OH232324   5.609   0.474   8.957 -0.1660  0.2001  0.4664
 2710TIP3    H132325   5.531   0.528   8.967 -0.2570  0.1549  0.0304
 2710TIP3    H232326   5.599   0.405   9.022 -0.1339  0.6038  0.9083
 2711TIP3   OH232327   3.221   0.329  11.183 -0.3498  0.1266 -0.5452
 2711TIP3    H132328   3.187   0.389  11.249 -0.9770 -1.1449  0.3243
 2711TIP3    H232329   3.144   0.282  11.151  0.2685 -1.1087 -0.2845
 2712TIP3   OH232330   3.545   6.778  11.609 -0.8844  0.0982 -0.1481
 2712TIP3    H132331   3.557   6.841  11.680 -0.9201  2.2027 -1.8965
 2712TIP3    H232332   3.628   6.730  11.605 -0.6361  0.4171  0.8621
 2713TIP3   OH232333   2.887   6.739   8.144  0.0692 -0.5786 -0.2142
 2713TIP3    H132334   2.927   6.681   8.210  1.3812 -1.3891 -1.6448
 2713TIP3    H232335   2.823   6.683   8.100 -0.1874 -0.2952 -0.2017
 2714TIP3   OH232336   2.847   0.263   9.234  0.3900  0.1708  0.1104
 2714TIP3    H132337   2.917   0.317   9.196  0.2739  1.2339  1.3268
 2714TIP3    H232338   2.767   0.301   9.198  0.2464  1.5381  1.7467
 2715TIP3   OH232339   3.384   2.969   9.435  0.1071 -0.6914  0.1061
 2715TIP3    H132340   3.327   3.044   9.417  0.4411 -0.3648  0.4019
 2715TIP3    H232341   3.463   3.007   9.473  0.3383 -1.1822  0.1269
 2716TIP3   OH232342   5.273   2.349  11.326  0.1600 -0.1345  0.8696
 2716TIP3    H132343   5.309   2.405  11.394 -0.5436  0.8853  0.4288
 2716TIP3    H232344   5.284   2.398  11.245  0.7916 -1.2388  0.2533
 2717TIP3   OH232345   0.636   4.005  10.634 -0.3644  0.6848 -0.2657
 2717TIP3    H132346   0.614   4.097  10.649  0.3276  0.8107  0.0440
 2717TIP3    H232347   0.635   3.994  10.539 -0.0322  1.1233 -0.3230
 2718TIP3   OH232348   6.666   1.654  11.629  0.2602 -0.1509  0.6148
 2718TIP3    H132349   6.759   1.668  11.646  0.0277  1.1426  0.9125
 2718TIP3    H232350   6.648   1.705  11.551 -0.9733  2.8178  2.6637
 2719TIP3   OH232351   2.980   3.484  10.400 -1.1230  0.2328  0.2228
 2719TIP3    H132352   3.063   3.515  10.435 -0.4527  0.2483 -1.3139
 2719TIP3    H232353   2.940   3.435  10.472  0.6953 -0.6901  0.6570
 2720TIP3   OH232354   2.430   0.288  11.677  0.3808  0.4483 -0.3686
 2720TIP3    H132355   2.514   0.241  11.677  0.2362  0.0887  1.8623
 2720TIP3    H232356   2.427   0.331  11.763 -1.6190  0.6370 -0.4993
 2721TIP3   OH232357   6.611   1.518  10.343  0.1445 -0.2697  0.8332
 2721TIP3    H132358   6.560   1.554  10.271  1.0981  0.7554  0.6291
 2721TIP3    H232359   6.666   1.451  10.303  1.2968  0.8810  0.3794
 2722TIP3   OH232360   5.595   0.909  11.012  0.5580 -0.0182  0.8083
 2722TIP3    H132361   5.647   0.856  10.952  2.0082  0.9957  1.1207
 2722TIP3    H232362   5.596   0.996  10.974  2.6243  0.9752  2.8624
 2723TIP3   OH232363   4.076   3.349   9.892 -0.1171  0.1920  0.1743
 2723TIP3    H132364   4.069   3.328   9.985  2.6330  0.8378  0.6140
 2723TIP3    H232365   4.016   3.287   9.849 -2.1338  0.4623  2.3691
 2724TIP3   OH232366   3.662   6.531   9.850 -0.2654 -0.0580 -0.0554
 2724TIP3    H132367   3.750   6.564   9.832 -0.2922  0.4374  0.7063
 2724TIP3    H232368   3.607   6.610   9.855 -0.4206 -0.2341  1.2671
 2725TIP3   OH232369   2.584   4.409  11.069 -0.4091 -0.1713  0.2011
 2725TIP3    H132370   2.493   4.396  11.096 -1.1574  1.0413 -1.5364
 2725TIP3    H232371   2.633   4.416  11.151 -2.2016  1.1660  1.2239
 2726TIP3   OH232372   2.595   4.925  10.332  0.6591 -0.1972 -0.1284
 2726TIP3    H132373   2.546   4.970  10.401  0.7602  0.9712 -0.8038
 2726TIP3    H232374   2.531   4.869  10.289  0.6779 -1.2454  1.1466
 2727TIP3   OH232375   1.607   5.844  11.445  0.2176 -0.0712  0.2292
 2727TIP3    H132376   1.576   5.773  11.501  2.5098 -0.5551  0.9707
 2727TIP3    H232377   1.636   5.801  11.365  0.0669  0.2371  0.0051
 2728TIP3   OH232378   6.095   3.984   9.566 -0.3002 -0.1699 -0.0677
 2728TIP3    H132379   6.188   3.969   9.546 -0.2253 -0.0775  0.1966
 2728TIP3    H232380   6.066   4.047   9.500  0.7515  2.5815  1.8524
 2729TIP3   OH232381   6.316   1.836  10.378 -0.3112  0.6491 -0.7393
 2729TIP3    H132382   6.373   1.813  10.451 -1.0205  0.0164 -0.3629
 2729TIP3    H232383   6.372   1.829  10.300  0.1229  0.0422 -0.3799
 2730TIP3   OH232384   0.122   0.751   8.985  0.4518  0.6047 -0.0532
 2730TIP3    H132385   0.087   0.840   8.978 -0.1375  0.3270 -0.7376
 2730TIP3    H232386   0.044   0.695   8.989  0.7970  0.1802  1.4259
 2731TIP3   OH232387   5.387   3.291   8.973  0.1029 -0.3968  0.6955
 2731TIP3    H132388   5.359   3.202   8.994  0.2499 -0.2169  1.7013
 2731TIP3    H232389   5.361   3.343   9.049  0.5771  0.2995  0.3906
 2732TIP3   OH232390   5.553   1.954  10.950  0.1190 -0.2371 -0.1015
 2732TIP3    H132391   5.579   1.895  10.880 -0.1520 -2.2911  1.4369
 2732TIP3    H232392   5.634   1.971  10.999  0.0510  0.0321 -0.0795
 2733TIP3   OH232393   5.415   2.028   9.371 -0.0046  0.3630 -0.1376
 2733TIP3    H132394   5.484   2.000   9.431 -0.0581 -0.4649 -0.4525
 2733TIP3    H232395   5.415   2.123   9.377  0.5945  0.3276  0.5010
 2734TIP3   OH232396   3.831   0.987   9.779  0.4120 -0.5469 -0.1131
 2734TIP3    H132397   3.753   1.042   9.786  0.1730 -1.0858  1.9895
 2734TIP3    H232398   3.806   0.919   9.716 -0.2933  0.0765 -0.5344
 2735TIP3   OH232399   3.274   5.213   9.155  0.0937  0.7047 -0.0758
 2735TIP3    H132400   3.342   5.193   9.090 -0.0262 -1.3173  0.3669
 2735TIP3    H232401   3.205   5.256   9.104  0.0431 -0.7561 -1.3208
 2736TIP3   OH232402   6.011   4.110   8.280 -0.3749 -0.6003  0.0611
 2736TIP3    H132403   6.025   4.180   8.216 -1.0185 -0.3129  0.2323
 2736TIP3    H232404   5.937   4.061   8.246 -0.4337 -0.7186  0.3610
 2737TIP3   OH232405   3.506   1.694  11.509 -0.5015 -0.0557  0.1724
 2737TIP3    H132406   3.424   1.734  11.535 -0.8957 -1.0682  0.5365
 2737TIP3    H232407   3.504   1.693  11.413  0.8036  3.3701 -0.0097
 2738TIP3   OH232408   0.685   5.724  10.988  1.1539  0.0753  0.4928
 2738TIP3    H132409   0.688   5.687  10.899  0.6904 -2.9841  1.6227
 2738TIP3    H232410   0.755   5.679  11.035 -0.3241 -0.4401  2.3411
 2739TIP3   OH232411   2.145   1.430  11.405  0.0093  0.8885  0.2285
 2739TIP3    H132412   2.117   1.419  11.314  1.8054 -0.7634 -0.1958
 2739TIP3    H232413   2.088   1.499  11.440 -1.9222  0.3298 -1.6124
 2740TIP3   OH232414   5.189   5.159  11.841 -0.2663  0.7677  0.0107
 2740TIP3    H132415   5.184   5.157  11.936 -0.4014 -0.0743 -0.0058
 2740TIP3    H232416   5.114   5.106  11.812  1.0171 -0.8664 -0.5121
 2741TIP3   OH232417   5.159   5.039   8.870 -0.4077  0.0477  0.2185
 2741TIP3    H132418   5.143   4.946   8.858 -1.1148  0.0522  0.9970
 2741TIP3    H232419   5.148   5.053   8.964 -1.1800  1.0729 -0.0128
 2742TIP3   OH232420   0.347   1.275  10.004 -0.5831  0.4461  0.3408
 2742TIP3    H132421   0.431   1.229  10.001 -0.4310  0.6947  0.6496
 2742TIP3    H232422   0.303   1.240  10.081 -1.8472 -1.5003 -1.2006
 2743TIP3   OH232423   1.604   6.416  10.442  0.4216 -0.0434  0.2336
 2743TIP3    H132424   1.601   6.504  10.478  1.8335  0.5476 -0.9515
 2743TIP3    H232425   1.513   6.388  10.438 -0.2743  2.1065 -1.0505
 2744TIP3   OH232426   1.230   4.022   8.491 -0.0168  0.2518 -0.0871
 2744TIP3    H132427   1.310   4.049   8.447 -0.3619  0.9903 -0.2609
 2744TIP3    H232428   1.162   4.080   8.458 -0.8923 -1.1598 -0.8856
 2745TIP3   OH232429   2.764   4.499  11.682  0.3031  0.1541  0.4895
 2745TIP3    H132430   2.845   4.541  11.710 -0.5626  2.0324  0.3282
 2745TIP3    H232431   2.712   4.569  11.643 -0.5293 -1.4170 -1.4407
 2746TIP3   OH232432   1.475   3.605  11.485  0.3797  0.1898  0.2473
 2746TIP3    H132433   1.475   3.574  11.394 -1.5845  1.0532 -0.1028
 2746TIP3    H232434   1.446   3.696  11.479  0.7157  0.4225  1.7165
 2747TIP3   OH232435   3.899   0.164   9.555  0.2765 -0.8109  0.0568
 2747TIP3    H132436   3.927   0.156   9.464 -1.5769 -0.4231 -0.5767
 2747TIP3    H232437   3.980   0.184   9.603  1.2216 -0.6537 -1.5314
 2748TIP3   OH232438   0.250   0.800   9.526 -0.2263  0.0674 -0.5978
 2748TIP3    H132439   0.244   0.705   9.539  0.3504  0.1764  0.6388
 2748TIP3    H232440   0.199   0.838   9.598  0.4085  0.6898 -0.4574
 2749TIP3   OH232441   5.846   2.383   9.382  0.2684 -0.2576 -0.2560
 2749TIP3    H132442   5.828   2.336   9.463  0.9018  2.3434  1.5295
 2749TIP3    H232443   5.910   2.450   9.407 -2.1940  3.0330 -1.9945
 2750TIP3   OH232444   3.121   6.366  11.560  0.1449  0.0496 -0.1220
 2750TIP3    H132445   3.130   6.447  11.610 -1.0807  0.6973 -0.8929
 2750TIP3    H232446   3.094   6.394  11.473 -3.2235 -1.2111  0.3265
 2751TIP3   OH232447   5.741   5.957  10.634 -0.4196 -0.2249  0.4990
 2751TIP3    H132448   5.747   6.011  10.713  1.5053 -0.5477  0.6219
 2751TIP3    H232449   5.804   5.886  10.648 -0.6217 -0.7429 -0.9811
 2752TIP3   OH232450   4.830   1.540   8.741  0.2414  0.0014 -0.0924
 2752TIP3    H132451   4.803   1.543   8.649 -0.2099  0.0772  0.0406
 2752TIP3    H232452   4.844   1.447   8.759  0.5717  0.0103 -0.3091
 2753TIP3   OH232453   1.598   2.392  10.405 -0.2179 -0.5992 -0.6648
 2753TIP3    H132454   1.664   2.419  10.342 -0.9196  0.2617 -1.0601
 2753TIP3    H232455   1.535   2.465  10.406 -0.5024 -0.8345  0.6211
 2754TIP3   OH232456   5.476   1.624   9.741 -0.1169  0.2884  0.1916
 2754TIP3    H132457   5.539   1.653   9.675  0.2572 -0.6799  0.1073
 2754TIP3    H232458   5.527   1.566   9.798 -0.8419 -0.2106  0.3421
 2755TIP3   OH232459   3.630   2.011   9.097 -0.1471 -0.7732  0.2920
 2755TIP3    H132460   3.570   2.018   9.171  0.5898 -0.9762  0.9276
 2755TIP3    H232461   3.623   1.920   9.069  1.2730 -1.3276  1.6187
 2756TIP3   OH232462   2.691   6.394   9.994 -0.0274 -0.3393  0.1983
 2756TIP3    H132463   2.669   6.487   9.999  1.5950  0.0886 -0.0480
 2756TIP3    H232464   2.742   6.386   9.914 -0.6403 -1.5698 -0.0916
 2757TIP3   OH232465   4.360   5.752   8.777 -0.2083  0.5808  0.3571
 2757TIP3    H132466   4.326   5.800   8.701 -0.7611 -0.3073  0.0273
 2757TIP3    H232467   4.430   5.697   8.742  0.0809  0.7556  0.6455
 2758TIP3   OH232468   0.994   0.850  10.078  0.3490 -0.3401 -0.4637
 2758TIP3    H132469   0.994   0.833   9.983  0.1042  1.2287 -0.7679
 2758TIP3    H232470   1.051   0.925  10.089 -0.3821  0.0901  0.5205
 2759TIP3   OH232471   5.801   4.456  10.828  0.0327  0.2949 -0.2106
 2759TIP3    H132472   5.890   4.463  10.862 -0.2754  0.9065  0.4809
 2759TIP3    H232473   5.805   4.382  10.767  0.4924 -1.2109  1.5340
 2760TIP3   OH232474   3.423   1.748   9.951  0.3653 -0.5519 -0.3007
 2760TIP3    H132475   3.443   1.743  10.044  0.9123 -0.3265 -0.4033
 2760TIP3    H232476   3.508   1.744   9.907  0.2827  1.1163 -0.7130
 2761TIP3   OH232477   1.280   5.432   9.756 -0.3994  0.7112 -0.0065
 2761TIP3    H132478   1.298   5.358   9.813 -0.2948  1.0888  0.4558
 2761TIP3    H232479   1.326   5.411   9.674  0.2852  0.6297  0.3922
 2762TIP3   OH232480   6.113   6.463  11.554 -0.2233 -0.1687 -0.0003
 2762TIP3    H132481   6.073   6.383  11.588 -1.5716  0.5980  0.2885
 2762TIP3    H232482   6.135   6.442  11.463 -0.4112 -0.9111  0.1170
 2763TIP3   OH232483   4.481   5.491  11.177  0.3694  0.2860 -0.3834
 2763TIP3    H132484   4.479   5.400  11.208  0.3371  0.4414  0.0722
 2763TIP3    H232485   4.390   5.512  11.159  0.2805  0.4903  0.2844
 2764TIP3   OH232486   3.543   3.566  11.571  0.1893 -1.1119  0.3790
 2764TIP3    H132487   3.490   3.644  11.553  0.8591 -0.7676 -0.1620
 2764TIP3    H232488   3.490   3.515  11.632 -0.7320 -0.7482 -0.0933
 2765TIP3   OH232489   1.038   0.391   8.912  0.3115 -0.2011  0.4860
 2765TIP3    H132490   0.974   0.390   8.840  0.1705  0.4839  0.5930
 2765TIP3    H232491   1.081   0.476   8.904  0.6218 -0.3138  0.9376
 2766TIP3   OH232492   2.759   1.353  10.466 -0.1705  0.0035 -0.5101
 2766TIP3    H132493   2.698   1.416  10.503  0.5176 -0.3104  1.2451
 2766TIP3    H232494   2.810   1.321  10.540  2.5193  0.6526 -1.9360
 2767TIP3   OH232495   1.007   6.720   9.136  0.3580  0.0760 -0.3849
 2767TIP3    H132496   1.016   6.808   9.099 -0.0394  0.3020  0.0441
 2767TIP3    H232497   1.076   6.669   9.093 -0.2131  0.2768 -1.5729
 2768TIP3   OH232498   3.579   4.803   9.532  0.0298  0.4739  0.5302
 2768TIP3    H132499   3.499   4.849   9.508 -0.0120  0.2238  0.1806
 2768TIP3    H232500   3.608   4.846   9.613 -0.6348  0.3389  0.8479
 2769TIP3   OH232501   0.251   0.636  10.783  0.1347 -0.3672 -0.2347
 2769TIP3    H132502   0.267   0.552  10.825  1.8849  0.0163 -0.0229
 2769TIP3    H232503   0.159   0.656  10.801  0.2163 -1.3229  1.3811
 2770TIP3   OH232504   2.800   5.103  11.673 -0.4668 -0.9513 -0.1488
 2770TIP3    H132505   2.757   5.154  11.741 -2.1283 -1.4054 -0.8188
 2770TIP3    H232506   2.744   5.112  11.596  0.4782 -1.8107 -0.9693
 2771TIP3   OH232507   1.392   0.645  11.055  0.4134 -0.1581 -0.2054
 2771TIP3    H132508   1.414   0.737  11.037  0.4063 -0.2051 -0.4580
 2771TIP3    H232509   1.297   0.644  11.067  0.5111  0.0112  0.6787
 2772TIP3   OH232510   4.460   2.741  10.769 -0.1338  0.2968 -0.3299
 2772TIP3    H132511   4.487   2.823  10.729  0.2682  0.0550 -0.5643
 2772TIP3    H232512   4.419   2.766  10.852  1.6278  0.6294  0.4844
 2773TIP3   OH232513   6.057   4.613   9.759 -0.0394 -0.4372 -0.4223
 2773TIP3    H132514   6.029   4.570   9.840  1.3986  1.5612  1.2437
 2773TIP3    H232515   6.146   4.581   9.744  0.8349  1.3964  0.5259
 2774TIP3   OH232516   5.510   0.659   9.659  0.3030 -0.8097  0.1002
 2774TIP3    H132517   5.473   0.656   9.747  0.6429 -1.0462  0.2383
 2774TIP3    H232518   5.601   0.632   9.670 -0.1194 -2.6482 -0.5863
 2775TIP3   OH232519   5.169   4.859   9.664  0.6503  0.3636 -0.0163
 2775TIP3    H132520   5.217   4.873   9.746 -2.0391 -4.1787  2.7688
 2775TIP3    H232521   5.233   4.819   9.605  1.7185 -0.0216  1.3468
 2776TIP3   OH232522   3.199   4.727  10.084 -0.0087  0.0535 -0.1147
 2776TIP3    H132523   3.127   4.712  10.146 -0.1279  1.5101  0.1331
 2776TIP3    H232524   3.174   4.806  10.037  0.9712  0.0158 -0.7243
 2777TIP3   OH232525   6.394   5.752   9.901  0.3750  0.5434  0.0831
 2777TIP3    H132526   6.435   5.672   9.932  2.7734  1.0390 -1.4676
 2777TIP3    H232527   6.464   5.818   9.905 -0.2310  1.4916 -2.6430
 2778TIP3   OH232528   2.713   4.235   8.678 -0.3875  0.7259  0.2450
 2778TIP3    H132529   2.622   4.262   8.690 -0.2450  0.4439  2.3391
 2778TIP3    H232530   2.764   4.315   8.692 -0.2929  1.0581 -1.6912
 2779TIP3   OH232531   2.402   0.916   9.935  0.2755  1.0405 -0.4495
 2779TIP3    H132532   2.410   0.834   9.885  0.0548  0.8573 -0.1862
 2779TIP3    H232533   2.490   0.953   9.932  0.6212  0.3126  0.2376
 2780TIP3   OH232534   3.163   4.426  11.640 -0.3774 -0.1544  0.0470
 2780TIP3    H132535   3.115   4.508  11.655 -0.0593 -0.2361  1.8076
 2780TIP3    H232536   3.127   4.391  11.559 -3.9809 -0.6695  1.6437
 2781TIP3   OH232537   5.643   5.884  11.336  0.2919 -0.4014  0.6182
 2781TIP3    H132538   5.633   5.973  11.301  0.7260 -0.5037  0.2219
 2781TIP3    H232539   5.734   5.861  11.315  0.2704 -0.8221  0.9899
 2782TIP3   OH232540   1.174   1.073  10.891  0.1042 -0.1115 -0.3804
 2782TIP3    H132541   1.148   1.164  10.906 -1.4123 -0.6026  0.2547
 2782TIP3    H232542   1.172   1.063  10.796 -0.8370  0.2472 -0.4136
 2783TIP3   OH232543   2.353   4.805   9.339 -0.2599 -0.3957  0.1962
 2783TIP3    H132544   2.268   4.763   9.351 -1.9287  1.7640 -2.7797
 2783TIP3    H232545   2.343   4.891   9.382  2.1422 -1.6371  3.7797
 2784TIP3   OH232546   6.607   4.494   8.295  0.0636  0.0235  0.1603
 2784TIP3    H132547   6.554   4.562   8.337  1.1873 -0.0406  1.7850
 2784TIP3    H232548   6.585   4.414   8.341  1.8549  0.0755  1.1904
 2785TIP3   OH232549   6.143   2.072   9.600 -0.2547  0.5871  0.0555
 2785TIP3    H132550   6.081   2.040   9.534 -1.4102 -0.0181  1.3905
 2785TIP3    H232551   6.187   2.146   9.557 -0.5004 -0.1794 -1.6075
 2786TIP3   OH232552   4.146   6.214  11.925  0.0279  0.2360 -0.3380
 2786TIP3    H132553   4.088   6.158  11.976 -0.0812 -0.2355 -0.9760
 2786TIP3    H232554   4.161   6.166  11.843  2.6292 -0.4440  0.4331
 2787TIP3   OH232555   0.801   4.889  10.250 -0.3268  0.2186  0.4971
 2787TIP3    H132556   0.763   4.909  10.165 -1.4688 -0.4702  0.8315
 2787TIP3    H232557   0.798   4.793  10.256  1.3261  0.1382  0.6133
 2788TIP3   OH232558   1.764   3.423   9.095 -0.4281  0.4754 -0.3436
 2788TIP3    H132559   1.775   3.351   9.033 -0.2631 -0.2287  0.4865
 2788TIP3    H232560   1.846   3.470   9.092 -0.1250 -0.0260 -0.0832
 2789TIP3   OH232561   0.258   3.679  11.356  0.5826 -0.0697  0.3193
 2789TIP3    H132562   0.300   3.726  11.283  0.2229 -1.4676 -0.8330
 2789TIP3    H232563   0.164   3.685  11.337  0.5489 -1.9197 -0.3425
 2790TIP3   OH232564   4.161   0.612   9.250 -0.4443 -0.2286 -0.1160
 2790TIP3    H132565   4.218   0.559   9.306 -1.9801 -0.9243  0.8724
 2790TIP3    H232566   4.101   0.548   9.210 -0.6976  0.4980 -0.9401
 2791TIP3   OH232567   0.705   4.854   9.952  0.2237  0.2184 -0.0446
 2791TIP3    H132568   0.657   4.926   9.911 -0.2730  0.1555  0.4061
 2791TIP3    H232569   0.788   4.893   9.978  1.1867 -0.0984 -2.4076
 2792TIP3   OH232570   1.704   4.510   9.365  0.3820 -0.2069 -0.0761
 2792TIP3    H132571   1.612   4.486   9.373  0.9393 -2.5994  0.0039
 2792TIP3    H232572   1.713   4.544   9.276 -0.6740  0.5969  0.1143
 2793TIP3   OH232573   1.531   3.490  10.215  0.1770 -0.4879 -0.0672
 2793TIP3    H132574   1.565   3.439  10.288  0.8185  1.0047  0.7355
 2793TIP3    H232575   1.608   3.537  10.182 -0.3353 -0.2405 -0.9348
 2794TIP3   OH232576   6.797   3.744  10.623  0.1079  0.1582  0.2043
 2794TIP3    H132577   6.791   3.694  10.542  1.1213 -1.6900  1.2108
 2794TIP3    H232578   6.723   3.805  10.619 -0.4916 -0.6191 -1.6017
 2795TIP3   OH232579   3.864   6.247  10.158 -0.1420 -0.5638 -0.4388
 2795TIP3    H132580   3.898   6.309  10.222 -0.8013  2.5905 -2.9238
 2795TIP3    H232581   3.812   6.185  10.210 -0.0445  1.3612  2.1418
 2796TIP3   OH232582   5.675   1.034   8.611 -0.3589  0.7140  0.0079
 2796TIP3    H132583   5.750   1.037   8.552 -0.1914  0.3336  0.1963
 2796TIP3    H232584   5.684   0.950   8.656  0.1210  1.4733  1.3793
 2797TIP3   OH232585   5.733   5.251   9.366  0.4382 -0.5130  0.6472
 2797TIP3    H132586   5.761   5.172   9.319 -0.7361  0.5318 -1.9540
 2797TIP3    H232587   5.810   5.275   9.419  3.1647 -0.0264 -3.1130
 2798TIP3   OH232588   4.604   0.509  11.409  0.3705 -0.3519 -0.0705
 2798TIP3    H132589   4.536   0.573  11.428  1.7554  1.0076  0.4952
 2798TIP3    H232590   4.564   0.424  11.430 -0.8390  0.4785  1.0822
 2799TIP3   OH232591   0.357   3.299  11.389 -0.4430 -0.2556 -0.0161
 2799TIP3    H132592   0.272   3.297  11.346  0.0388 -0.0865 -1.0007
 2799TIP3    H232593   0.352   3.229  11.455 -1.8573  0.7394  0.9820
 2800TIP3   OH232594   1.870   1.319  10.433  0.0981 -0.1798 -0.3454
 2800TIP3    H132595   1.833   1.371  10.504  4.2941  0.9102  1.3663
 2800TIP3    H232596   1.864   1.376  10.356 -1.2071  0.1271 -0.0333
 2801TIP3   OH232597   1.331   4.164  10.300 -0.6286  0.5483  0.1935
 2801TIP3    H132598   1.340   4.084  10.248 -3.1920  1.2540 -1.5311
 2801TIP3    H232599   1.359   4.234  10.241 -1.0152  1.1484  0.7096
 2802TIP3   OH232600   3.496   0.997  10.981 -0.6836 -0.2825  0.1770
 2802TIP3    H132601   3.403   1.022  10.981 -0.4114  0.8153 -0.3175
 2802TIP3    H232602   3.525   1.016  11.071 -0.5340  1.0986 -0.1314
 2803TIP3   OH232603   2.080   4.074   9.844  0.4297 -0.1958 -0.4805
 2803TIP3    H132604   2.060   4.016   9.770 -0.5778  0.8824 -1.0822
 2803TIP3    H232605   2.072   4.162   9.808  0.9140  0.3357  0.6798
 2804TIP3   OH232606   6.246   2.666  10.245  0.5871 -0.2438  0.3215
 2804TIP3    H132607   6.227   2.658  10.151 -0.4338 -0.6890  0.5558
 2804TIP3    H232608   6.340   2.679  10.249  0.6019  0.1073 -0.7907
 2805TIP3   OH232609   2.020   5.665   8.294  0.0465  0.1863 -0.2597
 2805TIP3    H132610   2.066   5.738   8.253 -0.4837  1.4378  1.2508
 2805TIP3    H232611   2.089   5.607   8.325  0.4704 -0.1731 -1.7662
 2806TIP3   OH232612   5.494   5.680   9.364  0.7201 -0.3695 -0.0038
 2806TIP3    H132613   5.449   5.755   9.325 -0.1568 -0.6894  0.3747
 2806TIP3    H232614   5.583   5.686   9.330 -0.1718 -1.0315 -2.6483
 2807TIP3   OH232615   0.593   5.126   9.959 -0.0751  0.0125  0.2925
 2807TIP3    H132616   0.670   5.171   9.924 -0.1775  0.0123  0.0610
 2807TIP3    H232617   0.520   5.159   9.906 -0.3712  0.6968  1.0914
 2808TIP3   OH232618   2.457   3.307   9.699 -0.0437  0.0708 -0.2101
 2808TIP3    H132619   2.491   3.387   9.739  2.1841 -0.7818 -0.2181
 2808TIP3    H232620   2.491   3.309   9.610 -0.8991 -0.3634 -0.5549
 2809TIP3   OH232621   4.098   2.409  10.375 -0.1669  0.2977  0.2198
 2809TIP3    H132622   4.140   2.323  10.374  1.3217  1.0032 -1.0325
 2809TIP3    H232623   4.152   2.461  10.435 -0.4193  0.6717  0.1239
 2810TIP3   OH232624   5.853   3.508  10.278 -0.2371 -0.0346  0.0488
 2810TIP3    H132625   5.941   3.473  10.292 -0.2713  0.1450  0.7595
 2810TIP3    H232626   5.854   3.594  10.321 -0.0840  0.9717 -1.8344
 2811TIP3   OH232627   4.738   3.754  10.458 -0.5575 -0.3043 -0.5707
 2811TIP3    H132628   4.709   3.663  10.470  2.0519 -1.4281 -1.8134
 2811TIP3    H232629   4.692   3.783  10.379 -1.7696 -0.3424  0.0991
 2812TIP3   OH232630   4.561   3.579   8.269 -0.1408 -0.3378  0.0211
 2812TIP3    H132631   4.531   3.497   8.230 -0.6123  0.2051 -0.7874
 2812TIP3    H232632   4.509   3.647   8.226  1.5078  0.5471 -0.6462
 2813TIP3   OH232633   0.970   6.305  11.108  0.2769  0.4454  0.4421
 2813TIP3    H132634   1.037   6.353  11.060 -0.4844  0.2380 -0.9078
 2813TIP3    H232635   1.008   6.288  11.194  0.8256  2.8456  0.7335
 2814TIP3   OH232636   4.190   0.933  10.846  0.0490  0.2308 -0.2508
 2814TIP3    H132637   4.102   0.898  10.858 -0.3549  0.7439 -1.4813
 2814TIP3    H232638   4.185   0.982  10.763  0.9224  2.0752  0.7146
 2815TIP3   OH232639   5.420   0.444   8.193  0.3895  0.9728  0.4249
 2815TIP3    H132640   5.514   0.436   8.209  0.7027 -0.3795 -1.6622
 2815TIP3    H232641   5.412   0.517   8.132  0.5617 -1.0352 -2.1724
 2816TIP3   OH232642   6.424   4.686  11.036 -0.1452 -0.3781 -0.3866
 2816TIP3    H132643   6.468   4.714  10.955  1.0611  1.4168  0.8283
 2816TIP3    H232644   6.490   4.632  11.081 -0.3229 -0.2476  0.0269
 2817TIP3   OH232645   2.230   3.488  10.101 -0.3937 -0.2748 -0.3453
 2817TIP3    H132646   2.317   3.526  10.106 -0.5789 -0.0008  1.3487
 2817TIP3    H232647   2.233   3.429  10.025  1.4851 -0.8497  0.1385
 2818TIP3   OH232648   4.318   6.593  10.191  0.1407  0.0821  0.1813
 2818TIP3    H132649   4.326   6.686  10.210 -0.8066  0.6642 -2.0254
 2818TIP3    H232650   4.271   6.557  10.266  0.0212  1.4675  0.8021
 2819TIP3   OH232651   1.715   2.699  10.498  0.0435 -0.6219  0.6942
 2819TIP3    H132652   1.632   2.660  10.526  0.2879 -1.3783  0.3901
 2819TIP3    H232653   1.715   2.786  10.537 -0.9937 -0.5317  0.5225
 2820TIP3   OH232654   6.687   2.250   9.753  0.5234  0.2625 -0.7284
 2820TIP3    H132655   6.648   2.333   9.781 -1.1253 -0.5688 -0.4372
 2820TIP3    H232656   6.675   2.248   9.658 -1.5383 -0.6140 -0.4969
 2821TIP3   OH232657   1.896   5.570  10.728 -0.3801 -0.1767 -0.5328
 2821TIP3    H132658   1.908   5.584  10.634 -0.7721  0.8502 -0.4550
 2821TIP3    H232659   1.951   5.495  10.750  0.1822 -0.0439 -1.4705
 2822TIP3   OH232660   3.311   5.764   9.188  0.6861 -0.1964 -0.4074
 2822TIP3    H132661   3.301   5.669   9.189 -2.1815  0.0144  0.9166
 2822TIP3    H232662   3.225   5.797   9.160  1.8855  2.0185 -1.7438
 2823TIP3   OH232663   4.399   3.279   8.854  0.6709  0.6306  0.4844
 2823TIP3    H132664   4.385   3.187   8.879 -1.3925  0.2868 -1.6348
 2823TIP3    H232665   4.494   3.286   8.842  0.7915 -1.4667 -0.1499
 2824TIP3   OH232666   4.658   1.626  11.794 -0.7920  0.3935 -0.3060
 2824TIP3    H132667   4.708   1.668  11.864 -1.7014 -0.9531  1.2508
 2824TIP3    H232668   4.724   1.598  11.731  0.2923 -0.0208  0.9496
 2825TIP3   OH232669   6.288   3.965  11.280  0.4670 -0.5230 -0.2046
 2825TIP3    H132670   6.327   3.938  11.197 -0.5277  0.8851 -1.1834
 2825TIP3    H232671   6.303   3.891  11.339  0.1003 -2.0903 -1.9827
 2826TIP3   OH232672   4.081   4.282   8.700  0.0782 -0.1990  0.1937
 2826TIP3    H132673   4.130   4.236   8.632 -1.1819 -0.9480 -0.2464
 2826TIP3    H232674   4.060   4.214   8.764 -2.7357 -0.5589 -0.9823
 2827TIP3   OH232675   6.483   2.302   9.275  0.4691  0.4033 -0.3113
 2827TIP3    H132676   6.425   2.366   9.233 -0.8778 -1.0535 -0.7687
 2827TIP3    H232677   6.433   2.270   9.350  1.4959  0.5413  0.4511
 2828TIP3   OH232678   6.361   0.247  10.116  0.0301  0.7004 -0.4185
 2828TIP3    H132679   6.421   0.268  10.187 -1.2967 -1.5453  1.5346
 2828TIP3    H232680   6.292   0.314  10.123 -0.3457  0.2212  0.8105
 2829TIP3   OH232681   4.913   5.496  11.378 -0.2754  0.3264 -0.0599
 2829TIP3    H132682   4.835   5.446  11.402 -0.1700  0.2720  0.1746
 2829TIP3    H232683   4.884   5.554  11.308 -0.9057  1.4020  1.0563
 2830TIP3   OH232684   2.374   1.216  10.047 -0.0189 -0.0244 -0.0490
 2830TIP3    H132685   2.406   1.307  10.049 -1.2732  0.4375  0.4738
 2830TIP3    H232686   2.334   1.203  10.133  0.5981 -1.2649  0.0712
 2831TIP3   OH232687   4.560   0.289  11.833  0.0046  0.1118  0.3171
 2831TIP3    H132688   4.562   0.226  11.762  1.3557 -1.2740  1.5116
 2831TIP3    H232689   4.479   0.339  11.819  2.0769  2.8287 -4.5624
 2832TIP3   OH232690   6.037   1.744   8.777 -0.4495 -0.3403 -0.0895
 2832TIP3    H132691   5.946   1.740   8.805 -0.9857 -0.2065 -1.7244
 2832TIP3    H232692   6.046   1.830   8.736  0.5630 -0.1420  0.5117
 2833TIP3   OH232693   2.396   2.071  10.256  0.4058 -0.1928 -0.3584
 2833TIP3    H132694   2.304   2.047  10.257 -0.1738  1.8367  0.0388
 2833TIP3    H232695   2.402   2.145  10.316  2.1217  0.3065 -1.0892
 2834TIP3   OH232696   6.599   0.537  11.361  0.3461 -0.9321 -0.3837
 2834TIP3    H132697   6.689   0.523  11.391  0.3128 -0.4360 -0.0426
 2834TIP3    H232698   6.547   0.478  11.416  0.5425 -1.8382 -1.1467
 2835TIP3   OH232699   0.210   6.696  10.480 -0.0933 -0.2089 -0.0585
 2835TIP3    H132700   0.168   6.704  10.565 -0.2063  2.9784 -0.3055
 2835TIP3    H232701   0.140   6.710  10.417  0.2833 -0.8965 -0.6480
 2836TIP3   OH232702   4.204   5.101  11.014 -0.0659  0.7426  0.0214
 2836TIP3    H132703   4.172   5.116  11.103  1.1673  1.0255  0.4342
 2836TIP3    H232704   4.254   5.180  10.993  0.5229  0.2327 -0.5200
 2837TIP3   OH232705   2.822   1.744  10.564 -0.1798  0.5995  0.1128
 2837TIP3    H132706   2.881   1.669  10.558  0.3875  1.0627 -0.1812
 2837TIP3    H232707   2.765   1.736  10.487 -1.1820 -0.4003  0.9215
 2838TIP3   OH232708   1.632   3.349   9.520 -0.6569 -0.2800  0.0319
 2838TIP3    H132709   1.688   3.420   9.487  2.9289 -2.1209  1.4937
 2838TIP3    H232710   1.659   3.339   9.612 -3.1659 -1.6573  0.6951
 2839TIP3   OH232711   5.677   4.339   9.339 -0.2736 -0.2379  0.4633
 2839TIP3    H132712   5.674   4.244   9.353 -0.2048  0.0839  3.2691
 2839TIP3    H232713   5.730   4.350   9.260  0.2303 -2.5007  0.4070
 2840TIP3   OH232714   0.512   1.583  10.305  0.5650  0.1963  0.2989
 2840TIP3    H132715   0.515   1.671  10.268  0.4535 -0.2040 -0.6840
 2840TIP3    H232716   0.420   1.571  10.330  0.5979  0.3937  0.5135
 2841TIP3   OH232717   3.052   4.217   8.408  0.6611  0.7251 -0.0804
 2841TIP3    H132718   3.089   4.135   8.440  1.4859  0.3871 -1.7713
 2841TIP3    H232719   3.004   4.252   8.483 -0.9271 -1.9694  0.2898
 2842TIP3   OH232720   2.057   5.201  11.789  0.2337  0.3577 -0.1212
 2842TIP3    H132721   2.035   5.119  11.834  0.2178  1.0248  1.1233
 2842TIP3    H232722   2.134   5.180  11.737  0.7242 -0.2398  0.8305
 2843TIP3   OH232723   5.546   1.954   9.127  0.1459 -0.0284  0.1064
 2843TIP3    H132724   5.504   1.925   9.208 -0.9168  0.5666 -0.2220
 2843TIP3    H232725   5.624   2.002   9.157  1.8401 -2.8612  0.6836
 2844TIP3   OH232726   5.587   0.840  10.274 -0.5108  0.1881  0.0862
 2844TIP3    H132727   5.532   0.792  10.336 -1.9277 -0.5374 -1.6338
 2844TIP3    H232728   5.638   0.772  10.229 -1.1000  0.4506 -1.0231
 2845TIP3   OH232729   4.819   4.966   8.800  0.1743 -0.2227 -0.4899
 2845TIP3    H132730   4.827   4.974   8.705 -0.9178 -1.4901 -0.7156
 2845TIP3    H232731   4.727   4.944   8.815  0.1993  0.5317  0.9109
 2846TIP3   OH232732   1.792   0.835  10.032  0.5827 -0.3172 -0.1690
 2846TIP3    H132733   1.761   0.745  10.041  1.0520 -0.7120 -1.9400
 2846TIP3    H232734   1.740   0.886  10.094 -1.3853 -1.4364 -0.8220
 2847TIP3   OH232735   0.889   3.958  10.743  0.4025  0.2199 -0.0333
 2847TIP3    H132736   0.798   3.971  10.716  0.0348 -1.2321  0.4206
 2847TIP3    H232737   0.889   3.875  10.790  1.4903  1.4403  2.2766
 2848TIP3   OH232738   6.506   3.314   9.004  0.1621  0.2736 -0.2307
 2848TIP3    H132739   6.543   3.346   9.086  0.3163  0.5440 -0.4063
 2848TIP3    H232740   6.434   3.256   9.031 -0.2334  0.9032  0.0838
 2849TIP3   OH232741   0.509   5.603   9.406 -0.1351 -0.0795 -0.3167
 2849TIP3    H132742   0.564   5.680   9.422  0.5076 -0.5860 -0.0694
 2849TIP3    H232743   0.481   5.575   9.493 -1.0260  0.3476 -0.4623
 2850TIP3   OH232744   5.292   3.742  10.374 -0.0441  0.1467  0.1367
 2850TIP3    H132745   5.311   3.682  10.446  0.2853  0.5453  0.3927
 2850TIP3    H232746   5.220   3.796  10.407 -0.3516 -0.1173 -0.0989
 2851TIP3   OH232747   1.779   0.872  11.921  0.1472 -0.0502  0.5302
 2851TIP3    H132748   1.807   0.796  11.971  0.5898 -0.2112  0.0493
 2851TIP3    H232749   1.857   0.928  11.917  0.5872 -0.7276 -1.2440
 2852TIP3   OH232750   2.278   3.128  10.626  0.1275 -0.3128 -0.5473
 2852TIP3    H132751   2.252   3.117  10.718 -0.3223 -0.6016 -0.7069
 2852TIP3    H232752   2.334   3.052  10.608 -0.6433 -0.8266 -0.8144
 2853TIP3   OH232753   0.026   2.706  10.681 -0.6807 -0.5567 -0.6821
 2853TIP3    H132754   0.096   2.750  10.633  0.0800 -1.1126 -0.1068
 2853TIP3    H232755  -0.052   2.757  10.662  0.3931  1.9221  1.0880
 2854TIP3   OH232756   6.110   6.600  10.798 -1.0326 -0.0805 -0.2699
 2854TIP3    H132757   6.028   6.555  10.818 -1.3793  0.9408  0.7297
 2854TIP3    H232758   6.083   6.682  10.758 -0.8539  2.4105  4.1297
 2855TIP3   OH232759   0.587   6.303  11.521 -0.4877  0.3792 -0.5715
 2855TIP3    H132760   0.508   6.249  11.514 -0.3831  0.2634 -0.8607
 2855TIP3    H232761   0.598   6.316  11.615  1.1251 -2.5509 -0.2297
 2856TIP3   OH232762   1.757   4.422  11.516  0.8569  0.1302 -0.2296
 2856TIP3    H132763   1.820   4.447  11.584  0.4286  0.6100 -0.0046
 2856TIP3    H232764   1.682   4.386  11.564  1.7330 -2.3428 -0.5591
 2857TIP3   OH232765   6.429   1.370  11.348 -0.1663 -0.1705 -0.2186
 2857TIP3    H132766   6.372   1.393  11.421 -1.5925 -0.2285 -1.2601
 2857TIP3    H232767   6.448   1.453  11.304 -0.8263 -0.3262 -0.8219
 2858TIP3   OH232768   4.874   6.520  11.095 -0.0814  0.3832 -0.2070
 2858TIP3    H132769   4.810   6.459  11.058 -0.2519  0.7620 -0.5454
 2858TIP3    H232770   4.821   6.592  11.129 -0.0070 -0.3289  1.5644
 2859TIP3   OH232771   0.453   0.846  10.800  0.6473  0.0240  0.5042
 2859TIP3    H132772   0.494   0.930  10.821  0.6602  0.2334 -0.2975
 2859TIP3    H232773   0.363   0.869  10.776 -0.1441 -0.4854  2.7292
 2860TIP3   OH232774   2.964   3.147  11.379  0.4984  0.0255 -0.5242
 2860TIP3    H132775   2.923   3.230  11.405  1.2245  0.4036 -0.5625
 2860TIP3    H232776   3.039   3.173  11.326 -0.4555 -0.7144 -2.3296
 2861TIP3   OH232777   3.991   0.563  11.001  0.5702 -0.0193  0.3974
 2861TIP3    H132778   3.919   0.615  11.034 -0.9981  0.0541 -2.7532
 2861TIP3    H232779   4.042   0.624  10.947 -1.3089 -1.4527 -3.3808
 2862TIP3   OH232780   3.757   0.375  11.239  0.3517 -0.2081 -0.5876
 2862TIP3    H132781   3.733   0.286  11.266 -0.0149  0.0311 -0.1086
 2862TIP3    H232782   3.695   0.431  11.285  0.4112  0.2806 -1.0966
 2863TIP3   OH232783   3.158   6.214   8.552 -0.8074  0.0829  0.4356
 2863TIP3    H132784   3.135   6.306   8.562 -0.6065  0.2629 -0.6525
 2863TIP3    H232785   3.229   6.200   8.615 -0.6292  0.7549  0.3939
 2864TIP3   OH232786   5.704   2.031   9.827  0.6454  0.7026  0.5061
 2864TIP3    H132787   5.727   2.034   9.920 -1.2084  1.1312  0.9954
 2864TIP3    H232788   5.786   2.009   9.782  1.4700 -0.0027  2.2759
 2865TIP3   OH232789   1.778   5.802  10.717 -0.7798  0.5262  0.2283
 2865TIP3    H132790   1.814   5.814  10.629 -0.3889 -0.9717  0.1490
 2865TIP3    H232791   1.812   5.717  10.745 -1.0029  0.9180  1.7847
 2866TIP3   OH232792   5.769   2.912  10.172  0.4942 -0.0089  0.0149
 2866TIP3    H132793   5.692   2.895  10.226 -0.0819 -0.2627 -0.8678
 2866TIP3    H232794   5.843   2.901  10.232 -0.1949  1.6505  1.2280
 2867TIP3   OH232795   1.343   3.584   9.269  0.3548 -0.3783  0.1005
 2867TIP3    H132796   1.292   3.629   9.336 -0.7220 -1.7786  0.2789
 2867TIP3    H232797   1.434   3.601   9.292  0.0121 -0.8551  1.9707
 2868TIP3   OH232798   3.027   6.601  11.676  0.6239  0.6590 -0.2649
 2868TIP3    H132799   3.068   6.680  11.712 -0.2490  0.4159  1.3076
 2868TIP3    H232800   2.993   6.554  11.752  1.7813 -1.6524 -1.0817
 2869TIP3   OH232801   4.634   4.379  11.517  0.4113  0.3456 -0.2404
 2869TIP3    H132802   4.651   4.311  11.451 -0.0527 -0.8659  0.8438
 2869TIP3    H232803   4.563   4.432  11.479  0.4467 -0.0652 -0.8942
 2870TIP3   OH232804   3.517   6.138  10.592  0.2148 -0.0915 -0.3069
 2870TIP3    H132805   3.483   6.091  10.515  0.2419  0.3375 -0.5831
 2870TIP3    H232806   3.443   6.141  10.653 -1.1051  2.9657 -1.8523
 2871TIP3   OH232807   4.581   2.662  10.550 -0.3471 -0.0514  0.5291
 2871TIP3    H132808   4.524   2.625  10.482  1.3136 -2.3106  0.2356
 2871TIP3    H232809   4.520   2.689  10.619 -1.9689  0.7825 -1.1353
 2872TIP3   OH232810   6.333   6.004   9.550 -0.5386 -0.7460 -0.0573
 2872TIP3    H132811   6.307   6.041   9.466  0.7842 -0.7579 -0.4900
 2872TIP3    H232812   6.267   6.036   9.612 -1.0110  0.0035 -0.9260
 2873TIP3   OH232813   6.470   2.109  10.184 -0.4480  0.0081  0.0067
 2873TIP3    H132814   6.387   2.062  10.187 -0.9838  0.5605 -3.1474
 2873TIP3    H232815   6.528   2.053  10.132  0.6178  0.4458  0.6795
 2874TIP3   OH232816   6.147   2.376  11.093 -0.5345  0.6140 -0.2985
 2874TIP3    H132817   6.159   2.347  11.184 -2.4324 -0.6277 -0.3803
 2874TIP3    H232818   6.138   2.471  11.099 -2.6379  0.4055  1.1478
 2875TIP3   OH232819   5.638   2.358   9.823  0.0610 -0.5904 -0.6460
 2875TIP3    H132820   5.635   2.431   9.762  1.6390 -0.0300 -0.0952
 2875TIP3    H232821   5.706   2.382   9.886 -1.1792 -1.3684  1.0612
 2876TIP3   OH232822   1.305   1.921  11.748 -0.2968  0.3120  0.1381
 2876TIP3    H132823   1.292   1.878  11.663  0.6222 -0.3642  0.3143
 2876TIP3    H232824   1.339   2.008  11.727 -0.3527  0.2517 -0.1999
 2877TIP3   OH232825   0.521   6.228   9.342 -0.6236  0.1174  0.2121
 2877TIP3    H132826   0.463   6.220   9.266 -0.3193  0.4622 -0.0573
 2877TIP3    H232827   0.467   6.270   9.409 -0.1092  2.2977 -0.6863
 2878TIP3   OH232828   3.858   3.934  11.059  0.5250  0.3291 -0.4071
 2878TIP3    H132829   3.877   3.846  11.091 -1.6906 -0.7035 -1.6857
 2878TIP3    H232830   3.847   3.924  10.964 -0.4136  1.8459 -0.5086
 2879TIP3   OH232831   3.153   6.540   8.780  0.3681 -0.1178 -0.2597
 2879TIP3    H132832   3.205   6.618   8.763 -1.3706  1.0805 -0.4151
 2879TIP3    H232833   3.111   6.520   8.696  0.1163 -0.7049 -0.0032
 2880TIP3   OH232834   5.779   1.978  10.070 -0.3132  0.3670 -0.0568
 2880TIP3    H132835   5.844   1.988  10.139 -1.2877 -0.2977  0.9894
 2880TIP3    H232836   5.718   1.912  10.103 -1.0574  0.3541 -1.3642
 2881TIP3   OH232837   1.937   4.248  10.479  0.2170 -0.2941  0.4689
 2881TIP3    H132838   2.030   4.270  10.474  0.1658 -0.1495  0.1222
 2881TIP3    H232839   1.931   4.185  10.550  0.7035 -0.9216 -0.0314
 2882TIP3   OH232840   6.731   5.567  10.163  0.5844  0.1108 -0.6500
 2882TIP3    H132841   6.803   5.514  10.132 -0.3133 -0.8045 -1.2220
 2882TIP3    H232842   6.772   5.632  10.221  1.8864 -0.1528 -1.2433
 2883TIP3   OH232843   4.861   1.263  11.397  0.3762  0.3564  0.2379
 2883TIP3    H132844   4.914   1.295  11.323 -0.1431 -2.7586 -1.6689
 2883TIP3    H232845   4.775   1.305  11.384  1.0784  2.1041  0.8684
 2884TIP3   OH232846   3.806   1.751  10.386 -0.0538 -0.5219  0.2637
 2884TIP3    H132847   3.842   1.667  10.413 -0.0550 -0.7752 -0.4925
 2884TIP3    H232848   3.854   1.816  10.438 -0.3089 -1.0014  1.1155
 2885TIP3   OH232849   5.194   4.231  11.576  0.2311  0.1933 -0.2901
 2885TIP3    H132850   5.175   4.138  11.588 -0.9429  0.5076  0.4223
 2885TIP3    H232851   5.134   4.259  11.507  0.2521  0.5260 -0.1742
 2886TIP3   OH232852   3.848   1.845  11.308 -0.4235  0.5931  0.0789
 2886TIP3    H132853   3.908   1.849  11.382 -1.5187 -1.4472  1.1753
 2886TIP3    H232854   3.902   1.817  11.234  0.1260 -0.6416  0.9048
 2887TIP3   OH232855   0.006   5.264  11.838  0.2179  0.1649  0.0257
 2887TIP3    H132856  -0.063   5.200  11.857  1.3153 -1.1194 -0.1566
 2887TIP3    H232857  -0.041   5.347  11.827 -1.1357 -0.3351  1.5482
 2888TIP3   OH232858   4.226   4.285  11.576  0.4157 -0.1873 -0.2905
 2888TIP3    H132859   4.273   4.314  11.654 -1.4146 -0.5816  1.0367
 2888TIP3    H232860   4.294   4.252  11.518  1.9550  1.2540  0.6143
 2889TIP3   OH232861   3.576   5.368  10.132  0.0100  1.0273 -0.1437
 2889TIP3    H132862   3.488   5.373  10.170 -0.5620  0.6759 -1.3601
 2889TIP3    H232863   3.570   5.419  10.052  1.1653  1.6890  0.1762
 2890TIP3   OH232864   4.636   4.137   8.679 -0.3763  0.3031 -0.3199
 2890TIP3    H132865   4.708   4.163   8.622 -0.1060 -1.5074 -0.8619
 2890TIP3    H232866   4.678   4.112   8.762 -0.3437 -0.7047 -0.6200
 2891TIP3   OH232867   2.079   6.354   9.057  0.0251 -0.2592  0.2383
 2891TIP3    H132868   2.107   6.436   9.017 -0.9391  0.5542  1.1899
 2891TIP3    H232869   2.044   6.379   9.142 -1.6278 -1.4744 -0.0262
 2892TIP3   OH232870   5.457   4.383   9.027 -0.0900  0.5116  0.2602
 2892TIP3    H132871   5.395   4.453   9.045 -0.6997 -0.0926  0.5749
 2892TIP3    H232872   5.488   4.355   9.113 -1.6308 -1.1652  0.3202
 2893TIP3   OH232873   2.140   1.753  11.562  0.3206 -0.7510 -0.2855
 2893TIP3    H132874   2.055   1.776  11.598  1.1065  0.0346  1.1845
 2893TIP3    H232875   2.143   1.798  11.477 -0.2487  0.2472  0.2038
 2894TIP3   OH232876   1.500   3.937   9.380  0.4161  0.3209 -0.2425
 2894TIP3    H132877   1.541   3.861   9.337 -0.0475  0.7229 -1.4288
 2894TIP3    H232878   1.414   3.944   9.338  0.6001  1.7192 -0.4179
 2895TIP3   OH232879   0.481   2.058   8.893 -0.1384  0.6804 -0.0215
 2895TIP3    H132880   0.426   1.988   8.857  0.8898  0.3787 -1.0755
 2895TIP3    H232881   0.565   2.017   8.910  0.2076  1.4570  0.2002
 2896TIP3   OH232882   0.870   0.310   9.685  0.4469 -0.2130 -1.3501
 2896TIP3    H132883   0.886   0.218   9.704  1.6464 -0.1275 -1.8456
 2896TIP3    H232884   0.775   0.320   9.693  0.4773 -1.0551  0.5576
 2897TIP3   OH232885   3.305   1.185  10.453  0.0428  0.0188 -0.2804
 2897TIP3    H132886   3.375   1.214  10.512  2.0070 -1.4782 -1.7435
 2897TIP3    H232887   3.309   1.090  10.455 -2.4334 -0.1447  0.0516
 2898TIP3   OH232888   5.374   6.791  10.761 -0.4390  0.2493 -0.8466
 2898TIP3    H132889   5.337   6.729  10.698 -0.7106 -2.8683  2.0776
 2898TIP3    H232890   5.465   6.764  10.769 -0.4446  0.4870  0.1221
 2899TIP3   OH232891   5.337   5.550   9.946  0.3506  0.1015  0.4411
 2899TIP3    H132892   5.365   5.640   9.927 -1.0017  0.4872  0.1849
 2899TIP3    H232893   5.338   5.506   9.861  2.9834 -0.7483  0.8349
 2900TIP3   OH232894   1.006   1.545  11.119  0.1625  0.3963  0.4610
 2900TIP3    H132895   1.051   1.462  11.133  0.2238  0.4298  0.4671
 2900TIP3    H232896   1.074   1.603  11.083  0.2373  0.5734  0.8805
 2901TIP3   OH232897   2.527   6.050  10.863  0.0589  0.4656 -0.3231
 2901TIP3    H132898   2.482   6.065  10.780 -0.0464 -0.5555 -0.4581
 2901TIP3    H232899   2.575   5.968  10.850 -0.0138  0.2640  0.6399
 2902TIP3   OH232900   4.960   6.619  10.758 -0.3936 -0.0318  0.1816
 2902TIP3    H132901   5.026   6.625  10.827 -0.4725  1.0123  0.1890
 2902TIP3    H232902   4.903   6.695  10.773  1.0340  1.7022 -2.4737
 2903TIP3   OH232903   6.010   2.179   9.863 -0.1400  0.0070 -0.0846
 2903TIP3    H132904   5.988   2.122   9.790 -3.8135  1.6499 -0.5073
 2903TIP3    H232905   6.093   2.219   9.838 -0.0731 -1.2871 -2.1967
 2904TIP3   OH232906   5.613   4.025   9.945 -0.9726 -0.3606 -0.0212
 2904TIP3    H132907   5.621   3.962   9.873 -1.6068 -1.1061  0.5374
 2904TIP3    H232908   5.578   4.104   9.903  1.8976  0.4343 -1.1319
 2905TIP3   OH232909   1.339   6.789  10.446 -0.4574  0.1571  0.0994
 2905TIP3    H132910   1.247   6.790  10.473  0.1238  0.4787  2.2074
 2905TIP3    H232911   1.385   6.747  10.518  1.1951  0.9990 -0.4160
 2906TIP3   OH232912   3.279   1.179  11.515  0.0112  0.0826 -0.3962
 2906TIP3    H132913   3.211   1.230  11.559 -0.1195  0.8537 -1.4500
 2906TIP3    H232914   3.361   1.211  11.553 -0.0462  1.3594 -1.2751
 2907TIP3   OH232915   2.549   2.181  11.805  0.2336  0.3751  0.3013
 2907TIP3    H132916   2.583   2.269  11.789 -0.0833  0.5252  0.4506
 2907TIP3    H232917   2.454   2.192  11.812  0.0284 -0.2149 -1.3110
 2908TIP3   OH232918   4.657   0.045   8.864  0.1058  0.0165 -0.0476
 2908TIP3    H132919   4.613  -0.040   8.869 -0.1044  0.1276  0.0077
 2908TIP3    H232920   4.739   0.026   8.818 -0.5653  0.0214 -1.3024
 2909TIP3   OH232921   5.063   5.252  11.523  0.0057  0.3709  0.3572
 2909TIP3    H132922   5.017   5.275  11.442 -1.2610 -0.0530  0.9297
 2909TIP3    H232923   5.142   5.207  11.492 -0.3338  0.4261 -0.6617
 2910TIP3   OH232924   3.222   4.919   9.685 -0.0680  0.0525 -0.3867
 2910TIP3    H132925   3.303   4.944   9.640 -0.3108  0.1611 -0.7659
 2910TIP3    H232926   3.227   4.966   9.769  0.1833  0.1880 -0.4752
 2911TIP3   OH232927   3.945   0.423  10.633  0.3655 -0.6640  1.1437
 2911TIP3    H132928   3.850   0.419  10.625  0.5126 -0.5857 -2.4550
 2911TIP3    H232929   3.975   0.337  10.606  1.3358 -0.2754  0.9409
 2912TIP3   OH232930   6.629   0.741  11.632  0.4353 -0.5527 -0.3779
 2912TIP3    H132931   6.697   0.697  11.582  0.5227 -1.1323  0.2392
 2912TIP3    H232932   6.575   0.670  11.668  0.3290 -0.1511  0.2791
 2913TIP3   OH232933   0.686   6.477  10.474  0.2613  0.3565  0.1313
 2913TIP3    H132934   0.752   6.546  10.471  1.4818 -0.8015 -0.9633
 2913TIP3    H232935   0.699   6.435  10.559  0.5180  0.5189  0.1748
 2914TIP3   OH232936   0.044   6.472  10.959 -0.4086  0.6698  0.6133
 2914TIP3    H132937  -0.042   6.493  10.923 -0.2547  2.1185  1.0086
 2914TIP3    H232938   0.091   6.429  10.887 -1.0237  1.0524 -0.0261
 2915TIP3   OH232939   1.088   3.919  10.256 -0.0194 -0.0238 -0.1492
 2915TIP3    H132940   1.041   3.862  10.195 -1.7054  2.0559 -0.9384
 2915TIP3    H232941   1.168   3.943  10.209  0.3464 -1.0867 -0.1041
 2916TIP3   OH232942   4.291   4.297   9.497  0.2289 -0.1636  0.2239
 2916TIP3    H132943   4.284   4.215   9.447  0.2226 -0.0681  0.0687
 2916TIP3    H232944   4.363   4.282   9.558  0.1228 -0.3438  0.3048
 2917TIP3   OH232945   4.451   4.843  10.745  0.7118 -0.4108  0.7604
 2917TIP3    H132946   4.364   4.824  10.779  0.3773 -1.7892 -0.7364
 2917TIP3    H232947   4.499   4.761  10.754  1.5913  0.0923  0.7899
 2918TIP3   OH232948   6.546   1.029   9.698 -0.4009  0.8237 -0.6019
 2918TIP3    H132949   6.508   1.001   9.615 -0.7270  0.8122 -0.4506
 2918TIP3    H232950   6.486   0.995   9.765 -1.8562  3.3887 -0.4674
 2919TIP3   OH232951   1.182   5.454  11.045  0.0341  0.3785 -0.0511
 2919TIP3    H132952   1.100   5.459  10.996 -0.0927  0.2675  0.1448
 2919TIP3    H232953   1.200   5.360  11.053 -0.5067  0.3482  1.0142
 2920TIP3   OH232954   2.028   3.742  11.069  0.0716 -0.3903 -0.1379
 2920TIP3    H132955   2.001   3.802  10.999  0.8938 -1.4762 -1.4247
 2920TIP3    H232956   2.070   3.669  11.023  1.7843 -0.5382  1.5693
 2921TIP3   OH232957   6.037   0.092   9.526 -0.5718 -0.0121  0.3423
 2921TIP3    H132958   6.011   0.154   9.594 -0.0514 -0.7541  1.2459
 2921TIP3    H232959   6.062   0.147   9.452 -1.1409  0.8164  0.7479
 2922TIP3   OH232960   2.110   5.593  12.075  0.3051 -0.5883  0.5100
 2922TIP3    H132961   2.045   5.633  12.133 -1.1894 -0.2145 -1.3247
 2922TIP3    H232962   2.152   5.667  12.031  0.0486 -0.9201 -0.3032
 2923TIP3   OH232963   0.955   4.190  11.723  0.5103  0.6891 -0.1808
 2923TIP3    H132964   1.038   4.150  11.751 -0.0418 -0.5673 -0.2652
 2923TIP3    H232965   0.979   4.244  11.648  1.3763  1.0202  0.3060
 2924TIP3   OH232966   0.845   3.915   9.969  0.6747 -0.0656  0.7638
 2924TIP3    H132967   0.814   3.848   9.907  1.4066  0.7246 -0.5009
 2924TIP3    H232968   0.938   3.924   9.950  1.0696 -0.2526  2.4566
 2925TIP3   OH232969   3.451   3.903  11.314  0.1146  0.1978 -0.0853
 2925TIP3    H132970   3.383   3.918  11.249  1.7337  0.5140 -1.8047
 2925TIP3    H232971   3.504   3.983  11.314  0.3607  0.0775  1.4001
 2926TIP3   OH232972   5.307   4.388  10.855  0.3618 -0.1419 -0.2903
 2926TIP3    H132973   5.328   4.323  10.787  2.3772  1.6225 -1.4964
 2926TIP3    H232974   5.390   4.433  10.871 -0.8081  1.7084  0.9338
 2927TIP3   OH232975   3.946   5.006  11.209  0.2775  0.1578 -0.2978
 2927TIP3    H132976   3.912   4.975  11.292 -0.7595 -0.6568 -1.0120
 2927TIP3    H232977   3.969   4.926  11.160  0.4581  0.6051 -0.9664
 2928TIP3   OH232978   0.748   3.966  11.263 -0.2148 -0.3101 -0.6589
 2928TIP3    H132979   0.733   3.967  11.168 -3.2056  0.5246 -0.2841
 2928TIP3    H232980   0.695   3.893  11.295 -2.0567  1.4905  0.6424
 2929TIP3   OH232981   2.553   3.221  11.125  0.0186 -0.0530 -0.6088
 2929TIP3    H132982   2.536   3.232  11.218  3.0957  0.0458  0.0597
 2929TIP3    H232983   2.537   3.128  11.108 -0.6282 -0.0564  0.0105
 2930TIP3   OH232984   5.612   4.081   8.671  0.5018 -0.1753  0.5403
 2930TIP3    H132985   5.678   4.106   8.607 -0.6868  1.8325  0.0243
 2930TIP3    H232986   5.576   3.999   8.637  1.1512 -0.0940 -0.3840
 2931TIP3   OH232987   5.217   0.249   8.257 -0.1943 -0.0007  0.1479
 2931TIP3    H132988   5.303   0.291   8.254  1.0939 -2.4319  0.2377
 2931TIP3    H232989   5.179   0.266   8.171  0.8259  0.2837 -0.2677
 2932TIP3   OH232990   4.861   3.489   8.947  0.4942  0.6905 -0.2304
 2932TIP3    H132991   4.941   3.449   8.913  0.4458  0.5640 -0.1976
 2932TIP3    H232992   4.872   3.583   8.932  0.0256  0.5554 -1.5744
 2933TIP3   OH232993   5.597   4.274  11.171 -0.3729 -0.1969 -0.0422
 2933TIP3    H132994   5.589   4.360  11.130 -0.6441  1.0169  2.3472
 2933TIP3    H232995   5.507   4.245  11.184 -0.2849 -0.7560 -0.6583
 2934TIP3   OH232996   3.738   5.426  11.332  0.2700 -0.0081  0.9602
 2934TIP3    H132997   3.748   5.477  11.252 -1.4890 -1.4773 -0.2832
 2934TIP3    H232998   3.779   5.341  11.311 -1.4095 -0.8808  1.0780
 2935TIP3   OH232999   1.289   2.649  11.153  0.4465  0.3299  0.1511
 2935TIP3    H133000   1.258   2.723  11.101  1.5135 -0.2727 -1.3887
 2935TIP3    H233001   1.223   2.639  11.222 -0.6393  1.5809 -0.6710
 2936TIP3   OH233002   5.845   6.692  11.003 -0.5331  0.0988  0.2062
 2936TIP3    H133003   5.866   6.728  11.089 -1.9271 -0.2946  0.7277
 2936TIP3    H233004   5.816   6.602  11.020  0.0326 -0.2927 -0.7727
 2937TIP3   OH233005   0.825   1.065   9.293 -0.1520 -0.2944 -0.0213
 2937TIP3    H133006   0.782   1.114   9.223 -2.3653 -2.3769 -0.2998
 2937TIP3    H233007   0.899   1.022   9.250  2.0483  2.9004  0.3173
 2938TIP3   OH233008   3.103   1.388  10.644  0.1814 -0.0651 -0.6083
 2938TIP3    H133009   3.189   1.426  10.664 -0.1178  0.3598 -0.0853
 2938TIP3    H233010   3.085   1.415  10.554 -0.6773  2.3707  0.1975
 2939TIP3   OH233011   5.760   0.527  11.931 -0.1849 -0.0756 -0.8517
 2939TIP3    H133012   5.829   0.549  11.868 -0.5075 -0.7659 -1.4650
 2939TIP3    H233013   5.764   0.432  11.937 -1.1473 -0.1266 -0.9679
 2940TIP3   OH233014   0.635   4.863  11.146  0.4986  0.4926  0.0228
 2940TIP3    H133015   0.578   4.939  11.134 -0.2330 -0.1808 -0.8417
 2940TIP3    H233016   0.717   4.887  11.103  0.4661  1.0063  0.2400
 2941TIP3   OH233017   4.031   2.015  10.969  0.4752 -0.2869  0.5899
 2941TIP3    H133018   4.074   2.093  11.004  0.5116 -0.0919  0.1095
 2941TIP3    H233019   3.957   2.048  10.919 -0.9965 -0.6709  2.4061
 2942TIP3   OH233020   3.654   6.238   9.673  1.0916  0.0831  0.3233
 2942TIP3    H133021   3.691   6.164   9.721  0.9432 -0.0159  0.2862
 2942TIP3    H233022   3.601   6.197   9.604  2.1415  0.2203 -0.5891
 2943TIP3   OH233023   1.600   3.167  11.919 -0.4011  0.0833 -0.3865
 2943TIP3    H133024   1.685   3.209  11.904  0.1986 -0.5619  1.0621
 2943TIP3    H233025   1.619   3.073  11.915 -0.9132 -0.0709  0.5838
 2944TIP3   OH233026   5.950   0.848  10.215  0.2694 -0.1697 -0.3400
 2944TIP3    H133027   5.888   0.821  10.147 -0.6791 -2.8628  1.4646
 2944TIP3    H233028   5.895   0.877  10.288  1.2363  0.9444 -0.0199
 2945TIP3   OH233029   2.935   4.915   9.618  0.5113  0.4143  0.5719
 2945TIP3    H133030   3.013   4.954   9.657  0.8369 -0.5239  0.8870
 2945TIP3    H233031   2.907   4.848   9.681  0.4935 -0.4677 -0.3349
 2946TIP3   OH233032   2.095   4.803   9.445  0.1090  0.2410  0.1277
 2946TIP3    H133033   2.002   4.780   9.449 -0.6828  3.0772  0.1396
 2946TIP3    H233034   2.110   4.856   9.523  1.6961  0.0917 -0.0373
 2947TIP3   OH233035   3.198   3.453   8.898  0.4331  0.5047 -0.1267
 2947TIP3    H133036   3.199   3.446   8.803 -0.0309  0.5766 -0.1354
 2947TIP3    H233037   3.243   3.373   8.928 -1.2056 -0.5527 -0.3496
 2948TIP3   OH233038   1.733   3.932  10.308 -0.8358 -0.1784  0.2528
 2948TIP3    H133039   1.676   3.884  10.248 -1.9720 -0.6850  1.6767
 2948TIP3    H233040   1.676   3.956  10.382  0.0885  1.9766  0.3367
 2949TIP3   OH233041   5.315   4.962  11.149  0.4603  0.1227 -0.5363
 2949TIP3    H133042   5.275   4.880  11.178  1.4289  0.1898  1.0890
 2949TIP3    H233043   5.409   4.945  11.149  0.6947  1.3158  0.0921
 2950TIP3   OH233044   3.343   1.510  10.759 -0.0503 -0.4635  0.5652
 2950TIP3    H133045   3.376   1.465  10.837 -0.9937 -0.4318  0.9908
 2950TIP3    H233046   3.309   1.593  10.791  0.3921 -0.0422 -0.0251
 2951TIP3   OH233047   3.638   0.155  10.275 -0.2938 -0.5704  0.1911
 2951TIP3    H133048   3.651   0.118  10.188  1.1545  2.3592 -0.9524
 2951TIP3    H233049   3.614   0.246  10.260  1.0010  0.3259  2.8430
 2952TIP3   OH233050   1.581   6.008   9.919  0.5603  0.2322  0.5270
 2952TIP3    H133051   1.629   6.061   9.982 -0.4125 -0.6817  2.0896
 2952TIP3    H233052   1.495   5.993   9.960  0.5676 -1.9721 -0.1342
 2953TIP3   OH233053   1.498   6.650   9.125 -0.0124 -0.3256 -0.1271
 2953TIP3    H133054   1.573   6.704   9.099 -2.0318  2.7347 -0.0848
 2953TIP3    H233055   1.427   6.678   9.067 -1.7234 -1.5283  1.2749
 2954TIP3   OH233056   6.803   3.664  11.531  0.4279  0.3067 -0.1845
 2954TIP3    H133057   6.885   3.653  11.579  0.3286 -0.4348 -0.1743
 2954TIP3    H233058   6.798   3.589  11.473 -0.4575  0.0942  0.1357
 2955TIP3   OH233059   0.363   4.958   9.316  0.6219 -0.2139  0.8704
 2955TIP3    H133060   0.384   4.949   9.223  1.2157  1.7329  0.7732
 2955TIP3    H233061   0.277   4.916   9.325  1.3284 -1.9867 -0.1748
 2956TIP3   OH233062   2.861   1.748  10.835 -0.0552  0.8842 -0.0700
 2956TIP3    H133063   2.768   1.734  10.851 -0.0444  1.7725  0.8795
 2956TIP3    H233064   2.870   1.745  10.740 -0.4743 -2.6002 -0.1195
 2957TIP3   OH233065   5.571   6.201  10.833  0.3779 -0.4542  0.1317
 2957TIP3    H133066   5.514   6.192  10.757  1.4636 -1.3515 -0.6142
 2957TIP3    H233067   5.631   6.272  10.810 -2.2705  2.7125  2.1760
 2958TIP3   OH233068   5.942   6.785  11.243  0.0785  0.0966 -0.0606
 2958TIP3    H133069   6.037   6.772  11.253 -0.0368  0.1333  1.2512
 2958TIP3    H233070   5.932   6.880  11.231  0.1879  0.1214  0.0388
 2959TIP3   OH233071   3.315   6.206   9.958  0.2953  0.5631  0.2039
 2959TIP3    H133072   3.396   6.246   9.990 -1.4572  2.0410  3.3031
 2959TIP3    H233073   3.267   6.279   9.919 -1.3002  0.7929  2.4087
 2960TIP3   OH233074   6.755   6.350  10.371 -0.1098  0.4258  0.0915
 2960TIP3    H133075   6.685   6.321  10.429 -1.4014 -1.1551 -2.1055
 2960TIP3    H233076   6.835   6.313  10.409 -0.6210  0.9626  1.7892
 2961TIP3   OH233077   1.198   4.870  11.370 -0.4894  0.2913  0.0912
 2961TIP3    H133078   1.176   4.841  11.458  2.0655  3.3803  1.9905
 2961TIP3    H233079   1.165   4.960  11.366 -0.7254  0.1757 -2.2644
 2962TIP3   OH233080   4.877   2.801   9.206 -0.0122  0.1083 -0.0772
 2962TIP3    H133081   4.945   2.822   9.270 -1.6487 -0.3057  1.9179
 2962TIP3    H233082   4.816   2.875   9.212 -1.0030 -0.7058  0.0504
 2963TIP3   OH233083   2.717   1.624   9.907 -0.9511  0.2581  0.3166
 2963TIP3    H133084   2.663   1.692   9.947 -2.9585 -1.4812  0.7883
 2963TIP3    H233085   2.673   1.605   9.824  0.5586  0.6779 -0.6104
 2964TIP3   OH233086   1.851   6.384   8.393  0.5638 -0.3109  0.0393
 2964TIP3    H133087   1.835   6.445   8.465  2.0707  1.8405 -1.2907
 2964TIP3    H233088   1.871   6.301   8.436  1.9510  1.0077  2.1651
 2965TIP3   OH233089   5.465   4.415  11.422  0.3618  0.4950 -0.2764
 2965TIP3    H133090   5.475   4.399  11.516 -0.2825  0.4371 -0.2111
 2965TIP3    H233091   5.505   4.339  11.380  0.2257  0.2873 -0.0332
 2966TIP3   OH233092   4.236   3.945   9.309  0.2984 -0.6231 -0.1999
 2966TIP3    H133093   4.330   3.939   9.328  0.0913  0.7435  1.5089
 2966TIP3    H233094   4.222   4.038   9.288 -0.7565 -0.6781  0.2106
 2967TIP3   OH233095   1.976   1.978   9.343  0.8062 -0.2367 -0.1592
 2967TIP3    H133096   1.998   2.060   9.299  0.9338 -0.1721  0.0216
 2967TIP3    H233097   2.005   1.909   9.283 -0.2519 -0.1575 -0.7837
 2968TIP3   OH233098   6.212   3.865   9.838  0.8477  0.9022 -0.6238
 2968TIP3    H133099   6.170   3.912   9.766  0.5576  2.8219  0.7301
 2968TIP3    H233100   6.205   3.772   9.814  0.2695  1.4568 -2.7685
 2969TIP3   OH233101   4.220   3.898  10.973 -0.4987  0.4054  0.4874
 2969TIP3    H133102   4.169   3.818  10.958  0.7736 -0.5907  1.2225
 2969TIP3    H233103   4.237   3.898  11.067  2.0461 -0.0937  0.0899
 2970TIP3   OH233104   4.798   2.716  10.198 -0.2412  0.5348  0.2030
 2970TIP3    H133105   4.746   2.779  10.148 -0.7155  1.4287  1.7374
 2970TIP3    H233106   4.792   2.747  10.289  0.7858 -0.8679  0.7897
 2971TIP3   OH233107   2.132   5.978  11.333  0.1061 -0.8265  0.5278
 2971TIP3    H133108   2.197   6.027  11.382 -0.1986 -3.1268  3.5433
 2971TIP3    H233109   2.089   6.043  11.277  2.5965  1.3908  1.0074
 2972TIP3   OH233110   4.829   2.245  10.281  0.5625  0.3145 -0.0999
 2972TIP3    H133111   4.805   2.308  10.214 -1.5713 -0.6330 -0.3065
 2972TIP3    H233112   4.809   2.289  10.364 -1.5221 -0.2305 -0.2568
 2973TIP3   OH233113   3.346   3.740   8.890 -0.5176  0.3738 -0.1859
 2973TIP3    H133114   3.316   3.680   8.958  0.9258 -0.0040  0.1472
 2973TIP3    H233115   3.323   3.697   8.808  0.9549 -0.9109  0.0417
 2974TIP3   OH233116   4.324   1.785  10.032 -0.7082 -0.1986  1.1521
 2974TIP3    H133117   4.338   1.879  10.043  1.7778 -0.4108  0.5237
 2974TIP3    H233118   4.396   1.744  10.080 -0.8840 -1.7013  0.2112
 2975TIP3   OH233119   1.923   0.051  10.534 -0.4242 -0.0383 -0.0132
 2975TIP3    H133120   1.927  -0.041  10.560  0.5583  0.0251  0.1082
 2975TIP3    H233121   1.972   0.054  10.451 -1.2546  0.2195 -0.5063
 2976TIP3   OH233122   6.533   3.629   9.822  0.1359  0.2438  0.2532
 2976TIP3    H133123   6.521   3.672   9.737  0.7859  0.6154  0.3397
 2976TIP3    H233124   6.548   3.702   9.883  2.6473 -0.1032  0.1787
 2977TIP3   OH233125   5.560   2.956   9.366  0.7006 -0.6063 -0.2089
 2977TIP3    H133126   5.615   2.886   9.401  1.6127 -1.6708 -3.3829
 2977TIP3    H233127   5.497   2.911   9.310 -2.3718  0.7528  1.8459
 2978TIP3   OH233128   1.168   6.735  10.224  0.3585 -0.7116 -0.2037
 2978TIP3    H133129   1.097   6.675  10.200 -0.9047  0.1764  1.1518
 2978TIP3    H233130   1.176   6.726  10.319  0.0337  1.3324  0.0626
 2979TIP3   OH233131   0.016   4.370   9.322  0.1353  0.4984 -0.3116
 2979TIP3    H133132  -0.008   4.427   9.395 -0.8321 -0.0675 -0.1711
 2979TIP3    H233133   0.022   4.282   9.361 -0.5487  0.1669 -0.9373
 2980TIP3   OH233134   3.287   6.131  11.535 -0.0165  0.0872  0.0667
 2980TIP3    H133135   3.228   6.189  11.584  1.2033  0.7640  0.7942
 2980TIP3    H233136   3.311   6.182  11.457  0.1852  0.1344  0.1565
 2981TIP3   OH233137   2.068   6.106  10.551 -0.0949  1.1131 -0.7631
 2981TIP3    H133138   2.021   6.032  10.590 -1.4472  1.7835 -1.0900
 2981TIP3    H233139   2.126   6.136  10.622  1.0199 -0.6635 -0.8409
 2982TIP3   OH233140   4.645   3.166  11.053  0.2895 -0.3821  0.5886
 2982TIP3    H133141   4.695   3.247  11.043 -0.7301  0.2594  0.4878
 2982TIP3    H233142   4.553   3.195  11.057 -0.0817 -1.5195  0.7000
 2983TIP3   OH233143   5.269   4.663   8.586  0.8188 -0.0824  0.2432
 2983TIP3    H133144   5.291   4.718   8.511 -0.9529  0.8282  0.3217
 2983TIP3    H233145   5.179   4.687   8.607  1.2459 -0.3560  2.6387
 2984TIP3   OH233146   1.891   2.595  11.501  0.6963 -0.0783  0.2389
 2984TIP3    H133147   1.985   2.579  11.493  0.7253  0.8890 -2.1138
 2984TIP3    H233148   1.872   2.660  11.434 -1.5545  0.2604  1.1268
 2985TIP3   OH233149   1.255   6.688  11.035  0.2534  0.2179  0.2380
 2985TIP3    H133150   1.262   6.727  10.948 -0.3442  1.1359  0.5796
 2985TIP3    H233151   1.170   6.718  11.067  0.5692  0.0834  1.2315
 2986TIP3   OH233152   3.422   1.507   9.614  0.1850 -0.0117  0.1182
 2986TIP3    H133153   3.356   1.544   9.673 -1.4067 -0.2679 -1.4175
 2986TIP3    H233154   3.468   1.583   9.579 -0.1051  0.2434  0.2826
 2987TIP3   OH233155   0.672   4.810   8.475 -0.4416  0.0658 -0.1571
 2987TIP3    H133156   0.634   4.726   8.450  0.2623 -0.2759 -0.0991
 2987TIP3    H233157   0.765   4.802   8.455 -0.2744  0.6436  0.3396
 2988TIP3   OH233158   5.295   0.784  10.704 -0.2530 -0.0786  0.3381
 2988TIP3    H133159   5.236   0.708  10.707 -0.3588 -0.0909 -1.2734
 2988TIP3    H233160   5.313   0.804  10.796 -0.3243 -1.9826  0.8090
 2989TIP3   OH233161   2.035   6.664   8.995  0.0440 -0.4878  0.0787
 2989TIP3    H133162   1.978   6.672   8.918  1.4275  1.7716 -0.8345
 2989TIP3    H233163   2.066   6.754   9.010 -0.7598 -0.6742  3.7862
 2990TIP3   OH233164   4.739   3.934   9.338  0.4192  0.5545 -0.4923
 2990TIP3    H133165   4.741   4.030   9.339 -1.7304  0.6515 -0.9112
 2990TIP3    H233166   4.646   3.912   9.329  0.8852 -1.5799 -0.5767
 2991TIP3   OH233167   3.399   3.708  10.733  0.3013 -0.3814  0.0726
 2991TIP3    H133168   3.348   3.779  10.695  0.2352 -1.0254 -1.0524
 2991TIP3    H233169   3.449   3.751  10.803  0.4018  0.8175 -0.6968
 2992TIP3   OH233170   4.338   6.670   8.058  0.8058  0.2540  0.0721
 2992TIP3    H133171   4.371   6.586   8.027 -0.6716 -0.5225  0.5016
 2992TIP3    H233172   4.349   6.666   8.153  0.2163  0.2933  0.1476
 2993TIP3   OH233173   0.998   2.862   9.666  0.3976 -0.6836  0.1820
 2993TIP3    H133174   0.905   2.849   9.648  0.5527 -0.8923 -0.4975
 2993TIP3    H233175   1.000   2.925   9.737 -0.2703 -0.8417  0.3500
 2994TIP3   OH233176   2.682   0.784  11.253 -0.3900  0.4091 -0.0550
 2994TIP3    H133177   2.737   0.715  11.215 -0.1399 -0.6873  2.1598
 2994TIP3    H233178   2.602   0.740  11.280 -0.3991  1.0466  1.0371
 2995TIP3   OH233179   0.850   5.334  10.532  0.2551  0.6199 -0.2750
 2995TIP3    H133180   0.933   5.378  10.549 -0.3176  2.2995 -1.5988
 2995TIP3    H233181   0.830   5.354  10.441 -1.2879 -0.3220 -0.1872
 2996TIP3   OH233182   4.040   3.667  10.920 -0.0496  0.1866 -0.2005
 2996TIP3    H133183   3.966   3.607  10.914 -0.6765  0.9014  0.2338
 2996TIP3    H233184   4.116   3.610  10.932 -0.5033 -0.5593 -0.8106
 2997TIP3   OH233185   4.046   6.491  10.821 -0.0869 -0.1352  0.4063
 2997TIP3    H133186   4.080   6.472  10.909  0.4875 -0.4702  0.1146
 2997TIP3    H233187   3.975   6.554  10.836  1.4050  1.4730  0.9298
 2998TIP3   OH233188   5.921   3.114  10.367  0.2604  0.1885 -0.6102
 2998TIP3    H133189   5.946   3.023  10.355  0.5828  0.3737 -1.4185
 2998TIP3    H233190   5.999   3.155  10.405 -0.1345 -0.0204  0.4334
 2999TIP3   OH233191   4.461   0.902  11.579 -0.7634 -0.8148 -0.0064
 2999TIP3    H133192   4.549   0.916  11.544 -1.3162 -0.2164 -1.2241
 2999TIP3    H233193   4.427   0.990  11.595 -1.2131 -1.0357  0.2689
 3000TIP3   OH233194   1.268   4.724  11.148  0.3839  0.3482 -0.1514
 3000TIP3    H133195   1.259   4.755  11.238 -1.8787  0.6472 -0.4351
 3000TIP3    H233196   1.217   4.643  11.145  1.6470 -0.4757 -0.8403
 3001TIP3   OH233197   1.459   3.752  10.557 -0.2201 -0.6340 -0.0967
 3001TIP3    H133198   1.480   3.845  10.548 -1.6418 -0.0969  1.5343
 3001TIP3    H233199   1.542   3.711  10.584  0.2137  0.3066  0.0356
 3002TIP3   OH233200   4.607   5.628   8.712  0.3234  0.2294 -0.8354
 3002TIP3    H133201   4.609   5.623   8.616  2.3770 -0.3059 -0.8165
 3002TIP3    H233202   4.699   5.637   8.737  0.1268 -2.4129  1.2199
 3003TIP3   OH233203   2.801   4.005  10.694  0.1676 -0.3717 -0.0111
 3003TIP3    H133204   2.739   4.034  10.627  1.5197  0.0807 -1.1269
 3003TIP3    H233205   2.885   4.042  10.666  1.0105 -1.2296  1.2732
 3004TIP3   OH233206   2.329   5.089  10.157  0.1097 -0.3593  0.1494
 3004TIP3    H133207   2.366   5.162  10.207 -0.6082  1.1105 -1.3641
 3004TIP3    H233208   2.235   5.097  10.169  0.0679 -2.1618  1.4045
 3005TIP3   OH233209   5.030   2.935  11.527 -0.4090  0.3595  0.4277
 3005TIP3    H133210   4.942   2.935  11.488 -0.9740  1.8562  1.6381
 3005TIP3    H233211   5.056   2.842  11.526 -1.7282 -0.0304 -0.5184
 3006TIP3   OH233212   4.591   3.160   9.807 -0.6313  0.2686  0.5881
 3006TIP3    H133213   4.596   3.181   9.900  1.6539  0.6477  0.4378
 3006TIP3    H233214   4.530   3.225   9.771 -0.6867  0.8135  1.6209
 3007TIP3   OH233215   6.657   3.983  11.207 -0.3713 -1.1019  0.2765
 3007TIP3    H133216   6.584   3.953  11.152  1.8326 -1.9065 -2.4018
 3007TIP3    H233217   6.706   3.903  11.226  0.1008 -0.5009  1.6565
 3008TIP3   OH233218   3.625   3.442   9.914  0.2960  0.2864  0.2814
 3008TIP3    H133219   3.707   3.484   9.942  0.7729 -0.6254  0.2813
 3008TIP3    H233220   3.558   3.481   9.970  0.7461  0.9462  0.3745
 3009TIP3   OH233221   0.175   3.201   9.560  0.0863 -0.1761  0.3156
 3009TIP3    H133222   0.117   3.268   9.526 -1.1220 -0.8761  0.9516
 3009TIP3    H233223   0.214   3.161   9.483 -2.6141 -1.7564 -0.3543
 3010TIP3   OH233224   6.284   2.286   9.771 -0.3644  0.3083 -0.1552
 3010TIP3    H133225   6.350   2.336   9.723  0.0531 -0.1778 -0.1071
 3010TIP3    H233226   6.324   2.199   9.783 -0.3598  0.4697  1.2412
 3011TIP3   OH233227   1.093   5.743  11.561 -0.3458 -0.1412  0.4289
 3011TIP3    H133228   1.175   5.788  11.578  0.7835 -2.3619  1.2482
 3011TIP3    H233229   1.041   5.756  11.640 -0.3171  0.3114  0.3726
 3012TIP3   OH233230   5.065   0.066  10.954 -0.1999  0.1108 -0.2530
 3012TIP3    H133231   5.091  -0.021  10.922  0.9351 -0.5118  2.1082
 3012TIP3    H233232   5.141   0.121  10.938 -0.0163  0.0518  0.3964
 3013TIP3   OH233233   2.804   0.484   9.583  0.1867 -0.0292  0.3482
 3013TIP3    H133234   2.824   0.396   9.616  1.4615 -0.0955 -0.5475
 3013TIP3    H233235   2.718   0.475   9.543 -0.5482 -0.4005  1.9299
 3014TIP3   OH233236   3.888   3.818   9.189 -0.0799 -0.1136 -0.1250
 3014TIP3    H133237   3.793   3.829   9.193  0.1535  1.9118  0.6397
 3014TIP3    H233238   3.924   3.888   9.243  1.8718 -0.8976 -0.2909
 3015TIP3   OH233239   6.028   2.225  10.142  0.0352 -0.8032  0.0680
 3015TIP3    H133240   6.005   2.194  10.055 -1.3882 -1.1884  0.5617
 3015TIP3    H233241   6.051   2.145  10.190 -0.1408 -0.6965  0.3287
 3016TIP3   OH233242   0.022   1.385  10.306  0.5679  0.6613  0.1548
 3016TIP3    H133243   0.048   1.474  10.283  0.5681  0.4345 -0.7853
 3016TIP3    H233244   0.087   1.329  10.263  0.5048  0.2034  0.6429
 3017TIP3   OH233245   5.633   2.307  11.026  0.3363 -0.2276  0.2439
 3017TIP3    H133246   5.692   2.377  10.998  0.2221  0.3082  1.2938
 3017TIP3    H233247   5.691   2.237  11.056  0.4509  0.0337  0.6412
 3018TIP3   OH233248   4.639   4.490  11.153  0.1938  0.4534 -0.1688
 3018TIP3    H133249   4.598   4.521  11.234  0.6913  0.5295  0.0575
 3018TIP3    H233250   4.615   4.398  11.148 -1.4273  0.8853 -0.9242
 3019TIP3   OH233251   6.386   2.584  10.664 -0.4000  0.1284  0.0980
 3019TIP3    H133252   6.468   2.633  10.664 -1.7996  3.2648  5.3793
 3019TIP3    H233253   6.323   2.643  10.623 -1.1851  0.8095  2.1808
 3020TIP3   OH233254   6.448   5.876  11.817  0.0086  0.4663  0.4748
 3020TIP3    H133255   6.495   5.912  11.742 -0.1761 -0.0983  0.0786
 3020TIP3    H233256   6.356   5.896  11.800 -0.3519 -1.8279 -0.7499
 3021TIP3   OH233257   3.612   6.474   9.541 -0.1495  0.2263  0.6008
 3021TIP3    H133258   3.674   6.455   9.471 -0.3651 -0.9190  0.6948
 3021TIP3    H233259   3.625   6.403   9.604  1.1196  2.0202  2.5115
 3022TIP3   OH233260   2.924   3.003  11.149 -0.2755  0.5737 -0.4733
 3022TIP3    H133261   2.836   2.994  11.112 -0.7022  1.1495  0.3639
 3022TIP3    H233262   2.914   3.067  11.220  0.8276  0.6714 -0.3861
 3023TIP3   OH233263   0.025   4.525  11.320  0.5295 -0.1472  0.5325
 3023TIP3    H133264   0.096   4.557  11.264  0.6072 -1.3974 -0.1379
 3023TIP3    H233265   0.056   4.440  11.351 -0.6691 -0.7235  0.2187
 3024TIP3   OH233266   6.155   0.819  11.632  0.1601  0.0943  0.8001
 3024TIP3    H133267   6.080   0.823  11.573  0.7171  0.6741  0.1184
 3024TIP3    H233268   6.150   0.731  11.670 -0.6959  0.0228  0.5567
 3025TIP3   OH233269   3.031   4.110  10.589  0.0498  0.5272  0.0999
 3025TIP3    H133270   3.108   4.151  10.628  0.6002  0.1077 -0.5568
 3025TIP3    H233271   3.042   4.120  10.495  0.0112 -0.8095 -0.0609
 3026TIP3   OH233272   5.233   5.095  11.365  0.2715  0.0211  0.3957
 3026TIP3    H133273   5.264   5.075  11.276  0.6065 -1.2997  0.7949
 3026TIP3    H233274   5.293   5.048  11.423 -0.6002 -0.0266  1.2815
 3027TIP3   OH233275   3.002   1.231  10.031  0.0859 -0.2160 -0.4865
 3027TIP3    H133276   2.964   1.259  10.114 -2.9310 -0.6471 -1.5809
 3027TIP3    H233277   3.074   1.173  10.055 -0.5684 -0.1523  1.8131
 3028TIP3   OH233278   0.740   0.319  11.710 -0.0552 -0.5098 -0.6762
 3028TIP3    H133279   0.728   0.414  11.714  1.5818 -0.2938  0.1509
 3028TIP3    H233280   0.830   0.308  11.680  0.3257 -1.7570  0.7849
 3029TIP3   OH233281   3.015   4.925  11.647  0.1489 -0.5895 -0.0458
 3029TIP3    H133282   3.092   4.975  11.674 -1.1272 -0.0122  2.9373
 3029TIP3    H233283   2.945   4.991  11.641 -0.6742 -1.4479 -0.0746
 3030TIP3   OH233284   4.023   1.555  11.090 -0.3039 -0.7217  0.2434
 3030TIP3    H133285   4.056   1.501  11.162  1.5649  0.7543  0.5677
 3030TIP3    H233286   3.929   1.563  11.107 -0.4911 -3.1256  0.6302
 3031TIP3   OH233287   2.807   1.415  10.202 -0.3613 -0.2418  0.3609
 3031TIP3    H133288   2.828   1.508  10.203 -1.6920  0.0809  0.2839
 3031TIP3    H233289   2.798   1.391  10.294 -1.1790 -0.0047  0.3478
 3032TIP3   OH233290   3.307   1.096   9.764 -0.1472 -0.1777  0.1458
 3032TIP3    H133291   3.300   1.106   9.859 -1.3895 -1.1701  0.1972
 3032TIP3    H233292   3.334   1.005   9.751 -0.6506 -0.2554 -0.4513
 3033TIP3   OH233293   1.030   2.119   9.741  0.3207  0.3448 -0.5671
 3033TIP3    H133294   1.015   2.191   9.803 -1.7586 -0.8581  0.4164
 3033TIP3    H233295   1.097   2.065   9.782  0.3544  0.5923 -0.2916
 3034TIP3   OH233296   2.008   4.090   9.290  0.2120  0.4965  0.1529
 3034TIP3    H133297   1.966   4.151   9.351  2.6486  1.8698  0.5941
 3034TIP3    H233298   1.979   4.118   9.204 -3.1033 -1.3286  0.4938
 3035TIP3   OH233299   6.160   2.120   9.206 -0.0769 -0.1969  0.4787
 3035TIP3    H133300   6.177   2.050   9.144  1.4732 -0.4573  1.1309
 3035TIP3    H233301   6.164   2.078   9.292 -2.3633  0.1194  0.7987
 3036TIP3   OH233302   2.562   4.650  10.584 -0.0756  0.3703  0.1824
 3036TIP3    H133303   2.509   4.571  10.587 -2.3494  1.6762 -1.8902
 3036TIP3    H233304   2.513   4.714  10.635 -0.3343  1.4889 -1.4040
 3037TIP3   OH233305   2.382   1.716  10.467 -0.4432 -0.3521  0.3320
 3037TIP3    H133306   2.340   1.794  10.502  0.7020  1.1336 -1.3634
 3037TIP3    H233307   2.325   1.643  10.493 -2.5059  1.2255  0.4885
 3038TIP3   OH233308   4.806   4.575  10.803  0.2278 -0.1913  0.9306
 3038TIP3    H133309   4.887   4.531  10.828  0.4486 -1.7760 -2.2037
 3038TIP3    H233310   4.830   4.630  10.729 -1.2914  0.4968  0.9097
 3039TIP3   OH233311   6.135   1.474   9.295  0.1002  0.4925 -0.2035
 3039TIP3    H133312   6.091   1.514   9.220  1.1334 -0.7453 -1.5322
 3039TIP3    H233313   6.081   1.397   9.315  0.6257 -0.0011 -0.6511
 3040TIP3   OH233314   3.036   0.061  11.371 -0.3218  0.3844 -0.3198
 3040TIP3    H133315   3.100   0.088  11.437 -0.2268  0.8189 -0.5869
 3040TIP3    H233316   3.083  -0.001  11.315 -0.2611  0.3872 -0.2716
 3041TIP3   OH233317   1.489   3.804  10.263  0.1337  0.0301 -0.0493
 3041TIP3    H133318   1.493   3.760  10.347  1.3104  0.1137 -0.0408
 3041TIP3    H233319   1.511   3.736  10.199  2.2217  0.6130 -0.0151
 3042TIP3   OH233320   4.753   3.626  10.829  0.4404 -0.7042  0.7553
 3042TIP3    H133321   4.761   3.548  10.885  0.3680 -0.7058  0.7629
 3042TIP3    H233322   4.669   3.665  10.852  0.9464 -0.0323  1.5025
 3043TIP3   OH233323   4.048   0.022   9.286  0.1325 -0.3673 -0.1489
 3043TIP3    H133324   4.116  -0.041   9.309 -0.1350 -2.0085 -3.2928
 3043TIP3    H233325   3.966  -0.027   9.293 -0.1676 -0.1521 -1.7034
 3044TIP3   OH233326   6.185   6.036  11.185 -0.6161  0.0339  0.5227
 3044TIP3    H133327   6.254   6.091  11.148 -1.1624  1.2382  1.2706
 3044TIP3    H233328   6.111   6.046  11.125 -0.7445  0.1658  0.7052
 3045TIP3   OH233329   3.189   4.494   7.924  0.0512 -0.3506 -0.1576
 3045TIP3    H133330   3.112   4.539   7.890  0.0565  0.5901  0.9788
 3045TIP3    H233331   3.249   4.488   7.850  0.7851  3.1833 -0.0236
 3046TIP3   OH233332   2.877   2.485   9.822 -0.3338 -0.0398 -0.3906
 3046TIP3    H133333   2.825   2.539   9.882 -0.0894  0.6663 -0.7947
 3046TIP3    H233334   2.873   2.397   9.859 -2.1286 -0.0896 -0.6101
 3047TIP3   OH233335   0.898   4.615   8.701  0.1361  0.2326 -0.5426
 3047TIP3    H133336   0.860   4.674   8.766 -0.4054  0.6857 -1.2517
 3047TIP3    H233337   0.993   4.625   8.711  0.0579  1.3985 -0.7949
 3048TIP3   OH233338   0.696   0.740  10.785 -0.1157 -0.6185  0.6980
 3048TIP3    H133339   0.608   0.779  10.781  1.2483  2.7468 -0.5475
 3048TIP3    H233340   0.691   0.662  10.730 -2.5143 -1.0574  1.4297
 3049TIP3   OH233341   4.815   5.325  10.209 -0.3030  0.3183  0.2733
 3049TIP3    H133342   4.791   5.407  10.252 -1.2773 -0.8173  2.0182
 3049TIP3    H233343   4.852   5.271  10.279  0.1861 -0.7791 -0.8055
 3050TIP3   OH233344   1.480   5.321   9.618  0.1186  0.3070  0.0517
 3050TIP3    H133345   1.553   5.261   9.635 -0.4400 -0.6327 -0.7489
 3050TIP3    H233346   1.522   5.404   9.598  1.0046 -0.2599 -0.5663
 3051TIP3   OH233347   3.224   4.041   9.556 -0.1506  0.1983  0.1669
 3051TIP3    H133348   3.171   4.109   9.598 -0.5908  1.1339 -1.8214
 3051TIP3    H233349   3.174   4.015   9.479  2.0464  0.8375 -1.5709
 3052TIP3   OH233350   2.915   0.550  10.189 -0.3299 -0.3228  0.4600
 3052TIP3    H133351   2.853   0.603  10.139 -0.3771 -0.6631  0.1520
 3052TIP3    H233352   2.990   0.539  10.130  0.2822  0.5780  1.0411
 3053TIP3   OH233353   2.971   2.296   9.021  0.2308  0.4426 -0.4918
 3053TIP3    H133354   3.007   2.373   8.978 -0.6967  0.4559 -1.2841
 3053TIP3    H233355   2.878   2.317   9.034  0.0561 -0.3788 -0.3460
 3054TIP3   OH233356   0.808   5.236   9.822 -0.1526  0.2285 -0.2822
 3054TIP3    H133357   0.766   5.320   9.806  0.2229  0.4732 -0.0065
 3054TIP3    H233358   0.842   5.209   9.737  1.0467  1.0826 -0.0891
 3055TIP3   OH233359   0.992   0.269  10.155 -0.4690 -0.1372 -0.0205
 3055TIP3    H133360   1.033   0.249  10.239 -0.7585 -1.6210 -0.2038
 3055TIP3    H233361   1.006   0.363  10.143  0.3677 -0.0772  1.2518
 3056TIP3   OH233362   4.474   4.006   9.474 -0.1137 -0.6158 -0.5073
 3056TIP3    H133363   4.547   4.058   9.508  0.9057 -1.3702 -1.4690
 3056TIP3    H233364   4.436   3.965   9.551 -1.7151  2.4027  0.4596
 3057TIP3   OH233365   2.595   4.589  10.233 -0.1524 -0.6428  0.2368
 3057TIP3    H133366   2.513   4.639  10.229  0.7839  1.0413  1.1515
 3057TIP3    H233367   2.594   4.549  10.321  0.0259 -0.6112  0.2528
 3058TIP3   OH233368   3.500   5.632  10.672 -0.1664  0.5274  0.3476
 3058TIP3    H133369   3.417   5.677  10.659  1.1275  2.5323 -2.0275
 3058TIP3    H233370   3.551   5.691  10.727  0.1557 -0.0246  0.6466
 3059TIP3   OH233371   3.025   3.895   9.030 -0.2107 -0.2107  0.4495
 3059TIP3    H133372   2.938   3.906   9.069 -0.7728 -1.9662 -0.2056
 3059TIP3    H233373   3.017   3.815   8.977  1.7529 -0.2798  0.2111
 3060TIP3   OH233374   4.153   3.762   9.075  0.2211  0.2404 -0.3140
 3060TIP3    H133375   4.203   3.832   9.116  0.7213 -0.2760 -0.0335
 3060TIP3    H233376   4.085   3.740   9.139  2.2994 -2.0641  1.3064
 3061TIP3   OH233377   0.895   1.463  10.771 -0.2906 -0.3823 -0.2161
 3061TIP3    H133378   0.801   1.482  10.765 -0.4650 -1.3198 -0.4918
 3061TIP3    H233379   0.935   1.548  10.790 -1.0089  0.3735 -1.8731
 3062TIP3   OH233380   1.233   5.744   9.525  0.0000 -0.3506  0.2961
 3062TIP3    H133381   1.316   5.791   9.527  0.4320 -1.0848  0.3312
 3062TIP3    H233382   1.240   5.688   9.447  0.1466 -1.4650  1.0832
 3063TIP3   OH233383   0.033   2.187   8.893 -0.3848 -0.1491  0.4662
 3063TIP3    H133384  -0.016   2.187   8.811 -0.8252  1.4706  0.7082
 3063TIP3    H233385   0.106   2.246   8.878  0.5587 -1.2282  0.6741
 3064TIP3   OH233386   2.691   2.874   9.243  0.1647 -0.2011  0.1768
 3064TIP3    H133387   2.678   2.860   9.149 -0.2629 -1.1015  0.3660
 3064TIP3    H233388   2.779   2.842   9.260 -0.3373 -1.5387  0.3664
 3065TIP3   OH233389   4.656   6.409   9.564 -0.0788 -0.3365  0.5864
 3065TIP3    H133390   4.726   6.386   9.625 -1.1068 -3.3018  0.8303
 3065TIP3    H233391   4.576   6.377   9.605 -1.4898  1.8976 -0.2198
 3066TIP3   OH233392   3.777   4.596  10.651 -0.3432 -0.2051 -0.6617
 3066TIP3    H133393   3.857   4.590  10.704 -0.8766 -0.2909  0.1589
 3066TIP3    H233394   3.792   4.672  10.594 -0.5599  1.2425  1.0834
 3067TIP3   OH233395   1.080   6.699   9.576 -0.9852  0.1632 -0.4021
 3067TIP3    H133396   1.108   6.607   9.583  1.0030  0.7146 -0.6372
 3067TIP3    H233397   1.029   6.702   9.495 -0.0650 -0.5201 -1.0298
 3068TIP3   OH233398   1.741   3.948   8.888 -0.7802  0.7788 -0.1821
 3068TIP3    H133399   1.743   4.038   8.921 -2.9510  0.9167 -0.2796
 3068TIP3    H233400   1.690   3.953   8.807 -0.9450 -0.5349 -0.1889
 3069TIP3   OH233401   4.617   5.991  10.767  1.2305 -0.1635  0.3342
 3069TIP3    H133402   4.614   6.081  10.797  0.4217 -0.8644  2.5575
 3069TIP3    H233403   4.549   5.985  10.700 -1.0186  0.1581  2.4702
 3070TIP3   OH233404   3.861   4.725   8.788 -0.2418  0.6564  0.2790
 3070TIP3    H133405   3.935   4.760   8.837 -0.6179  0.8804  0.6875
 3070TIP3    H233406   3.865   4.631   8.805  0.4236  0.5572 -0.3544
 3071TIP3   OH233407   2.917   4.489   8.313 -0.1985 -0.1207 -0.3295
 3071TIP3    H133408   2.952   4.543   8.384 -2.4477  0.2907  0.5708
 3071TIP3    H233409   2.887   4.552   8.248  0.6339 -0.4592 -1.0625
 3072TIP3   OH233410   5.557   0.509  10.804 -0.0269  0.2812 -0.3871
 3072TIP3    H133411   5.529   0.449  10.873 -1.1447  0.9952 -0.1905
 3072TIP3    H233412   5.502   0.587  10.817  1.7211  1.5517 -0.3327
 3073TIP3   OH233413   1.651   2.029   9.940 -0.2201  0.2901 -0.3759
 3073TIP3    H133414   1.573   1.997   9.896  1.3743 -0.0421 -3.1839
 3073TIP3    H233415   1.665   2.117   9.905  0.6975  0.3227  0.0220
 3074TIP3   OH233416   0.472   1.226  11.420  0.1269  0.0662  0.1385
 3074TIP3    H133417   0.441   1.233  11.330  0.7508 -0.7103 -0.1552
 3074TIP3    H233418   0.414   1.282  11.471  0.1518  0.9979 -0.8424
 3075TIP3   OH233419   0.340   5.668  11.709 -0.0410  0.3307 -0.1346
 3075TIP3    H133420   0.411   5.695  11.651  0.6183  0.4593  0.7192
 3075TIP3    H233421   0.382   5.651  11.793 -1.3144  2.6844  1.0837
 3076TIP3   OH233422   3.616   1.137  10.765 -0.0124  0.0070  0.3098
 3076TIP3    H133423   3.619   1.069  10.697  1.0128 -2.0464  2.2968
 3076TIP3    H233424   3.568   1.097  10.837 -1.6321  2.3579  0.6390
 3077TIP3   OH233425   1.488   3.218   8.838  0.6929 -0.1540 -0.2109
 3077TIP3    H133426   1.417   3.243   8.898  1.7668  1.3878  0.4858
 3077TIP3    H233427   1.529   3.143   8.881 -1.1386 -1.7789 -1.1636
 3078TIP3   OH233428   0.388   2.603  11.793  0.3373 -0.3491 -0.0333
 3078TIP3    H133429   0.334   2.627  11.717  1.1073 -1.8733 -1.1305
 3078TIP3    H233430   0.325   2.577  11.860 -0.3438 -0.2000 -0.6015
 3079TIP3   OH233431   2.665   2.147   9.697 -0.5405 -0.8950  0.1027
 3079TIP3    H133432   2.607   2.085   9.653 -0.8126  0.1356 -1.0489
 3079TIP3    H233433   2.609   2.192   9.761 -1.2713  0.6731 -1.5699
 3080TIP3   OH233434   0.439   2.251   9.084  0.0781  0.1905 -0.2807
 3080TIP3    H133435   0.392   2.331   9.061 -0.8299  0.2231  1.5269
 3080TIP3    H233436   0.447   2.203   9.002 -0.2511  1.6700 -1.2056
 3081TIP3   OH233437   5.264   4.660   9.473  0.0850 -0.0713 -0.3442
 3081TIP3    H133438   5.354   4.640   9.450 -0.1201 -2.0585  0.4388
 3081TIP3    H233439   5.214   4.642   9.393  0.0070 -2.0816  0.1258
 3082TIP3   OH233440   5.102   2.856   8.107 -0.3488 -0.0089 -0.2019
 3082TIP3    H133441   5.189   2.818   8.112 -0.3635 -0.2673 -1.5969
 3082TIP3    H233442   5.109   2.927   8.043 -0.9608  0.5778  0.3503
 3083TIP3   OH233443   4.050   5.427  11.464 -0.1333 -0.2409 -0.0555
 3083TIP3    H133444   4.054   5.377  11.382  0.3316 -0.3054  0.0038
 3083TIP3    H233445   4.087   5.513  11.441 -1.6333  0.3666 -0.3563
 3084TIP3   OH233446   1.046   2.508   8.575 -0.4734  0.0446  0.9593
 3084TIP3    H133447   1.139   2.484   8.563 -0.4483 -0.2729  1.7417
 3084TIP3    H233448   1.007   2.432   8.618 -0.8572  0.5984  1.6159
 3085TIP3   OH233449   2.228   1.078  10.872 -0.0464 -0.4139  0.2147
 3085TIP3    H133450   2.199   0.991  10.845 -1.0462  0.2334 -0.9325
 3085TIP3    H233451   2.157   1.136  10.845  0.4591  0.7308  1.2408
 3086TIP3   OH233452   0.052   2.472  10.053 -0.6190  0.5500 -0.3518
 3086TIP3    H133453   0.025   2.564  10.048 -1.7934  0.1863 -1.1549
 3086TIP3    H233454  -0.020   2.424  10.013  0.0144 -0.7260 -0.0066
 3087TIP3   OH233455   6.745   4.402   9.937  0.1383  0.1924 -0.3928
 3087TIP3    H133456   6.781   4.412   9.849 -0.1822  2.0673 -0.3558
 3087TIP3    H233457   6.762   4.311   9.960 -0.0107 -0.4049 -2.4860
 3088TIP3   OH233458   4.960   6.417   9.383  0.3582 -0.2548 -0.0620
 3088TIP3    H133459   5.039   6.465   9.358 -0.4574  0.6055 -1.0786
 3088TIP3    H233460   4.892   6.484   9.390 -0.1683 -0.8950  1.4149
 3089TIP3   OH233461   6.342   3.101   9.063 -0.0056  0.3309  0.0811
 3089TIP3    H133462   6.336   3.045   9.141  0.9215 -0.8900 -0.6892
 3089TIP3    H233463   6.326   3.041   8.990 -1.2392  1.5285 -0.6725
 3090TIP3   OH233464   2.710   4.278   9.306  0.3829 -0.2703  0.1844
 3090TIP3    H133465   2.651   4.294   9.379 -0.2843 -0.4618 -0.3002
 3090TIP3    H233466   2.794   4.312   9.335 -0.2803  1.3041  0.3461
 3091TIP3   OH233467   3.720   4.927   8.102  0.2108 -0.5554  0.0336
 3091TIP3    H133468   3.740   4.964   8.188 -1.1761 -0.7190  0.4664
 3091TIP3    H233469   3.694   4.837   8.121  0.7511 -0.8582 -0.6649
 3092TIP3   OH233470   6.736   1.964  10.597 -0.1135  0.2180 -0.1614
 3092TIP3    H133471   6.767   1.884  10.554 -1.5912 -0.6565  0.3238
 3092TIP3    H233472   6.670   1.999  10.538  0.6655  1.2127 -0.4610
 3093TIP3   OH233473   0.890   6.689  10.511 -0.0267  0.0144 -0.3087
 3093TIP3    H133474   0.908   6.783  10.517  0.7553  0.0107 -1.9351
 3093TIP3    H233475   0.977   6.648  10.509 -0.2729 -0.5158 -2.0636
 3094TIP3   OH233476   3.230   1.863   9.762 -0.7176  0.5034  0.1563
 3094TIP3    H133477   3.291   1.918   9.713  1.0493 -2.0847 -0.7599
 3094TIP3    H233478   3.285   1.817   9.826 -2.4507  1.2776  2.3110
 3095TIP3   OH233479   5.372   5.654   9.610  0.0205 -0.1630  0.6729
 3095TIP3    H133480   5.416   5.582   9.656 -0.5317  0.3766  2.0963
 3095TIP3    H233481   5.419   5.661   9.527 -0.0100 -2.2486  0.4284
 3096TIP3   OH233482   3.671   1.061  11.527  0.4951  0.3045  0.2306
 3096TIP3    H133483   3.613   1.136  11.513  0.4878  0.2977  0.2250
 3096TIP3    H233484   3.696   1.068  11.619  0.8095  0.5405  0.1292
 3097TIP3   OH233485   0.605   4.988   8.967  0.1123  0.0017 -0.0631
 3097TIP3    H133486   0.624   5.041   9.045 -0.7532  2.2935 -1.3242
 3097TIP3    H233487   0.520   4.947   8.987  0.2490 -0.0294  0.4785
 3098TIP3   OH233488   2.181   4.755   8.991  0.4677 -0.2924  0.1889
 3098TIP3    H133489   2.250   4.725   9.050  1.9374 -0.6621 -1.6367
 3098TIP3    H233490   2.214   4.839   8.957 -1.0830  0.7129  1.0547
 3099TIP3   OH233491   3.624   5.641   8.218  0.0622  0.3577  0.0686
 3099TIP3    H133492   3.602   5.566   8.163  0.3332 -0.5267  1.1414
 3099TIP3    H233493   3.714   5.624   8.247  0.4055  1.4764 -0.2774
 3100TIP3   OH233494   2.440   3.560   9.845 -0.2589 -0.4041  0.3236
 3100TIP3    H133495   2.358   3.513   9.863 -1.1680  1.5626  1.7088
 3100TIP3    H233496   2.488   3.558   9.928  0.3989 -0.2063 -0.0425
 3101TIP3   OH233497   6.783   5.913  11.203 -0.5623 -0.8075  0.1096
 3101TIP3    H133498   6.826   5.938  11.285 -0.0539  2.4389 -1.0162
 3101TIP3    H233499   6.848   5.860  11.157  0.8848  0.8999  0.0508
 3102TIP3   OH233500   6.125   5.083  10.750 -0.0691  0.3857 -0.0425
 3102TIP3    H133501   6.142   5.005  10.803  2.9167  0.5929 -0.5228
 3102TIP3    H233502   6.159   5.060  10.663 -0.5348  1.7091 -0.6054
 3103TIP3   OH233503   2.071   0.346  10.322 -0.1806  0.3909 -0.4115
 3103TIP3    H133504   2.148   0.339  10.378  0.3877  1.7525 -0.9600
 3103TIP3    H233505   1.998   0.359  10.382  0.0747 -0.4645  0.0931
 3104TIP3   OH233506   0.699   4.490  11.684  0.1962  0.3580 -0.4648
 3104TIP3    H133507   0.748   4.423  11.731  2.3041  0.5933 -2.1513
 3104TIP3    H233508   0.624   4.444  11.647 -0.8468 -0.0705  1.9622
 3105TIP3   OH233509   2.907   5.818   9.292  0.6665  0.6692  0.0103
 3105TIP3    H133510   2.910   5.806   9.387 -0.2623 -0.5942 -0.0864
 3105TIP3    H233511   2.816   5.801   9.269  0.8121  1.2867 -1.0746
 3106TIP3   OH233512   4.091   1.826  11.181 -0.2121  0.7861 -0.4196
 3106TIP3    H133513   4.096   1.749  11.123 -1.4357  0.9544 -0.7610
 3106TIP3    H233514   4.073   1.899  11.122  0.5423  1.2918 -0.0453
 3107TIP3   OH233515   5.927   4.316   9.627 -0.2509 -0.2339 -0.0145
 3107TIP3    H133516   5.903   4.319   9.720 -1.1782 -2.2572 -0.1373
 3107TIP3    H233517   6.004   4.259   9.624  0.0954  0.2448 -0.4528
 3108TIP3   OH233518   5.709   0.478  11.498 -0.8019 -0.4185 -0.0799
 3108TIP3    H133519   5.662   0.428  11.566 -0.2995 -2.3511 -1.0831
 3108TIP3    H233520   5.799   0.446  11.503  0.1218  2.0649  0.7194
 3109TIP3   OH233521   3.924   0.835   9.331 -0.5352  0.2509 -0.4033
 3109TIP3    H133522   3.962   0.759   9.288  1.3144 -0.2178  1.8779
 3109TIP3    H233523   3.864   0.799   9.396 -1.1303  0.8537 -0.5958
 3110TIP3   OH233524   5.017   3.651  10.898  0.0594  0.3454 -0.1710
 3110TIP3    H133525   4.923   3.646  10.881  0.1603 -0.8359 -0.4683
 3110TIP3    H233526   5.025   3.711  10.972 -0.7294  2.3208 -1.6130
 3111TIP3   OH233527   1.724   5.060  10.026  0.5810 -0.2951  0.1163
 3111TIP3    H133528   1.814   5.027  10.033  0.7384  0.3338  1.2786
 3111TIP3    H233529   1.724   5.142  10.075 -0.0922  0.8782 -1.7689
 3112TIP3   OH233530   5.112   6.605  11.002  0.1129 -0.6540 -0.1556
 3112TIP3    H133531   5.170   6.645  11.067 -0.7664 -1.0859  0.9411
 3112TIP3    H233532   5.035   6.578  11.053 -0.3455 -1.5464 -1.2837
 3113TIP3   OH233533   2.002   3.531  11.303 -0.1847  0.2094  0.1278
 3113TIP3    H133534   1.975   3.571  11.220 -0.7430  0.5377  0.4581
 3113TIP3    H233535   1.960   3.585  11.370  2.9000  1.9839  0.7869
 3114TIP3   OH233536   4.583   6.366   8.272  0.4804 -0.2494  0.3180
 3114TIP3    H133537   4.564   6.407   8.357  1.0361 -0.5476  0.5899
 3114TIP3    H233538   4.626   6.434   8.222 -2.5054  0.9416 -0.8484
 3115TIP3   OH233539   3.719   4.112   8.872  0.3546  0.3308  0.0835
 3115TIP3    H133540   3.789   4.148   8.925  1.0510 -0.5408 -0.2140
 3115TIP3    H233541   3.718   4.019   8.894 -0.2536  0.2085 -0.4271
 3116TIP3   OH233542   0.920   0.595  10.271  0.3584  0.4863  0.2704
 3116TIP3    H133543   0.925   0.568  10.362  0.4285  1.8432  0.6864
 3116TIP3    H233544   0.954   0.685  10.270  1.1550  0.2057 -1.2214
 3117TIP3   OH233545   2.320   3.393   8.864 -0.0098 -0.0005 -0.1519
 3117TIP3    H133546   2.331   3.469   8.807  1.2950 -1.2464 -1.6302
 3117TIP3    H233547   2.278   3.327   8.808 -0.8842 -0.4793  1.0309
 3118TIP3   OH233548   2.999   6.647  10.838  0.1857  0.1126  0.2320
 3118TIP3    H133549   2.913   6.689  10.832 -0.3853 -0.9895  0.4673
 3118TIP3    H233550   3.002   6.610  10.926 -0.0320 -1.7778 -0.5075
 3119TIP3   OH233551   1.997   0.846   9.335 -0.4097  0.9692 -0.2989
 3119TIP3    H133552   1.928   0.800   9.384  0.1494  0.4895  0.0575
 3119TIP3    H233553   1.974   0.938   9.342 -1.7764  0.7290 -1.3697
 3120TIP3   OH233554   6.051   2.882   9.857  0.0701 -0.2696 -0.2417
 3120TIP3    H133555   5.971   2.842   9.825  0.4015 -0.6403 -0.6194
 3120TIP3    H233556   6.079   2.940   9.786 -0.0308  0.0984  0.0167
 3121TIP3   OH233557   5.625   2.782  11.502 -0.2958 -0.8949  0.2701
 3121TIP3    H133558   5.708   2.805  11.461 -0.8880  0.0297 -0.4296
 3121TIP3    H233559   5.627   2.827  11.587 -0.3991 -0.2449 -0.0660
 3122TIP3   OH233560   4.855   0.315   9.868 -0.0775  0.0089  0.0353
 3122TIP3    H133561   4.911   0.303   9.791  0.3695 -1.6188  0.5537
 3122TIP3    H233562   4.768   0.332   9.832  0.2783  0.0784 -0.8235
 3123TIP3   OH233563   5.028   2.534  11.096 -0.1555 -0.2201  0.0477
 3123TIP3    H133564   5.006   2.589  11.172 -0.4458 -0.1545 -0.0809
 3123TIP3    H233565   5.043   2.597  11.025  1.0475 -0.2280  0.2661
 3124TIP3   OH233566   3.878   2.382   9.536 -0.3385  0.1068 -0.3627
 3124TIP3    H133567   3.930   2.317   9.583 -0.0919  1.0081  0.6598
 3124TIP3    H233568   3.850   2.338   9.456 -0.0007 -1.1779  0.2057
 3125TIP3   OH233569   5.909   3.553   9.135  0.0437  0.7025  0.0267
 3125TIP3    H133570   5.915   3.468   9.092 -1.5500  0.9464 -0.7311
 3125TIP3    H233571   5.924   3.534   9.228 -1.4029 -0.6169  0.0308
 3126TIP3   OH233572   2.780   5.503  10.849 -0.4421  0.1219 -0.1083
 3126TIP3    H133573   2.870   5.473  10.844 -0.9474 -1.3612 -0.6830
 3126TIP3    H233574   2.755   5.521  10.758 -0.7066  0.6291  0.0557
 3127TIP3   OH233575   6.805   5.445   9.226  0.5031  0.0525  0.4584
 3127TIP3    H133576   6.773   5.457   9.137  2.0570 -0.2800 -0.1770
 3127TIP3    H233577   6.777   5.524   9.273  2.1098  1.6131 -1.0766
 3128TIP3   OH233578   4.300   3.686  11.580  0.4209 -0.2194  0.1643
 3128TIP3    H133579   4.228   3.697  11.642  0.1262 -3.9040  0.7010
 3128TIP3    H233580   4.350   3.768  11.587 -2.6904  1.7836  1.0081
 3129TIP3   OH233581   5.646   6.691  10.106  0.3599  0.0619 -0.3458
 3129TIP3    H133582   5.707   6.760  10.080  0.4491 -0.1731 -0.7717
 3129TIP3    H233583   5.628   6.708  10.198 -0.0134  0.9630 -0.5667
 3130TIP3   OH233584   0.022   6.172  11.399 -0.3100  0.0327 -0.1720
 3130TIP3    H133585  -0.048   6.209  11.453  0.1002  1.2314 -0.4310
 3130TIP3    H233586   0.003   6.202  11.310  0.0524 -0.3727 -0.3933
 3131TIP3   OH233587   5.532   2.671  10.828 -0.2558 -0.0592 -0.2390
 3131TIP3    H133588   5.461   2.607  10.816  1.3429 -1.8778 -0.3889
 3131TIP3    H233589   5.575   2.674  10.743  0.7721 -0.1449  0.2721
 3132TIP3   OH233590   2.739   5.709  10.385  0.5095 -0.2223  0.3139
 3132TIP3    H133591   2.804   5.711  10.455  0.2934  0.2716  0.5040
 3132TIP3    H233592   2.684   5.634  10.406  1.4264 -1.0623 -0.2251
 3133TIP3   OH233593   5.131   0.440  11.133  0.4810  0.3769 -0.5578
 3133TIP3    H133594   5.091   0.379  11.194  0.7851  0.8503  0.1292
 3133TIP3    H233595   5.070   0.445  11.059  0.1236 -0.2166 -0.3012
 3134TIP3   OH233596   1.428   0.214   9.589  0.3068 -0.2890 -0.1386
 3134TIP3    H133597   1.396   0.125   9.598 -0.2806 -0.2678 -1.7182
 3134TIP3    H233598   1.391   0.261   9.663  2.5494 -1.8194  2.1380
 3135TIP3   OH233599   2.935   0.070   8.559  0.0366 -0.2953 -0.1745
 3135TIP3    H133600   3.021   0.075   8.599 -0.4604  0.0616  0.8855
 3135TIP3    H233601   2.933  -0.016   8.518  0.9087 -0.2898 -0.2508
 3136TIP3   OH233602   5.484   6.791  11.341  0.1613  0.3079  0.6374
 3136TIP3    H133603   5.500   6.885  11.350 -0.8256  0.6474 -0.9096
 3136TIP3    H233604   5.509   6.771  11.251 -1.6849 -0.4675  0.2640
 3137TIP3   OH233605   4.629   4.196   9.566 -0.4995 -0.6290 -0.3941
 3137TIP3    H133606   4.596   4.282   9.590  0.0322 -0.2157 -1.0832
 3137TIP3    H233607   4.662   4.207   9.476  1.5972 -0.9571  0.2760
 3138TIP3   OH233608   0.441   6.562  11.118  0.0975 -0.4238  0.1970
 3138TIP3    H133609   0.517   6.610  11.087 -0.9616  0.6508 -0.8585
 3138TIP3    H233610   0.396   6.624  11.175  0.5750 -1.4413  1.7404
 3139TIP3   OH233611   0.557   1.537   9.604 -0.2211  0.7678 -0.1654
 3139TIP3    H133612   0.465   1.529   9.580 -0.8081  0.1964  2.0738
 3139TIP3    H233613   0.587   1.447   9.616  0.1099  0.9868  0.8047
 3140TIP3   OH233614   2.336   1.958  10.869  0.4840  0.0285 -0.0869
 3140TIP3    H133615   2.290   1.893  10.922  2.1041  0.4484  1.9890
 3140TIP3    H233616   2.312   2.042  10.909  0.4395  0.5053 -1.0916
 3141TIP3   OH233617   3.358   2.855  11.015  0.1987 -0.5604  0.2716
 3141TIP3    H133618   3.272   2.831  10.982 -0.5768  1.4634  0.6692
 3141TIP3    H233619   3.365   2.812  11.100 -0.1863 -1.1385  0.0169
 3142TIP3   OH233620   0.425   2.356  11.568 -0.1266  0.6523 -0.2190
 3142TIP3    H133621   0.361   2.289  11.594  0.1024  0.5823  0.1826
 3142TIP3    H233622   0.489   2.356  11.640  0.2935  0.7555 -0.5885
 3143TIP3   OH233623   3.182   0.449  11.445 -0.0447  0.0030  0.3889
 3143TIP3    H133624   3.254   0.395  11.479 -0.1309  1.3683  3.0028
 3143TIP3    H233625   3.225   0.529  11.414 -0.1121 -0.7258 -1.7791
 3144TIP3   OH233626   3.298   2.127   9.363  0.4343  0.3314 -0.7624
 3144TIP3    H133627   3.372   2.152   9.308 -0.3150  1.5145 -1.2570
 3144TIP3    H233628   3.246   2.207   9.372 -0.7065 -0.4340 -0.2915
 3145TIP3   OH233629   6.116   0.687   9.109 -0.6431  0.3117 -0.0749
 3145TIP3    H133630   6.110   0.734   9.192 -0.6773  0.3545 -0.1013
 3145TIP3    H233631   6.204   0.650   9.108 -0.6263  0.3510 -0.0415
 3146TIP3   OH233632   2.006   4.306   8.710  0.3651  0.0767 -0.2415
 3146TIP3    H133633   2.018   4.354   8.628 -0.7996 -0.3845 -0.7088
 3146TIP3    H233634   2.050   4.359   8.776  1.4228  0.3975 -1.1825
 3147TIP3   OH233635   4.901   6.639  10.473  0.2706 -0.3820 -0.2781
 3147TIP3    H133636   4.840   6.712  10.486  2.3472  1.5844 -0.8224
 3147TIP3    H233637   4.938   6.623  10.559  3.3093  2.6382 -0.8154
 3148TIP3   OH233638   0.943   5.423  10.917  0.0777 -0.7064 -0.6267
 3148TIP3    H133639   0.894   5.429  10.999 -0.3764  1.1956 -0.9935
 3148TIP3    H233640   0.917   5.340  10.879 -1.4412 -0.5801  0.0919
 3149TIP3   OH233641   4.866   5.150   9.997 -0.1444  0.4547  0.5186
 3149TIP3    H133642   4.846   5.213   9.927 -1.2855 -0.1877  0.2494
 3149TIP3    H233643   4.879   5.204  10.075  0.4192  1.1262 -0.0306
 3150TIP3   OH233644   4.700   0.529  11.146  0.3175 -0.1946 -0.0126
 3150TIP3    H133645   4.681   0.471  11.073 -0.9819  0.2596 -0.0635
 3150TIP3    H233646   4.666   0.484  11.223  0.3605 -0.0297  0.1044
 3151TIP3   OH233647   5.360   4.797  10.658 -0.0426 -0.1728 -0.4688
 3151TIP3    H133648   5.292   4.742  10.617  0.7889 -1.6358  0.0407
 3151TIP3    H233649   5.321   4.826  10.740 -0.2660 -0.5265 -0.4461
 3152TIP3   OH233650   3.631   0.141  11.358  0.3116 -0.0460 -0.1526
 3152TIP3    H133651   3.551   0.091  11.376  0.9770 -1.0525  0.0985
 3152TIP3    H233652   3.695   0.075  11.330  1.2117  0.6637  0.1786
 3153TIP3   OH233653   1.279   5.633  11.926  0.1465 -0.3404 -0.1481
 3153TIP3    H133654   1.280   5.542  11.956  2.0513 -0.8262 -1.4810
 3153TIP3    H233655   1.314   5.629  11.837 -0.3993  1.6376 -0.5044
 3154TIP3   OH233656   2.263   3.057  11.453  0.5714 -0.1991  0.7265
 3154TIP3    H133657   2.292   2.966  11.456  0.9253 -0.0891  0.6852
 3154TIP3    H233658   2.340   3.106  11.422  0.0484 -0.0252 -0.3424
 3155TIP3   OH233659   3.179   0.906  10.518  0.5156 -0.4245 -0.4170
 3155TIP3    H133660   3.101   0.878  10.470  0.1522 -0.2381  0.0558
 3155TIP3    H233661   3.146   0.967  10.583  1.1539  0.2139 -0.6826
 3156TIP3   OH233662   0.418   1.664  10.755  0.4175 -0.0181  0.4198
 3156TIP3    H133663   0.359   1.738  10.747 -0.0724  0.1172  3.7077
 3156TIP3    H233664   0.505   1.703  10.760  0.3601  0.1512  0.1265
 3157TIP3   OH233665   1.490   6.613  10.141  0.3943 -0.3680 -0.5177
 3157TIP3    H133666   1.434   6.649  10.072 -0.6163 -0.6648  0.1249
 3157TIP3    H233667   1.518   6.690  10.192  2.2033 -0.0003 -1.9819
 3158TIP3   OH233668   3.382   4.424  10.935 -0.1540 -0.1172 -0.1315
 3158TIP3    H133669   3.380   4.373  11.015 -0.8698  0.2311  0.0741
 3158TIP3    H233670   3.302   4.476  10.936  0.2445  0.5352 -0.6504
 3159TIP3   OH233671   0.022   0.430  10.274  0.1921  0.5288 -0.1576
 3159TIP3    H133672   0.041   0.523  10.291 -1.0310  0.8391 -0.3991
 3159TIP3    H233673   0.043   0.386  10.357 -1.4907  1.3791  0.7705
 3160TIP3   OH233674   5.874   0.208  10.933 -0.0917  0.2414  0.0734
 3160TIP3    H133675   5.880   0.266  10.857 -0.1037 -1.1592 -1.0329
 3160TIP3    H233676   5.797   0.238  10.980 -0.5351  0.6473 -0.8829
 3161TIP3   OH233677   4.013   0.666  10.707 -0.5000 -0.3687  0.5409
 3161TIP3    H133678   4.012   0.574  10.680 -2.1316 -0.6986  1.5934
 3161TIP3    H233679   3.929   0.679  10.751 -0.0364  1.4693  0.9623
 3162TIP3   OH233680   3.297   3.128  11.047  0.2198  0.0439  0.6959
 3162TIP3    H133681   3.323   3.041  11.015  0.1743  0.1763  0.2916
 3162TIP3    H233682   3.234   3.159  10.982 -0.8768 -0.2238  1.6066
 3163TIP3   OH233683   4.677   5.080  10.791  0.8137  0.1099 -0.5868
 3163TIP3    H133684   4.653   5.066  10.882  1.9327 -1.7942 -0.5423
 3163TIP3    H233685   4.594   5.097  10.746 -0.1983 -2.4000  0.2013
 3164TIP3   OH233686   3.576   4.193   8.655  0.3127 -0.3181  0.1454
 3164TIP3    H133687   3.613   4.164   8.571  2.7810  2.1651  0.2472
 3164TIP3    H233688   3.632   4.152   8.721 -1.5238 -2.1298  0.7071
 3165TIP3   OH233689   0.388   5.944   9.496  0.0406  0.2255 -0.2101
 3165TIP3    H133690   0.462   5.913   9.444  0.6535 -0.4433  1.0025
 3165TIP3    H233691   0.424   6.017   9.547 -0.2837  0.2576 -0.0237
 3166TIP3   OH233692   0.770   6.447  10.211  0.6034 -0.0042 -0.3030
 3166TIP3    H133693   0.832   6.382  10.243 -0.4354 -1.4815 -1.1646
 3166TIP3    H233694   0.716   6.468  10.287  1.3271  0.3318  0.1284
 3167TIP3   OH233695   0.518   5.367   9.255 -0.0028  0.6148 -0.3060
 3167TIP3    H133696   0.431   5.374   9.215 -0.5534 -0.1194  0.7114
 3167TIP3    H233697   0.526   5.447   9.308 -0.1703  0.5675 -0.2064
 3168TIP3   OH233698   0.384   0.190  11.594  0.1114  0.0234 -0.4136
 3168TIP3    H133699   0.301   0.183  11.642  0.7558 -1.4625  0.5513
 3168TIP3    H233700   0.359   0.180  11.502 -0.9631  1.3103 -0.2880
 3169TIP3   OH233701   2.766   3.658  10.412 -0.4762 -0.5844  0.3765
 3169TIP3    H133702   2.846   3.609  10.431  0.2048  0.4040  0.1314
 3169TIP3    H233703   2.790   3.716  10.340 -1.8402 -1.3238 -0.7332
 3170TIP3   OH233704   1.013   3.659  10.138  0.5215  0.1762 -0.1197
 3170TIP3    H133705   1.068   3.611  10.200 -1.3988 -0.9167  0.8369
 3170TIP3    H233706   1.037   3.624  10.052 -0.0410 -1.7457  0.4538
 3171TIP3   OH233707   1.809   0.200  10.873 -0.4881 -0.3189  0.1312
 3171TIP3    H133708   1.738   0.246  10.918  0.6024  0.2731  1.3083
 3171TIP3    H233709   1.854   0.152  10.942 -0.3835 -1.5675 -0.7722
 3172TIP3   OH233710   6.687   3.190   9.736  0.0990 -0.2686  0.1122
 3172TIP3    H133711   6.706   3.279   9.764 -1.1596  0.2681 -0.6682
 3172TIP3    H233712   6.615   3.199   9.674  0.4238 -1.7649 -0.5245
 3173TIP3   OH233713   4.531   2.778  11.698  0.3077 -0.0516  0.1457
 3173TIP3    H133714   4.549   2.864  11.661 -0.5979  0.1097  0.0653
 3173TIP3    H233715   4.609   2.726  11.676  1.1735  0.9294  0.8178
 3174TIP3   OH233716   1.982   4.935  11.158 -0.4715  0.8629 -0.0386
 3174TIP3    H133717   2.050   4.974  11.104  0.3311 -0.1591  0.1889
 3174TIP3    H233718   1.990   4.841  11.142 -0.2515  0.5295  1.7828
 3175TIP3   OH233719   6.366   3.696   8.919  0.2440 -0.0354  0.4068
 3175TIP3    H133720   6.354   3.766   8.983 -0.7033 -1.2175  1.5837
 3175TIP3    H233721   6.277   3.664   8.902  0.5917 -0.4799 -0.6642
 3176TIP3   OH233722   4.361   2.171   8.991 -0.0961  0.0808 -0.3813
 3176TIP3    H133723   4.451   2.138   8.993  0.1396  0.7262  0.5261
 3176TIP3    H233724   4.308   2.095   8.970  0.6785 -0.2650 -1.1369
 3177TIP3   OH233725   0.415   4.497  10.750 -0.1889 -0.2355  0.3784
 3177TIP3    H133726   0.382   4.408  10.736 -0.3058 -0.0323 -0.7137
 3177TIP3    H233727   0.506   4.493  10.721 -0.2110  0.0197  0.2769
 3178TIP3   OH233728   1.208   0.840  11.709  0.1973  0.3194  0.4410
 3178TIP3    H133729   1.293   0.800  11.725  0.3698  0.2059 -0.7057
 3178TIP3    H233730   1.225   0.934  11.713  0.2406  0.2969  0.8563
 3179TIP3   OH233731   0.391   5.358  11.259  0.2660  0.0262  0.1638
 3179TIP3    H133732   0.341   5.367  11.177 -1.2856 -0.4388  1.0015
 3179TIP3    H233733   0.336   5.401  11.324  1.8795  1.1058  0.8356
 3180TIP3   OH233734   4.846   5.135   9.638  0.5205 -0.0818  0.2749
 3180TIP3    H133735   4.833   5.213   9.585  1.5509 -0.1754 -0.1521
 3180TIP3    H233736   4.897   5.166   9.714 -0.5393 -0.0345  0.9822
 3181TIP3   OH233737   4.877   3.315  11.469 -0.6662  0.6660 -0.3447
 3181TIP3    H133738   4.963   3.275  11.483 -1.0481 -0.1806 -0.3653
 3181TIP3    H233739   4.816   3.261  11.518 -1.0151  2.1740  0.9839
 3182TIP3   OH233740   3.559   2.561   9.204  0.4931  0.4005  0.0417
 3182TIP3    H133741   3.485   2.594   9.256 -0.2288 -2.3184  0.8862
 3182TIP3    H233742   3.523   2.550   9.116  0.8370  2.0213 -0.3416
 3183TIP3   OH233743   5.863   0.674   8.551  0.2939 -0.4053  0.3880
 3183TIP3    H133744   5.915   0.755   8.547  1.0329 -0.9031 -0.3979
 3183TIP3    H233745   5.879   0.640   8.639 -0.6249  0.6711  1.0062
 3184TIP3   OH233746   2.518   2.983   8.609  0.3703 -0.1300 -0.4032
 3184TIP3    H133747   2.598   2.952   8.569 -0.5337 -1.1664 -1.4646
 3184TIP3    H233748   2.517   2.941   8.696  1.1238  0.1655 -0.2427
 3185TIP3   OH233749   2.558   2.465  11.733  0.6364  0.3771  0.1196
 3185TIP3    H133750   2.637   2.509  11.763  0.8974 -0.7301  1.1331
 3185TIP3    H233751   2.583   2.426  11.649  0.8161  0.9604 -0.1032
 3186TIP3   OH233752   3.954   2.893  10.690  0.4043  0.5255 -0.6827
 3186TIP3    H133753   3.927   2.913  10.780 -0.4834 -0.9388 -0.5935
 3186TIP3    H233754   4.003   2.971  10.662 -0.0818  1.3882  0.7401
 3187TIP3   OH233755   3.562   4.634  10.936  0.2507 -0.2693  0.1735
 3187TIP3    H133756   3.545   4.654  10.844 -2.0065 -2.8015 -0.0836
 3187TIP3    H233757   3.510   4.556  10.953 -0.7838  1.0417  4.0759
 3188TIP3   OH233758   4.853   0.469  11.640  0.5241  0.2517 -0.1880
 3188TIP3    H133759   4.823   0.540  11.583 -0.2413  0.2919  0.2562
 3188TIP3    H233760   4.773   0.424  11.666  0.7961  0.6628  1.4299
 3189TIP3   OH233761   6.429   2.078  10.750 -0.0501 -0.1240  0.0871
 3189TIP3    H133762   6.468   2.015  10.689 -0.7004 -1.6445  1.1835
 3189TIP3    H233763   6.463   2.163  10.721  1.5980 -1.0488 -0.8730
 3190TIP3   OH233764   6.724   2.252  11.081  0.3784 -0.9520  0.7267
 3190TIP3    H133765   6.707   2.166  11.121 -0.2006 -0.7181  0.9797
 3190TIP3    H233766   6.741   2.232  10.989 -2.2992 -1.1045  0.2107
 3191TIP3   OH233767   2.124   0.332  11.062  0.0900  0.3986  0.7232
 3191TIP3    H133768   2.108   0.409  11.117  0.7243  0.4491  0.8505
 3191TIP3    H233769   2.217   0.338  11.040 -0.1616  0.3836 -0.3773
 3192TIP3   OH233770   1.828   5.387   9.088  0.7074  0.1089 -0.1293
 3192TIP3    H133771   1.733   5.400   9.081  0.4922 -1.2840 -0.1191
 3192TIP3    H233772   1.864   5.476   9.091 -0.6606  0.6742  0.8121
 3193TIP3   OH233773   1.181   5.126  10.480  0.2821  0.4569  0.3849
 3193TIP3    H133774   1.112   5.193  10.480 -0.4292 -0.2536  1.2157
 3193TIP3    H233775   1.134   5.043  10.485  1.1279 -0.1708 -1.2004
 3194TIP3   OH233776   4.134   0.393   9.818  0.5468  0.0384  0.3251
 3194TIP3    H133777   4.145   0.301   9.839 -2.6881 -0.4910  0.2992
 3194TIP3    H233778   4.117   0.435   9.902  0.5432  0.3449  0.1743
 3195TIP3   OH233779   4.894   5.297  11.740 -0.4578  0.2772 -0.5381
 3195TIP3    H133780   4.925   5.239  11.809 -2.2506 -0.2860 -0.1536
 3195TIP3    H233781   4.957   5.285  11.669  2.9062  2.7116  1.7226
 3196TIP3   OH233782   0.064   3.014   8.475 -0.0000 -0.7705 -0.5752
 3196TIP3    H133783   0.008   2.936   8.478  2.1808 -2.3846  0.9739
 3196TIP3    H233784   0.143   2.989   8.522  0.5683  2.6189  0.5211
 3197TIP3   OH233785   4.222   4.687   7.734 -0.1426  0.6762 -0.6239
 3197TIP3    H133786   4.306   4.702   7.778 -0.5765 -1.2517  1.0086
 3197TIP3    H233787   4.165   4.756   7.768 -0.1709 -0.1453  1.0799
 3198TIP3   OH233788   1.660   0.454   9.582  0.1666 -0.2947  0.1038
 3198TIP3    H133789   1.695   0.419   9.500  0.1269  0.4099 -0.2190
 3198TIP3    H233790   1.571   0.482   9.559  0.8111  1.7432 -0.1480
 3199TIP3   OH233791   5.771   6.080   9.596  0.1098  0.3151 -0.0110
 3199TIP3    H133792   5.813   6.108   9.678  1.2307 -0.7649 -0.2095
 3199TIP3    H233793   5.814   5.998   9.573 -1.3128 -0.2284 -0.8454
 3200TIP3   OH233794   6.643   5.930   9.015  0.3212  0.4803 -0.3480
 3200TIP3    H133795   6.714   5.985   8.985  0.2783  0.8813  0.2697
 3200TIP3    H233796   6.679   5.882   9.090  0.2829 -0.1497 -0.7258
 3201TIP3   OH233797   3.270   6.463  10.153 -0.3110 -0.3145 -0.4810
 3201TIP3    H133798   3.270   6.488  10.061  0.5680  0.0393 -0.3972
 3201TIP3    H233799   3.351   6.499  10.187 -1.2849  0.8086  0.7662
 3202TIP3   OH233800   3.234   6.364  11.928 -0.0046 -0.5822 -0.4294
 3202TIP3    H133801   3.275   6.297  11.873  0.9012  0.1242 -0.6331
 3202TIP3    H233802   3.160   6.318  11.970  1.5107 -2.1544  0.6646
 3203TIP3   OH233803   2.939   5.500  10.108 -0.1566 -0.2825 -0.6803
 3203TIP3    H133804   3.026   5.479  10.074 -0.6313 -0.0382 -2.1370
 3203TIP3    H233805   2.941   5.595  10.122  0.7676 -0.6593  2.2578
 3204TIP3   OH233806   3.831   2.511   9.869 -0.2338 -0.0956  0.1379
 3204TIP3    H133807   3.837   2.420   9.900 -1.7626 -0.6215 -0.9460
 3204TIP3    H233808   3.799   2.559   9.945 -0.3407 -0.6548  0.4582
 3205TIP3   OH233809   0.685   1.742   9.422  0.4442  0.7406 -0.0285
 3205TIP3    H133810   0.643   1.710   9.501  1.4056 -0.1669  0.1393
 3205TIP3    H233811   0.688   1.666   9.364 -0.1127  1.3540 -0.8861
 3206TIP3   OH233812   4.976   0.900   9.067  0.0288  0.3045 -0.3946
 3206TIP3    H133813   4.949   0.958   9.138  2.0860 -0.4004  1.0685
 3206TIP3    H233814   5.049   0.946   9.025  0.4407 -0.3624 -0.4220
 3207TIP3   OH233815   3.607   4.359  10.341  0.4541  0.0677 -0.2309
 3207TIP3    H133816   3.608   4.303  10.419  0.1385  0.6013  0.1645
 3207TIP3    H233817   3.697   4.359  10.310  1.4313  2.6243  2.1557
 3208TIP3   OH233818   3.843   4.113   8.580 -0.1906 -0.0587  0.0006
 3208TIP3    H133819   3.806   4.107   8.492 -0.6139 -0.6763  0.2153
 3208TIP3    H233820   3.919   4.171   8.570  0.8895 -1.5750 -1.1595
 3209TIP3   OH233821   6.738   3.151  10.514 -0.2951 -0.5805  0.2868
 3209TIP3    H133822   6.717   3.199  10.433  0.1605 -1.1521 -0.1823
 3209TIP3    H233823   6.834   3.149  10.516 -0.2927 -2.1950 -0.1488
 3210TIP3   OH233824   4.357   2.202   9.414 -0.1065 -0.2462 -0.1558
 3210TIP3    H133825   4.348   2.289   9.452 -0.7117  0.4851 -1.8775
 3210TIP3    H233826   4.447   2.199   9.382  0.6237 -1.1145  1.8154
 3211TIP3   OH233827   0.201   5.475  11.552  0.0446  0.2396 -0.2992
 3211TIP3    H133828   0.210   5.388  11.591 -0.4473  0.8369  1.2400
 3211TIP3    H233829   0.269   5.527  11.594 -1.4159  1.2606  0.9471
 3212TIP3   OH233830   2.051   4.769   8.676  0.4093 -0.4176  0.0262
 3212TIP3    H133831   2.062   4.805   8.587  0.3204 -0.3715  0.0346
 3212TIP3    H233832   2.120   4.702   8.683  0.7726 -0.0377  0.1219
 3213TIP3   OH233833   3.430   2.613  10.129 -0.0030  0.3679  0.0908
 3213TIP3    H133834   3.379   2.678  10.178  0.1430  0.5750 -0.0274
 3213TIP3    H233835   3.411   2.530  10.172 -0.4836  0.4353  0.0160
 3214TIP3   OH233836   2.284   3.345  11.506  0.2754 -0.3405 -0.1636
 3214TIP3    H133837   2.201   3.298  11.511  0.3883 -0.5592 -0.3262
 3214TIP3    H233838   2.306   3.364  11.597 -0.7560  1.1466 -0.1999
 3215TIP3   OH233839   0.631   3.784  11.427 -0.2398  0.1833  0.7554
 3215TIP3    H133840   0.686   3.718  11.468  1.1150  0.8030  0.0085
 3215TIP3    H233841   0.564   3.734  11.381  0.4695 -0.6587  0.6102
 3216TIP3   OH233842   1.369   0.093  10.809  0.0559  0.3324 -0.6945
 3216TIP3    H133843   1.339   0.013  10.765  1.3098 -0.8265  0.4312
 3216TIP3    H233844   1.399   0.149  10.739  0.4383 -0.7647 -1.4404
 3217TIP3   OH233845   6.165   6.733   9.774  0.4767  0.2345 -0.7664
 3217TIP3    H133846   6.099   6.757   9.710 -0.4721 -0.6385 -0.1528
 3217TIP3    H233847   6.117   6.729   9.857  1.5704  0.8461 -0.0769
 3218TIP3   OH233848   6.722   1.632  10.048 -0.3444  0.4188  0.0627
 3218TIP3    H133849   6.657   1.573  10.011 -0.5756  0.6965  0.0228
 3218TIP3    H233850   6.780   1.654   9.975  0.1026 -0.2370  0.2160
 3219TIP3   OH233851   0.449   3.079  10.890  0.0555 -0.5474 -0.0265
 3219TIP3    H133852   0.497   3.150  10.848 -0.0908  0.3279  1.2391
 3219TIP3    H233853   0.483   3.076  10.979 -1.8656 -0.2189  0.7681
 3220TIP3   OH233854   0.739   6.081   9.432 -0.1266  0.2250  0.2120
 3220TIP3    H133855   0.752   6.093   9.526 -0.4690 -0.7525  0.3976
 3220TIP3    H233856   0.660   6.131   9.412 -0.0810  0.3934  0.4554
 3221TIP3   OH233857   1.971   6.715   9.457 -0.4263  0.2985 -0.2502
 3221TIP3    H133858   1.877   6.732   9.458 -0.5776 -0.2512  2.5706
 3221TIP3    H233859   2.011   6.802   9.458 -0.8501  0.5348 -1.4608
 3222TIP3   OH233860   5.730   1.331  11.159  0.2895 -0.4405  0.6497
 3222TIP3    H133861   5.636   1.348  11.160  0.3172 -0.2044 -0.1915
 3222TIP3    H233862   5.745   1.274  11.234 -0.6370 -1.0900  0.3529
 3223TIP3   OH233863   1.231   3.932  10.817 -0.4211 -0.7059 -0.5643
 3223TIP3    H133864   1.184   3.927  10.734 -1.0923 -1.0163 -0.1705
 3223TIP3    H233865   1.321   3.953  10.792 -0.4611 -1.5030 -1.4145
 3224TIP3   OH233866   0.902   4.403   8.513  0.1372  0.1176  0.0389
 3224TIP3    H133867   0.875   4.475   8.570 -0.4649  1.2655 -1.6121
 3224TIP3    H233868   0.829   4.391   8.452  1.5296  0.3578 -1.7829
 3225TIP3   OH233869   0.218   5.198   9.032  0.3283  0.3722 -0.0368
 3225TIP3    H133870   0.245   5.266   9.093 -4.4886  1.7243  0.9861
 3225TIP3    H233871   0.194   5.245   8.952  3.1668 -1.0159 -1.8674
 3226TIP3   OH233872   4.254   6.428   9.957  0.2383 -0.3787 -0.6792
 3226TIP3    H133873   4.239   6.341   9.996  1.9779 -1.1910 -1.7108
 3226TIP3    H233874   4.276   6.484  10.031  0.1997 -1.0758 -0.1302
 3227TIP3   OH233875   2.595   3.396   8.610  0.0357  0.1917 -0.6009
 3227TIP3    H133876   2.591   3.355   8.523 -0.4906 -0.6691 -0.1800
 3227TIP3    H233877   2.505   3.423   8.628  0.0282 -0.1625 -0.0776
 3228TIP3   OH233878   0.093   1.648  10.223 -0.0160 -0.2748  0.7032
 3228TIP3    H133879   0.159   1.628  10.157 -0.8085  0.1249 -0.2417
 3228TIP3    H233880   0.019   1.683  10.173 -1.1041 -1.0908  1.6740
 3229TIP3   OH233881   5.887   5.372   9.777  0.4683 -0.1367 -0.1835
 3229TIP3    H133882   5.812   5.418   9.814  1.7160  1.6645  0.2646
 3229TIP3    H233883   5.963   5.412   9.820  1.8904  0.6121 -3.1155
 3230TIP3   OH233884   0.358   3.190   8.544 -0.0632 -0.2218 -0.2436
 3230TIP3    H133885   0.379   3.100   8.518 -1.1783 -0.7183  0.5151
 3230TIP3    H233886   0.423   3.211   8.611  0.1795 -0.4760 -0.3979
 3231TIP3   OH233887   1.867   1.948  10.494 -0.0005 -0.0243  0.1858
 3231TIP3    H133888   1.827   2.022  10.539  0.9513  0.7244 -0.1644
 3231TIP3    H233889   1.802   1.922  10.428 -0.7522 -0.1598  0.9571
 3232TIP3   OH233890   1.265   4.588   9.144 -0.2378 -0.4114  0.3486
 3232TIP3    H133891   1.241   4.518   9.205 -1.5034  0.1565  0.5232
 3232TIP3    H233892   1.194   4.589   9.080  1.0673 -1.0119 -1.1856
 3233TIP3   OH233893   6.152   6.037  11.463 -0.3443  0.7098  0.5747
 3233TIP3    H133894   6.168   6.031  11.369  1.7284 -1.3911  0.9710
 3233TIP3    H233895   6.073   5.985  11.477  0.8096 -1.2564  0.2303
 3234TIP3   OH233896   1.343   5.347  11.913  0.1611  0.3913 -0.3304
 3234TIP3    H133897   1.326   5.272  11.856 -0.0372  0.1481  0.0406
 3234TIP3    H233898   1.423   5.324  11.960  0.7598  0.9284 -1.0620
 3235TIP3   OH233899   4.773   0.413  10.727 -0.3743 -0.4132 -0.5060
 3235TIP3    H133900   4.723   0.485  10.688  0.6300  0.9077  0.5150
 3235TIP3    H233901   4.815   0.370  10.653 -1.3443 -0.2391 -1.1815
 3236TIP3   OH233902   6.343   4.046  11.936  0.3542 -0.2546 -0.3647
 3236TIP3    H133903   6.354   3.968  11.991  0.4560  1.2636  1.9056
 3236TIP3    H233904   6.377   4.020  11.851  0.2805 -2.7138  0.2570
 3237TIP3   OH233905   0.436   4.081  10.887  0.2561  0.2126 -0.3733
 3237TIP3    H133906   0.354   4.060  10.842  0.5689 -0.8774 -0.4654
 3237TIP3    H233907   0.413   4.152  10.948 -0.3323  1.2154 -1.7106
 3238TIP3   OH233908   2.288   2.136  11.583 -0.1211  0.2082  0.3361
 3238TIP3    H133909   2.201   2.155  11.548 -0.0132 -1.3806 -0.9258
 3238TIP3    H233910   2.297   2.194  11.659 -0.9635  2.7681 -1.3970
 3239TIP3   OH233911   4.288   5.745  10.816  0.4568  0.0914  0.4433
 3239TIP3    H133912   4.228   5.798  10.763  0.0568 -0.4936  0.3067
 3239TIP3    H233913   4.316   5.675  10.758  0.5666 -0.1534  0.7925
 3240TIP3   OH233914   6.470   6.212  11.448 -0.0538  0.3246 -0.1621
 3240TIP3    H133915   6.543   6.268  11.473  2.0721 -1.6589 -1.4696
 3240TIP3    H233916   6.404   6.226  11.516  0.8644  3.3401  0.2377
 3241TIP3   OH233917   2.412   4.656   9.742 -0.4929  0.3386  0.5180
 3241TIP3    H133918   2.397   4.719   9.671  0.3882  0.0163  0.0343
 3241TIP3    H233919   2.453   4.708   9.811 -0.0648  0.3699  0.2448
 3242TIP3   OH233920   2.949   6.544  10.444 -0.1323  0.7240 -0.1126
 3242TIP3    H133921   2.937   6.510  10.355 -1.0158 -0.0306  0.2777
 3242TIP3    H233922   2.887   6.616  10.451 -1.1708 -0.1850  0.3680
 3243TIP3   OH233923   3.162   0.285   8.848 -0.0011  0.3992 -0.1695
 3243TIP3    H133924   3.238   0.342   8.833 -0.2337  0.5160 -0.9490
 3243TIP3    H233925   3.167   0.220   8.778  0.9328 -1.3028  1.3819
 3244TIP3   OH233926   0.257   1.061  11.142  0.6748 -0.0515  0.1268
 3244TIP3    H133927   0.221   1.051  11.054 -0.5603  0.1062  0.5919
 3244TIP3    H233928   0.328   1.125  11.131  0.5587 -0.0556 -0.7554
 3245TIP3   OH233929   3.675   2.196   9.537 -0.0700 -0.4230  0.5915
 3245TIP3    H133930   3.725   2.259   9.589  1.9675 -1.0703 -0.4839
 3245TIP3    H233931   3.703   2.212   9.447 -0.7993 -1.7339  0.1049
 3246TIP3   OH233932   5.591   4.079  10.430 -0.3996 -0.9757  0.0984
 3246TIP3    H133933   5.625   4.062  10.342 -0.9121 -1.5975  0.0153
 3246TIP3    H233934   5.611   4.172  10.446  1.8633 -1.4342  0.2947
 3247TIP3   OH233935   1.748   2.045   9.078  0.4943  0.0870 -0.0943
 3247TIP3    H133936   1.769   1.954   9.055  1.0230  0.3793 -0.8271
 3247TIP3    H233937   1.732   2.088   8.993  1.1931  0.8991  0.1729
 3248TIP3   OH233938   0.982   5.476   9.988  0.5239 -0.4196 -0.3579
 3248TIP3    H133939   0.890   5.459   9.968 -0.2896  1.0202  1.8310
 3248TIP3    H233940   1.011   5.537   9.920 -0.3955 -0.1825 -0.5417
 3249TIP3   OH233941   2.534   0.713  10.509  0.1280  0.0977 -0.0280
 3249TIP3    H133942   2.584   0.767  10.448 -2.1838  0.7173 -1.4714
 3249TIP3    H233943   2.559   0.747  10.596  2.1048  0.3961 -0.6605
 3250TIP3   OH233944   1.674   2.386  10.132 -0.5189 -0.5497 -0.1809
 3250TIP3    H133945   1.584   2.416  10.117  0.4695  2.1556 -1.3167
 3250TIP3    H233946   1.728   2.450  10.086  2.0524 -1.4880  1.3533
 3251TIP3   OH233947   3.101   1.112  10.704 -0.1565  0.2663 -0.7475
 3251TIP3    H133948   3.123   1.202  10.683  1.2699  0.0320 -0.3788
 3251TIP3    H233949   3.144   1.095  10.788 -1.0416 -0.5313 -0.4269
 3252TIP3   OH233950   0.608   0.078  10.573  0.0228  0.1232  0.3491
 3252TIP3    H133951   0.548   0.142  10.536 -0.3983 -0.1310  0.5867
 3252TIP3    H233952   0.577  -0.006  10.540  1.4976  0.1499 -1.2235
 3253TIP3   OH233953   2.271   4.030  11.527  0.0366  0.3270 -0.0311
 3253TIP3    H133954   2.199   4.086  11.501 -0.1963 -0.0556 -0.2202
 3253TIP3    H233955   2.306   3.995  11.444  0.3696  0.4262  0.0635
 3254TIP3   OH233956   4.588   0.666   9.266 -0.4016 -0.1083  0.3668
 3254TIP3    H133957   4.543   0.698   9.188  0.4215  1.8349  0.6240
 3254TIP3    H233958   4.681   0.684   9.250  0.0736 -2.0303  0.7564
 3255TIP3   OH233959   5.800   0.352   9.411 -0.1296 -0.6282  0.5858
 3255TIP3    H133960   5.830   0.299   9.338 -0.2719  0.0178  0.0452
 3255TIP3    H233961   5.704   0.351   9.404 -0.1200  0.6683 -0.1661
 3256TIP3   OH233962   0.655   4.347  10.110  0.2193 -0.3230 -0.0760
 3256TIP3    H133963   0.654   4.407  10.034  3.9316  0.8194  0.5420
 3256TIP3    H233964   0.653   4.260  10.071  0.1480  0.2247 -1.3740
 3257TIP3   OH233965   1.830   1.579  10.768  0.3347  0.9188 -0.0195
 3257TIP3    H133966   1.921   1.580  10.798  0.3588 -1.7639  0.2182
 3257TIP3    H233967   1.789   1.653  10.812  2.0095  1.1483  1.2341
 3258TIP3   OH233968   6.224   4.233  11.637  0.2297  0.1453  0.4484
 3258TIP3    H133969   6.197   4.146  11.666 -2.2807  0.5800 -0.3454
 3258TIP3    H233970   6.180   4.293  11.698  1.2060  0.8977  0.4364
 3259TIP3   OH233971   1.179   0.086  10.036 -0.4821  0.0494  0.0041
 3259TIP3    H133972   1.177   0.017  10.102 -2.6766  0.8052  0.8169
 3259TIP3    H233973   1.109   0.146  10.062  1.3788  2.6329 -0.6314
 3260TIP3   OH233974   1.468   5.781  11.140  0.2646 -0.0473 -0.0403
 3260TIP3    H133975   1.555   5.743  11.147 -0.0415 -1.0186 -1.2516
 3260TIP3    H233976   1.483   5.875  11.145  1.3304 -0.2134  0.2339
 3261TIP3   OH233977   1.533   5.314  10.656  0.2677 -0.0213 -0.3058
 3261TIP3    H133978   1.549   5.359  10.739 -0.0895 -0.1628 -0.1577
 3261TIP3    H233979   1.462   5.364  10.615  0.0385 -0.2992 -0.2526
 3262TIP3   OH233980   0.017   5.689  10.648 -0.2354 -0.9712 -0.1707
 3262TIP3    H133981   0.056   5.776  10.648  1.5670 -1.7318  0.8863
 3262TIP3    H233982  -0.076   5.705  10.634  0.0438  1.1230  0.0370
 3263TIP3   OH233983   0.795   5.384  10.280  0.2510  0.0020 -0.0884
 3263TIP3    H133984   0.846   5.464  10.268 -1.1576  0.6789 -2.2482
 3263TIP3    H233985   0.853   5.314  10.249  0.3458  0.6136 -1.3737
 3264TIP3   OH233986   3.984   5.608  11.006  0.0442  0.4529  0.0364
 3264TIP3    H133987   3.891   5.608  11.030  0.5159  0.1588  2.0691
 3264TIP3    H233988   3.989   5.552  10.928 -1.2872 -0.8363  0.8172
 3265TIP3   OH233989   0.693   6.758  10.221 -0.2573 -0.2625  0.8225
 3265TIP3    H133990   0.617   6.763  10.280 -1.4739 -2.3914 -0.4389
 3265TIP3    H233991   0.729   6.671  10.236 -0.0125 -0.4796 -0.8579
 3266TIP3   OH233992   3.700   4.431  11.563  0.1690  0.1742 -0.0417
 3266TIP3    H133993   3.714   4.338  11.580 -1.0831 -0.4105 -1.9453
 3266TIP3    H233994   3.788   4.467  11.552  0.6389 -0.9130  0.1010
 3267TIP3   OH233995   4.095   1.021   8.958 -0.3163  0.1397  0.3197
 3267TIP3    H133996   4.183   1.025   8.996 -0.4895  0.7295  0.6754
 3267TIP3    H233997   4.109   1.035   8.864  0.0241 -0.3855  0.2870
 3268TIP3   OH233998   4.853   1.839   9.837 -0.4772 -0.4214  0.2173
 3268TIP3    H133999   4.776   1.782   9.832 -2.0098  1.6492 -1.9234
 3268TIP3    H234000   4.820   1.922   9.871  1.0049  0.2443  0.1367
 3269TIP3   OH234001   6.204   5.566  10.420 -0.1780  0.2027  0.7660
 3269TIP3    H134002   6.121   5.578  10.374 -0.1302  2.0673  1.0725
 3269TIP3    H234003   6.269   5.609  10.365  0.5845 -1.0659  0.6264
 3270TIP3   OH234004   1.685   2.039   8.527 -0.6831 -0.1364 -0.9030
 3270TIP3    H134005   1.681   2.017   8.434 -0.1691 -0.3210 -0.8833
 3270TIP3    H234006   1.646   2.127   8.532  1.3303  0.8672 -1.6401
 3271TIP3   OH234007   6.405   0.934  10.352 -0.3073 -0.1802  0.0963
 3271TIP3    H134008   6.328   0.877  10.354  0.1399 -0.9373 -1.9585
 3271TIP3    H234009   6.379   1.007  10.297 -0.8131  1.6240  2.5752
 3272TIP3   OH234010   6.810   0.442  10.968 -0.1438  0.3952 -0.3570
 3272TIP3    H134011   6.833   0.377  10.903 -2.7459 -1.1186  0.1115
 3272TIP3    H234012   6.843   0.525  10.932 -1.3762 -0.3716 -3.5811
 3273TIP3   OH234013   5.385   5.617   8.441 -0.0618  0.2277 -0.3773
 3273TIP3    H134014   5.380   5.647   8.350  0.5485 -1.9724 -1.2046
 3273TIP3    H234015   5.294   5.598   8.464 -0.4836  2.6114  0.2117
 3274TIP3   OH234016   2.453   6.592   9.309 -0.0414  0.0401 -0.9450
 3274TIP3    H134017   2.392   6.556   9.245 -2.6277 -2.3708  2.5474
 3274TIP3    H234018   2.534   6.543   9.295 -0.9238 -1.2776 -1.6102
 3275TIP3   OH234019   0.554   5.470  10.835 -0.3989 -0.2990 -0.8721
 3275TIP3    H134020   0.596   5.407  10.895 -0.2421  0.7286  0.1378
 3275TIP3    H234021   0.495   5.417  10.782 -2.2524 -1.0167  1.6886
 3276TIP3   OH234022   6.724   6.151   9.299 -0.1633 -0.7240  0.4070
 3276TIP3    H134023   6.792   6.166   9.234 -0.5864 -1.1230 -0.1392
 3276TIP3    H234024   6.699   6.059   9.288 -0.2820 -0.7831  1.0926
 3277TIP3   OH234025   1.121   3.709  10.926 -0.0767 -0.1693 -0.2416
 3277TIP3    H134026   1.031   3.717  10.895  0.1622 -0.7453 -1.1283
 3277TIP3    H234027   1.165   3.787  10.892 -0.0293 -0.3519 -0.6081
 3278TIP3   OH234028   3.581   0.918   9.521  0.5633 -0.1413 -0.8780
 3278TIP3    H134029   3.546   0.994   9.475  0.6934 -0.5869 -1.7323
 3278TIP3    H234030   3.623   0.866   9.453 -0.3740 -1.4806 -0.4721
 3279TIP3   OH234031   3.779   1.374  10.757  0.3733  0.3757 -0.3492
 3279TIP3    H134032   3.728   1.295  10.771  1.0457 -0.4602 -2.2466
 3279TIP3    H234033   3.865   1.354  10.794 -0.4220  1.5816  2.3564
 3280TIP3   OH234034   5.230   0.271   9.557 -0.0386  0.0534 -0.2767
 3280TIP3    H134035   5.213   0.247   9.466  0.5560 -0.4692 -0.2513
 3280TIP3    H234036   5.144   0.298   9.591 -0.3922 -0.3977 -0.7964
 3281TIP3   OH234037   6.587   2.937   8.877  0.6135 -0.1553 -0.2673
 3281TIP3    H134038   6.621   2.876   8.943  0.7506 -2.3178 -2.1717
 3281TIP3    H234039   6.649   3.009   8.877  1.1620 -0.5798  1.2423
 3282TIP3   OH234040   4.675   5.285   9.013 -0.1909 -0.1249  0.6155
 3282TIP3    H134041   4.766   5.286   8.983  0.2364  0.3596  1.8301
 3282TIP3    H234042   4.678   5.235   9.095 -1.0026  0.0110  0.7340
 3283TIP3   OH234043   5.224   3.441  11.605  0.1633  0.0785 -0.0380
 3283TIP3    H134044   5.162   3.404  11.666  1.1703  0.0530  1.0034
 3283TIP3    H234045   5.238   3.373  11.539 -0.7856  0.0395 -0.2097
 3284TIP3   OH234046   6.092   1.094   8.745 -0.7786 -0.2196 -0.7971
 3284TIP3    H134047   6.085   1.167   8.684 -3.5466  0.0336 -0.3128
 3284TIP3    H234048   6.103   1.136   8.831 -1.2033 -0.3902 -0.6540
 3285TIP3   OH234049   6.579   5.565  11.034  0.3398 -0.0702 -0.2805
 3285TIP3    H134050   6.670   5.584  11.056  1.1920 -0.4417 -3.0419
 3285TIP3    H234051   6.540   5.651  11.018  0.7095  0.0127 -0.7607
 3286TIP3   OH234052   2.564   5.515   9.778 -0.3200 -0.4463 -0.0330
 3286TIP3    H134053   2.642   5.462   9.794  1.4957  1.0996 -2.8309
 3286TIP3    H234054   2.566   5.583   9.846  1.1662 -0.0839 -0.4076
 3287TIP3   OH234055   4.495   0.942   9.967  0.2331 -0.2547  0.4902
 3287TIP3    H134056   4.415   0.890   9.977  0.5619 -0.8109  0.2649
 3287TIP3    H234057   4.502   0.991  10.049  0.4479 -1.3094  1.1080
 3288TIP3   OH234058   1.132   1.391  10.543 -0.3966  0.1289 -0.3999
 3288TIP3    H134059   1.108   1.341  10.621  0.1473  0.4669 -0.0078
 3288TIP3    H234060   1.227   1.381  10.537 -0.5500 -0.9045 -1.7230
 3289TIP3   OH234061   6.203   2.767  10.982 -0.2106 -0.3196  0.0484
 3289TIP3    H134062   6.291   2.789  10.950 -0.2404 -1.4174 -0.8352
 3289TIP3    H234063   6.188   2.678  10.952  0.0869 -1.8246  3.8128
 3290TIP3   OH234064   0.311   3.840  10.158 -0.0251  0.4366  0.3076
 3290TIP3    H134065   0.397   3.845  10.117  0.9703  0.6794  2.2997
 3290TIP3    H234066   0.278   3.754  10.133  0.6225  0.4798 -0.7771
 3291TIP3   OH234067   6.724   4.792   9.574  0.2906 -0.0707  0.0046
 3291TIP3    H134068   6.710   4.868   9.629 -1.7020  0.0189 -0.5512
 3291TIP3    H234069   6.688   4.816   9.489 -2.6113 -2.3669  0.4283
 3292TIP3   OH234070   4.705   5.661  10.723  0.1804  0.7315  0.2111
 3292TIP3    H134071   4.743   5.735  10.771 -1.1806  1.0870  0.7965
 3292TIP3    H234072   4.707   5.588  10.785  1.8704  0.1235 -0.4903
 3293TIP3   OH234073   4.188   4.909   9.856  0.5448 -0.2443  0.1188
 3293TIP3    H134074   4.268   4.952   9.888  0.4854 -0.6502  0.8348
 3293TIP3    H234075   4.206   4.816   9.865 -0.5263 -0.3374  1.6514
 3294TIP3   OH234076   4.006   0.475  11.311 -0.3532  0.0881  0.5148
 3294TIP3    H134077   3.932   0.430  11.271 -1.3801  1.3921  0.8459
 3294TIP3    H234078   4.016   0.555  11.258  1.8755 -0.8055 -0.5190
 3295TIP3   OH234079   5.190   1.924  11.355  0.3539 -0.2610  0.3643
 3295TIP3    H134080   5.193   2.008  11.309 -1.6334 -0.7875 -0.8594
 3295TIP3    H234081   5.270   1.922  11.407  1.5765  1.3845 -1.3281
 3296TIP3   OH234082   3.459   0.681  10.033  0.4232 -0.8324 -0.7506
 3296TIP3    H134083   3.512   0.760  10.034  0.0717 -0.4746 -3.5507
 3296TIP3    H234084   3.374   0.709   9.998 -0.0856 -2.2512 -0.7433
 3297TIP3   OH234085   6.217   4.229   9.006  0.2000  0.0068  0.5531
 3297TIP3    H134086   6.150   4.171   8.970 -0.1639  0.8033 -0.1007
 3297TIP3    H234087   6.289   4.224   8.944 -0.2372  1.0147 -0.0626
 3298TIP3   OH234088   4.010   5.959  11.253 -0.4804 -0.0227 -0.0628
 3298TIP3    H134089   4.104   5.941  11.253 -0.6434 -1.1290  1.7658
 3298TIP3    H234090   3.973   5.889  11.200 -0.1131  2.0797 -3.3848
 3299TIP3   OH234091   3.584   1.703   9.538  0.3800  0.4958 -0.1985
 3299TIP3    H134092   3.570   1.789   9.576  1.2046 -0.0742  1.4995
 3299TIP3    H234093   3.643   1.719   9.464 -0.8394  1.5671 -0.9768
 3300TIP3   OH234094   3.338   4.405   8.512  0.0975 -0.2690 -0.2701
 3300TIP3    H134095   3.304   4.342   8.576  0.5275  0.0935  0.3326
 3300TIP3    H234096   3.416   4.362   8.477 -0.3926 -0.6606 -0.8913
 3301TIP3   OH234097   6.096   1.399   9.639  0.2525  1.0160 -0.0716
 3301TIP3    H134098   6.176   1.401   9.691  0.2423  0.7826 -0.0482
 3301TIP3    H234099   6.037   1.341   9.688  1.6564 -2.7314 -2.4150
 3302TIP3   OH234100   3.209   2.758   9.969  0.4609  0.5236 -0.7188
 3302TIP3    H134101   3.151   2.723  10.036  1.3688  0.7740  0.2291
 3302TIP3    H234102   3.229   2.683   9.913  2.8804 -0.7753  1.6432
 3303TIP3   OH234103   3.923   0.161  10.273 -0.3674 -0.0837  0.4581
 3303TIP3    H134104   3.828   0.153  10.281 -0.4963 -0.6174 -1.2504
 3303TIP3    H234105   3.938   0.256  10.272 -0.8809  0.0059  0.6274
 3304TIP3   OH234106   3.550   5.103   7.707 -0.5712  0.1004 -0.2260
 3304TIP3    H134107   3.553   5.025   7.652  0.8968  1.6438 -2.5018
 3304TIP3    H234108   3.642   5.122   7.727 -0.9679  0.6949  1.1638
 3305TIP3   OH234109   5.992   2.554  10.270 -0.4481 -0.3313 -0.6738
 3305TIP3    H134110   5.986   2.583  10.179 -0.5438  1.8464 -0.0217
 3305TIP3    H234111   6.084   2.566  10.293 -0.3872 -1.0486 -0.5112
 3306TIP3   OH234112   3.371   2.030  10.463 -0.1731 -0.0632  0.0636
 3306TIP3    H134113   3.383   2.124  10.451  0.3635 -0.0586  0.6074
 3306TIP3    H234114   3.389   1.992  10.377  1.9587  0.1228  0.3962
 3307TIP3   OH234115   5.256   6.257  10.036 -0.5264  0.6271  0.2692
 3307TIP3    H134116   5.336   6.277   9.988 -0.0971 -0.5368  0.4864
 3307TIP3    H234117   5.284   6.203  10.110 -1.2974  1.6163  1.3355
 3308TIP3   OH234118   3.162   6.068   9.704  0.0223  0.0285  0.2072
 3308TIP3    H134119   3.163   6.143   9.764 -0.5972 -1.7844  2.6584
 3308TIP3    H234120   3.122   6.101   9.624 -1.9612  1.8763  1.8564
 3309TIP3   OH234121   2.023   4.951  11.857  0.2384  0.0627 -0.6150
 3309TIP3    H134122   1.937   4.911  11.847 -0.7984  2.3797 -1.4964
 3309TIP3    H234123   2.084   4.878  11.843 -1.5098 -1.0710 -3.1647
 3310TIP3   OH234124   3.626   0.907   8.225 -0.0315 -0.4474  0.0881
 3310TIP3    H134125   3.535   0.903   8.195 -0.0831 -2.4558  0.3552
 3310TIP3    H234126   3.677   0.871   8.153  0.2918 -1.3542  0.7448
 3311TIP3   OH234127   2.377   5.099  11.336  0.3735 -0.2050 -0.1180
 3311TIP3    H134128   2.386   5.194  11.327  0.0641 -0.1910 -0.2937
 3311TIP3    H234129   2.331   5.072  11.256  0.2858 -0.4765  0.0243
 3312TIP3   OH234130   2.558   1.379   9.582  0.1777  0.0395 -0.6681
 3312TIP3    H134131   2.651   1.401   9.593  0.1487  0.5230 -1.3748
 3312TIP3    H234132   2.512   1.462   9.593 -0.3657 -0.4888  1.6589
 3313TIP3   OH234133   6.384   4.247  10.035 -0.1043  0.5144 -0.2815
 3313TIP3    H134134   6.426   4.231   9.951 -2.7777 -0.6936 -1.4974
 3313TIP3    H234135   6.290   4.241  10.017 -0.8640  2.4282  2.3777
 3314TIP3   OH234136   6.533   0.508   9.597 -0.2941  0.8544 -0.2234
 3314TIP3    H134137   6.472   0.546   9.660  1.2757  1.6220  0.9045
 3314TIP3    H234138   6.565   0.428   9.639  0.6443  1.2886 -0.0748
 3315TIP3   OH234139   5.398   0.561   9.430  0.8954  0.3869 -0.2731
 3315TIP3    H134140   5.417   0.592   9.518 -0.5655  0.4556  0.0401
 3315TIP3    H234141   5.418   0.467   9.432 -0.8018 -0.0030  0.6924
 3316TIP3   OH234142   4.336   6.673   9.628 -0.1193  0.2469 -0.1145
 3316TIP3    H134143   4.273   6.620   9.677 -1.0039  0.9050 -0.5190
 3316TIP3    H234144   4.325   6.762   9.663 -0.5810  0.6762 -1.2917
 3317TIP3   OH234145   0.058   1.675   9.622 -0.4323  0.5890  0.1332
 3317TIP3    H134146  -0.030   1.639   9.636  0.5233 -1.4404  1.3482
 3317TIP3    H234147   0.072   1.668   9.528 -0.9848 -0.5316  0.1251
 3318TIP3   OH234148   2.402   4.930   9.053  0.3214  0.7690  0.0629
 3318TIP3    H134149   2.379   4.939   9.146 -1.2328 -2.6472  0.1599
 3318TIP3    H234150   2.424   4.837   9.042 -0.0606  0.9357 -3.0710
 3319TIP3   OH234151   3.471   1.829   8.945 -0.0059  0.2280 -0.4741
 3319TIP3    H134152   3.394   1.777   8.922 -1.2464  2.0190 -0.5492
 3319TIP3    H234153   3.508   1.784   9.021 -0.5147 -1.2385 -1.0564
 3320TIP3   OH234154   0.534   4.773   8.738  0.3957 -0.1239 -0.1950
 3320TIP3    H134155   0.452   4.725   8.754  0.8848 -0.8018  0.2959
 3320TIP3    H234156   0.546   4.767   8.643 -0.3693  0.3919 -0.3341
 3321TIP3   OH234157   4.355   2.305   8.731  0.1564 -0.0910 -0.2038
 3321TIP3    H134158   4.263   2.294   8.710 -0.1104 -2.2576  1.7781
 3321TIP3    H234159   4.367   2.262   8.815  2.5560  2.0026  0.6870
 3322TIP3   OH234160   5.368   2.583  10.035 -0.4064 -0.0251 -0.2716
 3322TIP3    H134161   5.458   2.617  10.037 -0.9747  1.5963 -0.5803
 3322TIP3    H234162   5.367   2.524   9.960  0.5211 -0.4686  0.0404
 3323TIP3   OH234163   2.646   5.208  11.172 -0.0021 -0.2202 -0.2188
 3323TIP3    H134164   2.680   5.119  11.170  1.2572  0.2338 -2.1419
 3323TIP3    H234165   2.713   5.258  11.218 -0.8442 -0.2819  1.1216
 3324TIP3   OH234166   3.705   5.572  11.006  0.3910 -0.2091 -0.4167
 3324TIP3    H134167   3.640   5.621  11.056  0.7219  0.1284 -0.3050
 3324TIP3    H234168   3.658   5.496  10.973 -0.0276 -0.0337 -0.2371
 3325TIP3   OH234169   5.803   1.534  10.132 -0.3027  0.1247  0.0470
 3325TIP3    H134170   5.897   1.549  10.142 -0.1784  0.7429 -1.7895
 3325TIP3    H234171   5.783   1.467  10.197  1.1316  0.9494  1.4136
 3326TIP3   OH234172   5.230   6.386  10.431  0.2921  0.0522  0.1859
 3326TIP3    H134173   5.265   6.336  10.505  0.3858  1.1778  0.9296
 3326TIP3    H234174   5.204   6.319  10.367 -0.2788 -0.9757  1.4481
 3327TIP3   OH234175   4.369   6.722  11.451  0.2101 -0.7901 -0.0443
 3327TIP3    H134176   4.374   6.800  11.506  1.6572 -1.1730  0.4039
 3327TIP3    H234177   4.319   6.750  11.375  2.4464  1.2072 -0.8940
 3328TIP3   OH234178   0.744   5.603  10.643  0.1023  0.4112  0.2636
 3328TIP3    H134179   0.698   5.552  10.709 -0.7711  0.1722 -0.5092
 3328TIP3    H234180   0.826   5.555  10.629 -1.2279 -1.5853 -1.3693
 3329TIP3   OH234181   1.551   6.659   9.621 -0.0388 -0.1729  0.7551
 3329TIP3    H134182   1.592   6.573   9.631  0.4145 -0.2360 -1.1402
 3329TIP3    H234183   1.619   6.721   9.647 -0.3761 -0.3533  2.1539
 3330TIP3   OH234184   4.280   4.968  11.606 -0.2788 -0.2558 -0.0615
 3330TIP3    H134185   4.212   4.929  11.660 -0.5450 -1.4514 -1.1983
 3330TIP3    H234186   4.264   5.062  11.610 -0.7385 -0.3811  1.3036
 3331TIP3   OH234187   5.994   2.805   8.664  0.1148  0.6904 -0.8684
 3331TIP3    H134188   6.043   2.887   8.655 -0.5615  0.9487 -2.4234
 3331TIP3    H234189   5.907   2.832   8.692  0.1340  0.4249 -0.5488
 3332TIP3   OH234190   2.950   4.357  10.026  0.0909 -0.2676  0.3933
 3332TIP3    H134191   3.023   4.372  10.086  0.7838  0.1696 -0.5314
 3332TIP3    H234192   2.953   4.263  10.007  0.4012 -0.2522  0.3675
 3333TIP3   OH234193   3.298   0.470   9.566 -0.1659  0.5328  0.2074
 3333TIP3    H134194   3.327   0.501   9.481 -0.4652  1.0425  0.2870
 3333TIP3    H234195   3.206   0.450   9.554 -0.1389  0.3270  0.3385
 3334TIP3   OH234196   3.245   1.745  10.874 -0.2903  0.1166 -0.0238
 3334TIP3    H134197   3.165   1.792  10.849 -0.1830  0.5326  0.3906
 3334TIP3    H234198   3.315   1.810  10.865  0.4831 -0.9402 -3.0602
 3335TIP3   OH234199   3.444   0.127  11.134  0.4004 -0.1214 -0.7661
 3335TIP3    H134200   3.398   0.210  11.148 -1.6716 -0.6685 -3.3608
 3335TIP3    H234201   3.419   0.073  11.209  0.1950  0.9663 -0.0269
 3336TIP3   OH234202   2.619   4.693   8.520 -0.1348  0.1853 -0.2916
 3336TIP3    H134203   2.545   4.753   8.532 -0.5543 -0.4766  0.5893
 3336TIP3    H234204   2.688   4.748   8.482 -0.3014  1.3832  1.0363
 3337TIP3   OH234205   0.020   4.121  10.621  0.0640  0.1127  0.7779
 3337TIP3    H134206  -0.062   4.166  10.600  1.1027  2.4892  1.4722
 3337TIP3    H234207   0.058   4.101  10.535  0.9969  3.4907  0.2365
 3338TIP3   OH234208   5.136   5.507  11.577 -0.1238 -0.3041  0.2817
 3338TIP3    H134209   5.092   5.545  11.501  1.4769 -0.4843 -0.8060
 3338TIP3    H234210   5.096   5.421  11.587 -1.5149  0.3666  0.7263
 3339TIP3   OH234211   2.265   4.427   9.338 -0.0576 -0.0655 -0.2622
 3339TIP3    H134212   2.241   4.340   9.369 -0.4164  0.0590 -0.1905
 3339TIP3    H234213   2.185   4.461   9.298 -0.0121  0.3552 -0.0035
 3340TIP3   OH234214   0.424   6.600   9.798 -0.4350 -0.1104  0.0900
 3340TIP3    H134215   0.400   6.627   9.886  0.8831 -2.3797  1.2293
 3340TIP3    H234216   0.422   6.504   9.800 -1.2855 -0.2348 -2.6400
 3341TIP3   OH234217   6.425   5.136   9.217 -0.1866 -0.4375 -0.3126
 3341TIP3    H134218   6.372   5.058   9.203  0.7915 -1.1301 -0.2634
 3341TIP3    H234219   6.494   5.108   9.278 -1.3026  1.1497  1.8018
 3342TIP3   OH234220   4.529   3.938  11.426  0.2545 -1.0353 -0.2867
 3342TIP3    H134221   4.615   3.903  11.404  1.5778  0.0164  2.5907
 3342TIP3    H234222   4.537   4.032  11.410  0.0319 -0.7876  0.9565
 3343TIP3   OH234223   2.316   6.700  10.311 -0.0191 -0.0329 -0.6452
 3343TIP3    H134224   2.323   6.731  10.221  0.4845  2.2264  0.0923
 3343TIP3    H234225   2.405   6.674  10.335 -0.0279 -0.0270 -0.6053
 3344TIP3   OH234226   3.777   1.735   9.356 -0.1937  0.1645 -0.1165
 3344TIP3    H134227   3.823   1.818   9.370 -0.1744 -0.0492  1.2987
 3344TIP3    H234228   3.817   1.675   9.419 -2.1650 -0.1057  0.9949
 3345TIP3   OH234229   3.207   0.560   9.310  0.2817 -0.5198  1.0590
 3345TIP3    H134230   3.181   0.540   9.220  0.3971  0.2613  0.8468
 3345TIP3    H234231   3.127   0.592   9.352  0.0562 -1.5541  1.4461
 3346TIP3   OH234232   0.036   0.848  10.506  0.4551  0.1622  0.0326
 3346TIP3    H134233  -0.018   0.780  10.545 -0.0823 -1.6595 -3.4558
 3346TIP3    H234234   0.126   0.819  10.521  0.3166  0.0616  0.7133
 3347TIP3   OH234235   3.557   6.373  10.376 -0.3707 -0.5762  0.1371
 3347TIP3    H134236   3.519   6.286  10.363 -0.9945 -0.0466 -2.0139
 3347TIP3    H234237   3.509   6.409  10.450 -1.7111 -1.2479 -0.3605
 3348TIP3   OH234238   3.491   5.146   8.999  0.2926 -0.0837 -0.2399
 3348TIP3    H134239   3.562   5.111   9.052  0.2077 -0.7445 -0.5541
 3348TIP3    H234240   3.531   5.216   8.948  0.2767  0.8690  1.0176
 3349TIP3   OH234241   0.144   6.729  10.965 -0.2316 -0.0366  0.0494
 3349TIP3    H134242   0.217   6.773  11.008 -0.5153 -1.0529  1.6712
 3349TIP3    H234243   0.165   6.636  10.971 -1.3547 -0.3135 -0.0240
 3350TIP3   OH234244   1.371   6.097  11.130  0.2423  0.0824 -0.0826
 3350TIP3    H134245   1.433   6.076  11.060  1.9432 -0.8184  1.6292
 3350TIP3    H234246   1.285   6.095  11.086  1.0928 -1.8931 -1.8538
 3351TIP3   OH234247   1.288   4.398  11.114 -0.1884 -0.6629 -0.6513
 3351TIP3    H134248   1.193   4.390  11.127  0.0261 -1.8490  0.4142
 3351TIP3    H234249   1.311   4.325  11.057  0.1699 -0.8247 -0.3127
 3352TIP3   OH234250   4.423   1.039   9.484 -0.4992  0.2196 -0.2733
 3352TIP3    H134251   4.392   0.994   9.404 -0.3469 -2.9702  1.2857
 3352TIP3    H234252   4.345   1.083   9.518 -0.8480  0.6325 -1.5493
 3353TIP3   OH234253   0.414   1.157  10.833 -0.1486 -0.3769 -0.2245
 3353TIP3    H134254   0.326   1.154  10.795 -0.4822  0.9680  0.3995
 3353TIP3    H234255   0.467   1.199  10.765 -0.4674  0.8276  0.2552
 3354TIP3   OH234256   5.324   4.390  10.426  0.1046  0.0908  0.0234
 3354TIP3    H134257   5.242   4.425  10.462 -0.1710  0.4044 -0.8837
 3354TIP3    H234258   5.374   4.468  10.400  0.1642 -0.1360 -0.5567
 3355TIP3   OH234259   2.332   5.457   9.312  0.3084 -0.0795 -0.1567
 3355TIP3    H134260   2.244   5.441   9.279 -0.0998  2.3106 -0.4153
 3355TIP3    H234261   2.319   5.499   9.397  1.2272 -0.4617  0.1825
 3356TIP3   OH234262   6.404   3.718  10.418  0.3070 -0.0041 -0.7475
 3356TIP3    H134263   6.395   3.812  10.432  0.1828  0.1165 -1.6115
 3356TIP3    H234264   6.460   3.689  10.491 -1.3889  0.3552  0.7679
 3357TIP3   OH234265   4.667   4.089   8.318 -0.0080  0.2463 -0.3195
 3357TIP3    H134266   4.741   4.136   8.281  0.6792  0.0732  0.8055
 3357TIP3    H234267   4.590   4.129   8.276  0.6506  1.1570 -0.6890
 3358TIP3   OH234268   2.573   0.683   9.906  0.5456 -0.0298  0.2324
 3358TIP3    H134269   2.659   0.672   9.866  0.3965  2.6380 -1.1010
 3358TIP3    H234270   2.591   0.720   9.992  0.8050  1.3860 -0.3875
 3359TIP3   OH234271   2.123   2.533  11.800  0.1356  0.6654  0.4120
 3359TIP3    H134272   2.178   2.575  11.867  2.2145  0.4457 -1.0597
 3359TIP3    H234273   2.183   2.516  11.728 -1.2187 -2.3701 -0.1480
 3360TIP3   OH234274   4.707   0.313   8.562  0.3635  0.1140  0.3089
 3360TIP3    H134275   4.688   0.221   8.545 -0.3907  0.2624  0.3077
 3360TIP3    H234276   4.743   0.346   8.480 -1.4752  0.3607 -0.4516
 3361TIP3   OH234277   5.324   6.273  10.661 -0.0710  0.1763  0.4115
 3361TIP3    H134278   5.266   6.196  10.661  1.1994 -0.8354 -1.0064
 3361TIP3    H234279   5.289   6.329  10.730 -1.2422 -1.5277  1.2735
 3362TIP3   OH234280   1.749   3.432  11.423  0.2697  0.4354  0.0458
 3362TIP3    H134281   1.719   3.504  11.479 -3.2013 -0.5973 -0.2462
 3362TIP3    H234282   1.754   3.471  11.335  2.1782  1.1621  0.4243
 3363TIP3   OH234283   1.807   3.532   9.387  0.1068  0.4412 -0.3260
 3363TIP3    H134284   1.862   3.606   9.410 -1.4439  1.9249 -1.1375
 3363TIP3    H234285   1.840   3.502   9.303 -0.1996  1.2287 -0.7370
 3364TIP3   OH234286   4.180   1.715   9.189 -0.0422 -0.2021 -0.1913
 3364TIP3    H134287   4.202   1.779   9.121  0.1702 -0.9316 -0.8296
 3364TIP3    H234288   4.212   1.632   9.155 -1.9530 -0.9830 -0.2366
 3365TIP3   OH234289   1.184   3.962   9.557 -0.0385  0.0855 -0.1130
 3365TIP3    H134290   1.126   4.030   9.593 -0.1077 -1.0213  1.9917
 3365TIP3    H234291   1.257   4.011   9.520 -0.7553  1.3714  0.1092
 3366TIP3   OH234292   4.574   1.040   8.987  0.3676  0.3529 -0.4873
 3366TIP3    H134293   4.549   1.099   8.915  1.5220  0.8588 -0.4932
 3366TIP3    H234294   4.670   1.038   8.984  0.3597 -2.8515 -1.5219
 3367TIP3   OH234295   5.264   3.955  11.634  0.2751  0.0580 -0.1460
 3367TIP3    H134296   5.212   3.881  11.667  0.0060 -0.4350 -1.6012
 3367TIP3    H234297   5.354   3.921  11.630  0.4171  0.3142  0.5982
 3368TIP3   OH234298   6.139   3.730  10.289 -0.2687 -0.4537  0.1281
 3368TIP3    H134299   6.073   3.719  10.358 -0.4505 -1.6359 -0.2102
 3368TIP3    H234300   6.222   3.705  10.330  0.4104  2.9793  1.1761
 3369TIP3   OH234301   0.216   1.017  10.677  0.0823 -0.3020 -0.1286
 3369TIP3    H134302   0.124   1.017  10.649 -1.1866 -1.5000  3.4580
 3369TIP3    H234303   0.261   0.963  10.612 -1.9234 -0.5514 -1.3973
 3370TIP3   OH234304   4.856   0.248   9.277  0.4440 -0.0211  0.2497
 3370TIP3    H134305   4.772   0.271   9.315  0.8355  2.3741 -0.1947
 3370TIP3    H234306   4.858   0.152   9.279 -1.9459 -0.1094  0.9495
 3371TIP3   OH234307   1.171   0.543  10.143 -0.6020 -0.0469 -0.2883
 3371TIP3    H134308   1.229   0.587  10.206 -0.4464  0.2207 -0.6161
 3371TIP3    H234309   1.084   0.577  10.162 -0.5483  0.0692 -0.2510
 3372TIP3   OH234310   2.174   3.652   9.650  0.0095  1.0336  0.0343
 3372TIP3    H134311   2.153   3.623   9.561  0.0593  1.1940 -0.0312
 3372TIP3    H234312   2.189   3.571   9.699 -1.0193  0.8962  0.1541
 3373TIP3   OH234313   0.923   5.148  10.238 -0.3370 -0.0430 -0.4107
 3373TIP3    H134314   1.014   5.137  10.265 -0.6520  0.1235  0.7567
 3373TIP3    H234315   0.883   5.062  10.254 -0.6636  0.2209  0.2468
 3374TIP3   OH234316   0.148   2.793   9.740 -0.3189 -0.3863  0.1833
 3374TIP3    H134317   0.141   2.699   9.723  1.9295 -1.0387  2.2240
 3374TIP3    H234318   0.223   2.801   9.800 -1.7122  2.4826  1.7729
 3375TIP3   OH234319   4.608   3.898  10.261 -0.4174 -0.2133  0.0537
 3375TIP3    H134320   4.575   3.966  10.202 -0.7003  0.0733  0.5338
 3375TIP3    H234321   4.539   3.888  10.327  0.3857  0.3004  1.0067
 3376TIP3   OH234322   2.213   3.845  11.277 -0.2451 -0.1617  0.3676
 3376TIP3    H134323   2.122   3.815  11.270  0.2691 -2.1174  1.3942
 3376TIP3    H234324   2.218   3.920  11.217 -2.6759  0.3967  0.7317
 3377TIP3   OH234325   2.791   3.492   9.955 -0.2421  0.4991  0.4802
 3377TIP3    H134326   2.716   3.526  10.004 -1.1148 -0.7668  0.0859
 3377TIP3    H234327   2.866   3.508  10.011 -0.8104  1.7812  0.8956
 3378TIP3   OH234328   3.411   4.432  10.122 -0.0892  0.1552 -0.2498
 3378TIP3    H134329   3.469   4.463  10.053  1.3293  1.2009  1.3295
 3378TIP3    H234330   3.457   4.454  10.203 -0.8344 -2.6624  1.0436
 3379TIP3   OH234331   2.478   2.433  11.086 -0.0576  0.0379  0.4165
 3379TIP3    H134332   2.557   2.473  11.051 -0.3571  0.8570  0.6511
 3379TIP3    H234333   2.509   2.355  11.133  0.6173  0.4028  0.5892
 3380TIP3   OH234334   2.669   5.688  10.015 -0.0453 -0.2273 -0.3722
 3380TIP3    H134335   2.754   5.686  10.061  0.7498 -0.2609 -1.7817
 3380TIP3    H234336   2.660   5.779   9.986 -0.6647 -0.1462  0.0712
 3381TIP3   OH234337   0.498   2.649   9.248  0.0591 -0.2388 -0.5809
 3381TIP3    H134338   0.499   2.645   9.344  0.9119 -1.7045 -0.6221
 3381TIP3    H234339   0.546   2.728   9.227  1.7688 -1.0204  0.1974
 3382TIP3   OH234340   3.822   1.074   8.842 -0.8266  0.3842  0.1657
 3382TIP3    H134341   3.873   1.068   8.761  0.3908  1.4055  0.8275
 3382TIP3    H234342   3.887   1.066   8.912 -1.4536  2.3184  1.0286
 3383TIP3   OH234343   3.662   5.671   8.946  0.3306 -0.7003 -0.4431
 3383TIP3    H134344   3.708   5.588   8.961  1.4336 -0.1431 -0.6664
 3383TIP3    H234345   3.637   5.669   8.854 -0.4574 -1.1729 -0.2277
 3384TIP3   OH234346   3.721   2.395  10.202  0.1446 -0.3361 -0.4838
 3384TIP3    H134347   3.627   2.411  10.209  0.3825  1.8010 -1.4979
 3384TIP3    H234348   3.759   2.441  10.277  0.6033  1.5560 -1.8168
 3385TIP3   OH234349   1.032   1.067   9.650 -0.2307 -0.1648  0.3856
 3385TIP3    H134350   1.046   1.159   9.674  1.3034 -0.3631  0.3432
 3385TIP3    H234351   1.114   1.040   9.609 -1.3731 -0.9739 -1.5028
 3386TIP3   OH234352   2.462   4.433  10.019  0.4412  0.2599  0.4699
 3386TIP3    H134353   2.477   4.527  10.020 -2.2765  0.7739  0.4103
 3386TIP3    H234354   2.448   4.411   9.927  1.4431 -0.3137  0.4336
 3387TIP3   OH234355   4.184   5.522  10.342 -0.0697  0.2148 -0.3795
 3387TIP3    H134356   4.256   5.574  10.307 -0.9780 -0.1794 -3.0112
 3387TIP3    H234357   4.106   5.573  10.320 -0.7597 -0.6092  0.1285
 3388TIP3   OH234358   3.809   4.337  10.157 -0.4130  0.1331  0.0024
 3388TIP3    H134359   3.884   4.297  10.201 -1.1161 -0.4529  0.6876
 3388TIP3    H234360   3.846   4.415  10.115  1.0959 -1.4763 -1.8485
 3389TIP3   OH234361   5.987   6.105   8.634  0.2115  0.2466  0.5122
 3389TIP3    H134362   5.933   6.053   8.575 -1.5416  1.6880  0.7718
 3389TIP3    H234363   6.020   6.177   8.579  0.1310  0.5448  0.8527
 3390TIP3   OH234364   1.638   3.020  11.538 -0.1120  0.7173 -0.0567
 3390TIP3    H134365   1.626   3.104  11.494  0.5520  1.0117  0.3188
 3390TIP3    H234366   1.568   2.965  11.502 -0.4891  1.3905 -0.3843
 3391TIP3   OH234367   6.169   4.825  10.192  0.6721  0.2651 -0.0904
 3391TIP3    H134368   6.241   4.819  10.256  0.2776 -0.6251  0.2927
 3391TIP3    H234369   6.095   4.784  10.237  0.7492 -1.6957 -1.6239
 3392TIP3   OH234370   5.086   6.496  10.072  0.2625  0.4751  0.3072
 3392TIP3    H134371   5.136   6.421  10.039  1.6219  2.6513 -3.0148
 3392TIP3    H234372   5.146   6.541  10.131  1.5569  1.8029 -1.8916
 3393TIP3   OH234373   2.627   5.944   8.970 -0.3649 -0.0011 -0.1931
 3393TIP3    H134374   2.602   5.921   9.060  0.6997  0.6595  0.2950
 3393TIP3    H234375   2.544   5.955   8.924 -0.9358 -1.9665  0.2661
 3394TIP3   OH234376   1.666   1.911  11.353 -0.1207  0.0575  0.0626
 3394TIP3    H134377   1.726   1.956  11.294 -0.5636  0.4513 -0.0883
 3394TIP3    H234378   1.674   1.958  11.436  0.2377 -0.2767  0.2227
 3395TIP3   OH234379   1.332   3.796   9.857  0.4851 -0.1292 -0.0709
 3395TIP3    H134380   1.382   3.792   9.776  1.5054  0.2252  0.5182
 3395TIP3    H234381   1.372   3.730   9.913  2.3089  2.0860  1.4577
 3396TIP3   OH234382   2.967   0.726  10.386  0.3392 -0.7485  0.1640
 3396TIP3    H134383   2.950   0.659  10.319  0.7579 -2.0473  1.2939
 3396TIP3    H234384   2.999   0.676  10.461  2.6820  0.9184  0.3751
 3397TIP3   OH234385   5.173   4.343   8.936  0.1417  0.4034  0.0663
 3397TIP3    H134386   5.101   4.280   8.923 -0.0754  0.8077 -0.7881
 3397TIP3    H234387   5.251   4.288   8.946 -0.4008 -0.0964  2.1320
 3398TIP3   OH234388   0.987   0.270  11.228  0.4361  0.4079 -0.1061
 3398TIP3    H134389   0.998   0.345  11.287 -2.0080  0.5257  0.3148
 3398TIP3    H234390   1.036   0.199  11.270  1.4049  1.3325  0.3627
 3399TIP3   OH234391   1.567   6.370  11.573  0.1134  0.6301  0.0684
 3399TIP3    H134392   1.651   6.413  11.584  0.0244  0.6763  0.5773
 3399TIP3    H234393   1.502   6.437  11.593 -0.0577  0.7122 -0.7244
 3400TIP3   OH234394   3.249   2.343  10.277 -0.0210  0.2349  0.1192
 3400TIP3    H134395   3.307   2.324  10.203 -1.5471  0.9579 -1.3144
 3400TIP3    H234396   3.309   2.362  10.350  1.5226 -0.2842 -0.9671
 3401TIP3   OH234397   3.624   3.683  11.099 -0.2371  0.3059 -0.0090
 3401TIP3    H134398   3.598   3.757  11.043 -0.6754  0.5751  0.5436
 3401TIP3    H234399   3.575   3.697  11.180 -1.3385 -1.2938 -0.3552
 3402TIP3   OH234400   2.308   4.158   8.886 -0.4400  0.5639 -0.3339
 3402TIP3    H134401   2.338   4.245   8.859 -1.9145  1.3570  0.4172
 3402TIP3    H234402   2.324   4.103   8.810 -0.6281  1.7978 -1.3132
 3403TIP3   OH234403   5.679   0.904   9.268  0.4747  0.8137 -0.2861
 3403TIP3    H134404   5.626   0.829   9.240  1.1592  0.6840 -1.3109
 3403TIP3    H234405   5.749   0.909   9.203  0.0630  2.7644 -0.6576
 3404TIP3   OH234406   0.826   2.784  10.037  0.5920  0.2963  0.3294
 3404TIP3    H134407   0.839   2.854   9.973  0.8776 -0.4885 -0.4960
 3404TIP3    H234408   0.757   2.817  10.095 -0.2168  0.7198 -0.8319
 3405TIP3   OH234409   4.761   3.872   8.475  0.4038  0.4042 -0.2463
 3405TIP3    H134410   4.746   3.945   8.415 -2.5041 -0.0103 -0.1637
 3405TIP3    H234411   4.768   3.796   8.418  2.4744  0.5513 -0.2678
 3406TIP3   OH234412   2.127   1.333  10.178  0.1741  0.4168  0.5392
 3406TIP3    H134413   2.165   1.421  10.174 -1.4930  1.2006  1.0492
 3406TIP3    H234414   2.054   1.336  10.117 -0.2965 -0.4264  1.0415
 3407TIP3   OH234415   5.550   3.315  10.736 -0.0911  0.0820  0.4736
 3407TIP3    H134416   5.475   3.257  10.722 -0.4199  0.4155  0.8190
 3407TIP3    H234417   5.522   3.374  10.806 -1.1657  2.9510 -2.1172
 3408TIP3   OH234418   3.737   3.310  10.411 -0.1746  0.2281  0.1063
 3408TIP3    H134419   3.763   3.268  10.493 -1.4062 -0.7155  0.0492
 3408TIP3    H234420   3.645   3.284  10.400 -0.2103  0.8764 -1.2411
 3409TIP3   OH234421   1.683   0.129   9.452 -0.4304 -0.3115  0.1390
 3409TIP3    H134422   1.739   0.063   9.492 -2.1085 -1.9856 -0.1384
 3409TIP3    H234423   1.648   0.180   9.525  0.7169  0.1962  0.3629
 3410TIP3   OH234424   3.164   0.881  10.874  0.3133  0.0212  0.0577
 3410TIP3    H134425   3.178   0.900  10.967  0.3309 -0.9982  0.2739
 3410TIP3    H234426   3.070   0.892  10.861  0.1928 -0.6040  0.3813
 3411TIP3   OH234427   5.664   4.029   9.368  0.4451 -0.2938  0.1120
 3411TIP3    H134428   5.655   3.988   9.282 -1.0857  0.5033 -0.1287
 3411TIP3    H234429   5.709   3.963   9.421 -0.2021 -1.4968 -0.8006
 3412TIP3   OH234430   5.825   3.885   9.520  0.2317 -0.1389  0.3029
 3412TIP3    H134431   5.773   3.870   9.599  0.0181 -0.6842  0.0670
 3412TIP3    H234432   5.892   3.948   9.547 -2.0075  2.5810  0.0129
 3413TIP3   OH234433   4.081   1.520   8.541  0.5244 -0.4952  0.2793
 3413TIP3    H134434   4.095   1.440   8.592 -0.8376 -1.5141 -0.8428
 3413TIP3    H234435   4.138   1.511   8.465  0.9238 -0.0375  0.5231
 3414TIP3   OH234436   1.769   5.643  10.330 -0.0343 -0.7802 -0.2020
 3414TIP3    H134437   1.703   5.577  10.311 -0.1370 -1.0224  0.9717
 3414TIP3    H234438   1.820   5.649  10.249 -0.8719 -1.2913 -0.7862
 3415TIP3   OH234439   1.554   2.564  11.149 -0.5491  0.2635  0.0094
 3415TIP3    H134440   1.480   2.607  11.105  0.2350  2.5366  0.7344
 3415TIP3    H234441   1.614   2.541  11.078 -0.3000  1.8651 -0.3506
 3416TIP3   OH234442   3.988   1.513  11.421  0.3282  0.0023  0.2796
 3416TIP3    H134443   3.922   1.536  11.487  0.6110 -0.4656  0.7276
 3416TIP3    H234444   4.068   1.555  11.452  0.2261  0.6584 -0.3196
 3417TIP3   OH234445   3.173   2.860  10.702 -0.5303  0.0050  0.7158
 3417TIP3    H134446   3.137   2.823  10.783 -1.1453  0.8149  0.8133
 3417TIP3    H234447   3.237   2.925  10.731 -1.1776  0.7213  0.5669
 3418TIP3   OH234448   1.546   4.763   9.335  0.4531 -0.0072  0.3380
 3418TIP3    H134449   1.517   4.677   9.365  1.4712 -1.0485 -1.4511
 3418TIP3    H234450   1.468   4.802   9.294 -0.0691  0.0490  1.3591
 3419TIP3   OH234451   0.889   2.720   9.412 -0.6790 -0.1816 -0.3254
 3419TIP3    H134452   0.956   2.757   9.354  2.3965 -0.1964  2.8533
 3419TIP3    H234453   0.853   2.796   9.458 -2.7238 -0.2168 -1.7357
 3420TIP3   OH234454   6.187   0.151  10.950  0.1738  0.1034  0.3854
 3420TIP3    H134455   6.215   0.060  10.959  1.1540  0.4866  1.4743
 3420TIP3    H234456   6.091   0.147  10.955  0.2363 -0.7992  1.2893
 3421TIP3   OH234457   3.840   2.515  10.392  0.3324 -0.8177 -0.5150
 3421TIP3    H134458   3.841   2.549  10.482  0.8836 -0.1939 -0.7475
 3421TIP3    H234459   3.931   2.489  10.376  0.3880 -0.2675 -1.1296
 3422TIP3   OH234460   3.891   6.437  10.356  0.1607  0.1225 -0.4338
 3422TIP3    H134461   3.823   6.452  10.422 -0.0951 -0.1632 -0.6276
 3422TIP3    H234462   3.895   6.518  10.306  0.8645  0.6119  0.3838
 3423TIP3   OH234463   1.844   4.064  11.664 -0.0384 -0.4144 -0.4351
 3423TIP3    H134464   1.761   4.060  11.711  0.3528 -0.1839  0.2822
 3423TIP3    H234465   1.857   3.975  11.630 -1.3091 -0.0982 -1.8590
 3424TIP3   OH234466   3.540   5.693  10.250 -0.4697  0.0041 -0.7471
 3424TIP3    H134467   3.455   5.671  10.212 -0.6554 -0.3974 -0.1122
 3424TIP3    H234468   3.566   5.614  10.298  0.2920  0.0967 -0.9884
 3425TIP3   OH234469   2.175   5.610  11.481 -0.5329  0.2101  0.0183
 3425TIP3    H134470   2.133   5.554  11.547 -0.5323 -0.4588 -0.5372
 3425TIP3    H234471   2.251   5.647  11.526  0.6392 -1.8285 -0.1660
 3426TIP3   OH234472   1.089   4.002   8.768 -0.0413  0.2500  0.1669
 3426TIP3    H134473   1.155   3.975   8.704 -0.4409 -0.0478 -0.1258
 3426TIP3    H234474   1.021   4.044   8.716 -1.9903 -2.9146 -0.0939
 3427TIP3   OH234475   6.253   0.565   9.454  0.7057  0.0508 -0.0180
 3427TIP3    H134476   6.214   0.647   9.423 -1.1608 -0.1178  1.7399
 3427TIP3    H234477   6.280   0.584   9.544  0.6391 -1.1588  0.2650
 3428TIP3   OH234478   2.807   1.797  11.194  0.0016 -0.0387 -0.5596
 3428TIP3    H134479   2.751   1.829  11.266  2.4915 -1.1610  2.0701
 3428TIP3    H234480   2.856   1.874  11.166  0.5460  0.0093  0.4784
 3429TIP3   OH234481   4.186   3.492   8.810 -0.2491 -0.1868 -0.1990
 3429TIP3    H134482   4.126   3.474   8.738 -1.4899  0.4942  0.6326
 3429TIP3    H234483   4.237   3.411   8.820 -0.3343 -0.4255 -1.5531
 3430TIP3   OH234484   2.067   0.006   9.713 -0.3737 -0.1088  0.3481
 3430TIP3    H134485   2.063   0.075   9.648 -0.7069 -0.4157  0.0383
 3430TIP3    H234486   2.160  -0.005   9.731 -0.1271 -1.3126 -1.4723
 3431TIP3   OH234487   0.180   0.503   8.804  0.0895 -0.4621  0.0975
 3431TIP3    H134488   0.156   0.590   8.837  0.7271 -0.3599  0.3008
 3431TIP3    H234489   0.276   0.500   8.810  0.3171 -0.1602 -2.4227
 3432TIP3   OH234490   3.020   5.197   9.826  0.4707  0.7802  0.0095
 3432TIP3    H134491   2.973   5.201   9.742 -0.2822 -1.4291  0.2542
 3432TIP3    H234492   2.951   5.200   9.892  0.7914 -0.5744  0.4331
 3433TIP3   OH234493   2.224   3.761   9.946  0.1772  0.0070 -0.1445
 3433TIP3    H134494   2.284   3.758   9.871 -0.1031  1.6505 -0.4794
 3433TIP3    H234495   2.149   3.708   9.919 -0.3763  1.3875 -1.5060
 3434TIP3   OH234496   2.722   3.878   8.964 -0.2949  0.2637  0.1134
 3434TIP3    H134497   2.653   3.812   8.965 -1.0683  1.0188  2.5572
 3434TIP3    H234498   2.701   3.936   9.037  0.7921  2.7868 -1.4635
 3435TIP3   OH234499   6.274   4.766   9.941 -0.0999 -0.4831  0.4455
 3435TIP3    H134500   6.293   4.675   9.963  0.2868 -0.8899 -1.3703
 3435TIP3    H234501   6.215   4.796  10.009  1.8186 -1.2639  2.5852
 3436TIP3   OH234502   2.569   0.501   9.440  0.2543  0.5762 -0.1008
 3436TIP3    H134503   2.548   0.414   9.408 -0.6850  0.6938  0.1812
 3436TIP3    H234504   2.562   0.558   9.363  1.6359  0.3098 -0.4607
 3437TIP3   OH234505   1.718   6.756  11.610  0.4101  0.2305  0.3122
 3437TIP3    H134506   1.655   6.828  11.603 -0.5767 -0.6484 -0.1010
 3437TIP3    H234507   1.703   6.719  11.697  0.7397  0.3715  0.4279
 3438TIP3   OH234508   3.891   3.987  11.350  0.7074  0.0533  0.4687
 3438TIP3    H134509   3.981   4.019  11.359 -0.1062  2.5381  0.5448
 3438TIP3    H234510   3.884   3.958  11.260  1.8506 -1.1346  0.7397
 3439TIP3   OH234511   2.731   0.839   9.309  0.2912  0.3017 -0.4067
 3439TIP3    H134512   2.731   0.858   9.215 -1.4297  2.3584 -0.0468
 3439TIP3    H234513   2.778   0.913   9.348  1.6585 -0.9066  0.3538
 3440TIP3   OH234514   6.227   0.934  11.344 -0.0249 -0.4773  0.2637
 3440TIP3    H134515   6.317   0.939  11.375  0.3252 -0.4728 -0.7245
 3440TIP3    H234516   6.210   1.019  11.303 -0.5924 -0.3574  0.7324
 3441TIP3   OH234517   0.684   4.175  11.438 -0.3240  0.0047  0.5077
 3441TIP3    H134518   0.686   4.099  11.497 -1.3135  0.7652  1.5568
 3441TIP3    H234519   0.708   4.139  11.353  0.7489 -1.2014  1.2851
 3442TIP3   OH234520   1.129   3.088  10.136  0.0337  0.2207 -0.4933
 3442TIP3    H134521   1.180   3.168  10.121  1.6120 -0.7882 -0.7397
 3442TIP3    H234522   1.183   3.036  10.195 -0.7575 -0.8536 -0.6872
 3443TIP3   OH234523   2.487   0.442   9.697 -0.3016  0.2927 -0.2271
 3443TIP3    H134524   2.495   0.455   9.602 -0.6009 -1.3783 -0.5055
 3443TIP3    H234525   2.395   0.423   9.711  0.1235 -1.7133  0.0747
 3444TIP3   OH234526   3.740   0.018  10.034  0.1944 -0.7697  0.0829
 3444TIP3    H134527   3.726   0.101   9.987 -1.8878 -1.9778 -1.5722
 3444TIP3    H234528   3.827  -0.010  10.006  0.4910  0.3209 -0.1586
 3445TIP3   OH234529   2.129   1.247  11.617 -0.2170  0.2505 -0.0916
 3445TIP3    H134530   2.039   1.218  11.602 -0.2572  0.7498 -0.9029
 3445TIP3    H234531   2.141   1.320  11.556  1.5576 -1.4792 -1.9888
 3446TIP3   OH234532   2.077   0.184  10.761 -0.3123  0.0925 -0.5028
 3446TIP3    H134533   2.016   0.199  10.833  0.2947 -0.0544  0.0589
 3446TIP3    H234534   2.026   0.138  10.695 -0.5522 -0.9907  0.4014
 3447TIP3   OH234535   2.058   2.244  11.459  0.5296  0.8266  0.3188
 3447TIP3    H134536   2.042   2.338  11.468  1.1824  1.0624 -0.8048
 3447TIP3    H234537   2.031   2.224  11.370 -0.0988 -0.1692  0.7248
 3448TIP3   OH234538   3.535   4.874  10.573 -0.0020 -0.2996 -0.0767
 3448TIP3    H134539   3.613   4.902  10.524  0.4936  0.6938  1.2233
 3448TIP3    H234540   3.510   4.791  10.533 -0.2425  0.9397 -2.6750
 3449TIP3   OH234541   4.192   1.186   9.512  0.2108  0.0385  0.2623
 3449TIP3    H134542   4.181   1.154   9.601 -0.2145 -1.7068 -0.3775
 3449TIP3    H234543   4.107   1.172   9.471 -0.2175  2.6586  0.0870
 3450TIP3   OH234544   0.955   0.112   9.437 -0.3215  0.8595 -0.3595
 3450TIP3    H134545   0.870   0.073   9.420 -0.5218  1.2079 -0.1622
 3450TIP3    H234546   0.955   0.132   9.530  0.4256 -0.2028 -0.1012
 3451TIP3   OH234547   3.535   4.647   8.669  0.9123 -0.2773 -0.4871
 3451TIP3    H134548   3.611   4.590   8.679  0.9303 -0.3892 -1.1695
 3451TIP3    H234549   3.502   4.660   8.758  1.2189 -0.9264 -0.2732
 3452TIP3   OH234550   0.279   6.344   9.842  0.3791 -0.0735 -0.4347
 3452TIP3    H134551   0.188   6.375   9.841  0.6723  0.8176 -1.5089
 3452TIP3    H234552   0.310   6.364   9.931 -0.8845 -1.7181  0.4264
 3453TIP3   OH234553   6.791   4.148  11.017 -0.4418  0.2997 -0.2898
 3453TIP3    H134554   6.700   4.149  10.985  0.1796  0.2736 -2.1521
 3453TIP3    H234555   6.793   4.076  11.080 -1.5350 -0.1698 -0.7627
 3454TIP3   OH234556   3.406   2.939  10.037 -0.6294  0.2713  0.4273
 3454TIP3    H134557   3.416   2.911  10.129 -0.2620 -1.1444 -0.0127
 3454TIP3    H234558   3.352   2.871   9.997  1.4117 -0.6243 -1.0181
 3455TIP3   OH234559   5.063   5.465   9.576 -0.0361 -0.2357 -0.2579
 3455TIP3    H134560   5.133   5.403   9.557 -1.3867 -1.5822 -1.0920
 3455TIP3    H234561   5.101   5.525   9.641  0.8574 -2.8859  1.8652
 3456TIP3   OH234562   0.785   1.699  10.072 -0.2171  0.2688 -0.0811
 3456TIP3    H134563   0.725   1.725  10.002 -2.2318  1.1613  1.8751
 3456TIP3    H234564   0.763   1.607  10.088  1.3265 -0.4210 -1.5680
 3457TIP3   OH234565   1.907   5.389   9.405 -0.8485  0.0648 -0.2222
 3457TIP3    H134566   1.892   5.295   9.393 -1.9020  0.2545 -0.4251
 3457TIP3    H234567   1.967   5.413   9.334 -1.5332 -0.2133 -0.9058
 3458TIP3   OH234568   0.801   5.550  11.184 -0.5520 -0.5864 -0.5895
 3458TIP3    H134569   0.741   5.484  11.217 -1.7206  1.3229  1.3410
 3458TIP3    H234570   0.819   5.606  11.259  0.9919  0.8469 -1.9541
 3459TIP3   OH234571   6.102   6.576  10.359 -0.5739 -0.3186 -0.6322
 3459TIP3    H134572   6.132   6.487  10.376 -0.4826 -0.2640 -0.5103
 3459TIP3    H234573   6.131   6.627  10.435 -1.3042 -0.3430 -0.3296
 3460TIP3   OH234574   4.935   6.766  11.958 -0.1225  0.0787  0.3105
 3460TIP3    H134575   4.948   6.673  11.942 -2.9067 -0.5181  1.0281
 3460TIP3    H234576   4.960   6.778  12.050 -0.3339 -0.0762  0.3882
 3461TIP3   OH234577   5.597   5.215  10.589 -0.1825  0.4820  0.2549
 3461TIP3    H134578   5.579   5.163  10.668  0.9647  0.1981  0.3581
 3461TIP3    H234579   5.635   5.296  10.622  2.1651 -0.4219 -0.0114
 3462TIP3   OH234580   2.075   2.788   9.675  0.3356 -0.1133 -0.3006
 3462TIP3    H134581   2.091   2.700   9.708  1.8456  0.6344  1.0511
 3462TIP3    H234582   2.116   2.789   9.588  0.4239 -0.6866 -0.2681
 3463TIP3   OH234583   1.058   4.151   9.268 -0.4835  0.4248  0.5362
 3463TIP3    H134584   1.005   4.148   9.189 -0.8164  0.5792  0.7503
 3463TIP3    H234585   1.070   4.059   9.292  0.0723  0.3536  0.0133
 3464TIP3   OH234586   5.484   2.936  10.611 -0.5363 -0.3143 -0.0315
 3464TIP3    H134587   5.556   2.987  10.574  0.6736 -1.3457  0.8030
 3464TIP3    H234588   5.454   2.988  10.686 -0.1713 -0.2213  0.0511
 3465TIP3   OH234589   6.815   1.959   9.695 -0.7160 -0.1137 -0.4421
 3465TIP3    H134590   6.886   1.998   9.747 -0.5565  1.9984 -2.0941
 3465TIP3    H234591   6.849   1.874   9.667  1.5942  1.1766 -1.8843
 3466TIP3   OH234592   2.191   3.449   9.822  0.4449 -0.6689  0.6318
 3466TIP3    H134593   2.193   3.380   9.756  1.1994  0.9176 -1.0861
 3466TIP3    H234594   2.098   3.463   9.839  0.2482 -1.2800  0.1157
 3467TIP3   OH234595   4.893   1.265   9.688 -0.2625  0.6538 -0.4610
 3467TIP3    H134596   4.923   1.182   9.724  0.7146  1.4730  0.6921
 3467TIP3    H234597   4.831   1.241   9.620 -1.1226 -0.9913  0.8439
 3468TIP3   OH234598   0.910   0.850   8.971 -0.4368 -0.2539  0.3789
 3468TIP3    H134599   0.961   0.888   9.042 -1.8934  1.2872  0.6486
 3468TIP3    H234600   0.819   0.869   8.993 -0.9314  0.5017 -2.0108
 3469TIP3   OH234601   5.065   6.162   8.950  0.2610  0.4674 -0.1976
 3469TIP3    H134602   5.090   6.236   9.006 -0.6899 -0.1754  1.1598
 3469TIP3    H234603   4.989   6.194   8.901  1.8040  1.4304 -2.0963
 3470TIP3   OH234604   1.433   4.834  11.578 -0.2464 -0.2327 -0.1261
 3470TIP3    H134605   1.484   4.753  11.566 -2.4122 -1.9102  1.2989
 3470TIP3    H234606   1.344   4.810  11.554 -0.7421  2.1426 -0.8696
 3471TIP3   OH234607   4.347   5.238  10.167  0.2830  0.1020  0.0911
 3471TIP3    H134608   4.390   5.301  10.226 -2.8822  0.2473  2.4938
 3471TIP3    H234609   4.328   5.162  10.223  1.1071 -1.7126 -1.9479
 3472TIP3   OH234610   2.366   2.755  12.067  0.4524  0.6002  0.1499
 3472TIP3    H134611   2.301   2.791  12.007 -1.0659 -0.4577  1.0640
 3472TIP3    H234612   2.391   2.828  12.124 -1.7551  0.5623  1.2817
 3473TIP3   OH234613   1.564   3.113  11.052 -0.1857 -0.3734 -0.6935
 3473TIP3    H134614   1.600   3.115  11.141  0.0500 -1.7778 -0.7303
 3473TIP3    H234615   1.600   3.190  11.009 -0.8732  0.7326  0.6346
 3474TIP3   OH234616   0.139   4.814   9.394 -0.1804  0.1243 -0.1203
 3474TIP3    H134617   0.055   4.802   9.350 -0.4784  0.1213  0.4493
 3474TIP3    H234618   0.120   4.804   9.487  0.5000 -0.1608 -0.0044
 3475TIP3   OH234619   1.873   1.907  10.014  0.2794 -0.0528 -0.4866
 3475TIP3    H134620   1.938   1.947   9.956  1.3092 -1.6828 -0.5419
 3475TIP3    H234621   1.792   1.955   9.997  0.9100  0.4873 -2.1862
 3476TIP3   OH234622   3.030   1.740   9.596  0.1054 -0.1065 -0.1464
 3476TIP3    H134623   3.026   1.649   9.624  0.2568  0.2912  1.2711
 3476TIP3    H234624   3.088   1.782   9.659  0.4331  0.8737 -1.0761
 3477TIP3   OH234625   2.323   6.325   9.539  0.1074 -0.0178  0.1167
 3477TIP3    H134626   2.337   6.288   9.626  1.1486 -0.1638 -0.0907
 3477TIP3    H234627   2.377   6.404   9.538  1.0544 -0.6452 -0.7736
 3478TIP3   OH234628   5.886   5.752  10.803 -0.1019 -0.5684 -0.3874
 3478TIP3    H134629   5.835   5.671  10.803 -2.1021  0.5719  1.6209
 3478TIP3    H234630   5.937   5.748  10.883 -1.0310  0.5595  0.3019
 3479TIP3   OH234631   4.112   4.289  10.109  0.0604 -0.2375  0.6388
 3479TIP3    H134632   4.177   4.336  10.161  0.6060 -0.0215 -0.2212
 3479TIP3    H234633   4.114   4.332  10.024 -1.0053 -0.4205  0.5089
 3480TIP3   OH234634   6.182   1.720   9.447  0.6025 -0.6305  0.1694
 3480TIP3    H134635   6.232   1.768   9.380  1.3706 -0.3711  0.8990
 3480TIP3    H234636   6.125   1.662   9.398 -1.1643  1.7750 -0.7988
 3481TIP3   OH234637   2.458   4.022  10.837  0.0805 -0.3919 -0.4198
 3481TIP3    H134638   2.531   4.081  10.818  0.5114 -0.4852  0.8929
 3481TIP3    H234639   2.498   3.947  10.881 -0.7731 -0.5679  0.0877
 3482TIP3   OH234640   3.815   3.645  11.711  0.6036  0.4594 -0.1411
 3482TIP3    H134641   3.735   3.632  11.661  1.8970  0.1912 -2.2406
 3482TIP3    H234642   3.846   3.556  11.729 -0.3643  0.5104  2.1414
 3483TIP3   OH234643   3.441   1.474   9.183  0.0417  0.4072  0.0012
 3483TIP3    H134644   3.468   1.382   9.179 -0.9324  0.1489 -1.3723
 3483TIP3    H234645   3.346   1.470   9.195  0.0756  1.2648  0.6792
 3484TIP3   OH234646   4.773   5.645   9.711  0.3121 -0.6249  0.2872
 3484TIP3    H134647   4.792   5.645   9.617 -0.1451  0.8237  0.1738
 3484TIP3    H234648   4.853   5.611   9.751  0.3263 -1.7536 -0.6464
 3485TIP3   OH234649   1.642   0.591  11.637  0.3035  0.5531 -0.0186
 3485TIP3    H134650   1.640   0.505  11.594  1.2943  0.7105 -0.4180
 3485TIP3    H234651   1.565   0.636  11.604 -0.3740 -0.2716  0.3939
 3486TIP3   OH234652   4.537   1.818  11.652 -0.1454 -0.3707 -0.0384
 3486TIP3    H134653   4.570   1.770  11.727 -0.2935 -1.4354 -0.6360
 3486TIP3    H234654   4.512   1.751  11.589  4.2254  0.3293 -2.9874
 3487TIP3   OH234655   5.514   1.146  10.905  0.5316 -0.3114  0.0620
 3487TIP3    H134656   5.467   1.132  10.823  0.9843 -1.0663 -0.0749
 3487TIP3    H234657   5.593   1.194  10.880 -0.2476  1.1593  0.3210
 3488TIP3   OH234658   3.895   0.305   8.179 -0.3569  0.7619 -0.2213
 3488TIP3    H134659   3.977   0.307   8.130 -0.9285  1.3166 -1.2071
 3488TIP3    H234660   3.909   0.365   8.252  0.6131 -0.2962  0.4909
 3489TIP3   OH234661   6.462   5.047  10.009  0.3746 -0.0755 -0.0155
 3489TIP3    H134662   6.532   4.982   9.994  1.8238  1.5502 -0.6295
 3489TIP3    H234663   6.468   5.067  10.102  1.0982  0.4414 -0.1677
 3490TIP3   OH234664   4.084   2.634   9.901  0.5155  0.0886 -0.0618
 3490TIP3    H134665   3.997   2.629   9.862  1.1286  0.7034 -1.5682
 3490TIP3    H234666   4.080   2.574   9.976 -0.9879 -0.4041 -0.5063
 3491TIP3   OH234667   4.632   2.353  11.532  0.2348  0.6322 -0.2143
 3491TIP3    H134668   4.605   2.263  11.552  2.5528 -0.2295 -0.6234
 3491TIP3    H234669   4.622   2.399  11.615  0.0108 -0.2713  0.2857
 3492TIP3   OH234670   4.730   0.795   9.887  0.0711 -0.0177 -0.4023
 3492TIP3    H134671   4.660   0.772   9.824  0.5856  0.3565 -1.1241
 3492TIP3    H234672   4.686   0.850   9.952 -0.3649  0.0092 -0.7113
 3493TIP3   OH234673   5.231   1.648  10.225  0.0092  0.0295  0.5262
 3493TIP3    H134674   5.267   1.598  10.151  1.9539  0.1833  1.3228
 3493TIP3    H234675   5.216   1.582  10.293  1.3816  0.3185  1.1348
 3494TIP3   OH234676   5.496   0.293   9.452 -0.2982 -0.0511  0.3687
 3494TIP3    H134677   5.428   0.275   9.516  0.3128 -1.8701  0.5802
 3494TIP3    H234678   5.543   0.210   9.443  0.5515  0.5582 -1.3454
 3495TIP3   OH234679   5.832   1.370   8.596  0.1414  0.0424 -0.2449
 3495TIP3    H134680   5.910   1.318   8.578  0.2699  0.0878  0.1838
 3495TIP3    H234681   5.774   1.352   8.521  0.9366  0.7549 -1.0450
 3496TIP3   OH234682   6.485   6.266   9.213 -0.7801  0.6323  0.0129
 3496TIP3    H134683   6.567   6.219   9.221 -1.1837 -0.4993 -1.7644
 3496TIP3    H234684   6.496   6.320   9.135 -1.4576  1.0312  0.1827
 3497TIP3   OH234685   6.540   4.556  10.084 -0.1801 -1.1629 -0.3285
 3497TIP3    H134686   6.477   4.525  10.149 -0.4923 -0.2130 -0.1612
 3497TIP3    H234687   6.566   4.478  10.036 -1.7850 -1.5048 -0.6713
 3498TIP3   OH234688   5.146   0.923  11.923  0.1700  0.5253  0.6459
 3498TIP3    H134689   5.097   0.981  11.982 -0.3513  0.0379  0.6991
 3498TIP3    H234690   5.101   0.929  11.839  2.1289  2.8334 -0.3464
 3499TIP3   OH234691   1.833   3.804   9.140 -0.3914  0.1955  1.0592
 3499TIP3    H134692   1.824   3.896   9.117  0.7856  0.3541  1.1673
 3499TIP3    H234693   1.833   3.758   9.056 -0.2655  0.3695  0.9643
 3500TIP3   OH234694   3.663   4.646   9.155 -0.5082 -0.1096 -0.1728
 3500TIP3    H134695   3.712   4.708   9.208 -1.8202  0.1494  0.7788
 3500TIP3    H234696   3.592   4.698   9.117 -2.9318 -1.3286  2.3380
 3501TIP3   OH234697   5.863   1.186   9.162 -0.5366 -0.0852 -0.6349
 3501TIP3    H134698   5.912   1.186   9.079  1.3683 -2.0327  0.3798
 3501TIP3    H234699   5.919   1.137   9.222 -0.7743  3.1256  2.5248
 3502TIP3   OH234700   4.086   5.623   8.971 -0.7595 -0.1731 -0.4812
 3502TIP3    H134701   4.061   5.702   8.923 -0.1292  0.7065  0.5974
 3502TIP3    H234702   4.181   5.621   8.965 -0.7133 -0.3680  0.2323
 3503TIP3   OH234703   1.082   0.619   9.673  0.0875 -0.1335 -0.6989
 3503TIP3    H134704   1.045   0.534   9.695  0.3024 -0.5436 -1.8542
 3503TIP3    H234705   1.086   0.619   9.577 -0.6890  1.5038 -0.7601
 3504TIP3   OH234706   6.687   1.559   9.714  0.2396  0.5728  0.1377
 3504TIP3    H134707   6.750   1.507   9.764  1.6460  2.0465 -0.0061
 3504TIP3    H234708   6.624   1.495   9.680  1.0858 -0.8340  1.1261
 3505TIP3   OH234709   0.921   4.694  11.216  0.5002  0.0798 -0.2693
 3505TIP3    H134710   0.896   4.762  11.153  1.4613 -0.0011 -0.7542
 3505TIP3    H234711   0.981   4.738  11.276  2.8900 -0.7613 -1.8389
 3506TIP3   OH234712   6.725   4.397   9.081  0.2783  0.5766  0.4119
 3506TIP3    H134713   6.785   4.402   9.156  1.1650 -0.4967 -0.1921
 3506TIP3    H234714   6.684   4.311   9.089  1.2151 -0.0242 -0.9188
 3507TIP3   OH234715   2.985   1.309   9.372  0.2972 -0.4127 -0.2705
 3507TIP3    H134716   3.026   1.229   9.405  0.9427 -0.2507 -0.6648
 3507TIP3    H234717   2.895   1.283   9.351 -0.1130 -0.5483  1.4830
 3508TIP3   OH234718   0.360   5.727   9.670 -0.1748  0.1329 -0.1304
 3508TIP3    H134719   0.375   5.804   9.615  0.7843  0.3414  0.4028
 3508TIP3    H234720   0.360   5.761   9.759  0.0014 -0.4531  0.0956
 3509TIP3   OH234721   3.601   6.696   9.377 -0.6808  0.3919  0.4584
 3509TIP3    H134722   3.671   6.712   9.314 -1.5602  0.0730 -0.6520
 3509TIP3    H234723   3.630   6.621   9.428 -0.5149 -0.2049 -0.4879
 3510TIP3   OH234724   0.947   3.904   9.344  0.0796 -0.1648  0.1972
 3510TIP3    H134725   0.890   3.972   9.380  1.3684  0.3214  1.4233
 3510TIP3    H234726   0.911   3.885   9.258 -2.2071 -0.2236  1.0947
 3511TIP3   OH234727   4.267   2.346  10.858 -0.5332  0.3704  0.0121
 3511TIP3    H134728   4.194   2.380  10.910 -1.8632 -0.1496 -1.4295
 3511TIP3    H234729   4.234   2.263  10.822  1.2706 -0.5637  0.3939
 3512TIP3   OH234730   4.705   1.310   9.206  0.3127 -0.4798  0.2641
 3512TIP3    H134731   4.723   1.270   9.121  0.1414  1.1628 -0.5751
 3512TIP3    H234732   4.791   1.325   9.245  0.6415  2.1458 -1.2715
 3513TIP3   OH234733   4.091   3.770   9.443  0.3061  0.6112 -0.7017
 3513TIP3    H134734   4.116   3.837   9.379 -0.6243 -0.8192 -2.6680
 3513TIP3    H234735   4.006   3.800   9.476  1.1305  1.7320  0.4516
 3514TIP3   OH234736   0.363   6.059  10.257 -0.1079  0.2251  0.2660
 3514TIP3    H134737   0.431   6.074  10.192 -0.3814  0.0819 -0.0550
 3514TIP3    H234738   0.409   6.064  10.341  0.0071  1.6980  0.1264
 3515TIP3   OH234739   3.870   3.034  11.735  0.4632  0.5907  0.5551
 3515TIP3    H134740   3.811   3.084  11.680  1.8751  1.6885 -0.0020
 3515TIP3    H234741   3.819   3.016  11.815 -0.8337  0.8892 -0.1813
 3516TIP3   OH234742   4.330   0.957  10.365 -0.1921 -0.2620  0.0375
 3516TIP3    H134743   4.326   1.019  10.439 -1.5505  0.3148 -0.4887
 3516TIP3    H234744   4.384   1.001  10.300 -1.6358  0.6865 -0.5727
 3517TIP3   OH234745   0.300   2.563   9.663 -0.1700  0.3576  0.3613
 3517TIP3    H134746   0.295   2.529   9.752 -2.2969  1.7178  0.8487
 3517TIP3    H234747   0.274   2.489   9.608 -0.4138 -0.0506  1.0128
 3518TIP3   OH234748   5.047   2.591   9.406  0.3029  0.0956  0.0803
 3518TIP3    H134749   5.130   2.559   9.370 -0.9081 -0.2204 -2.6537
 3518TIP3    H234750   5.056   2.686   9.408  0.9263  0.0391  0.4222
 3519TIP3   OH234751   4.773   0.005   8.468  0.6754 -0.0040  0.0022
 3519TIP3    H134752   4.698   0.034   8.416 -0.8351  0.1743  2.1216
 3519TIP3    H234753   4.845   0.060   8.439 -0.5788  1.4004 -0.5919
 3520TIP3   OH234754   3.157   2.447  11.329  0.5084  0.1446 -0.0745
 3520TIP3    H134755   3.086   2.510  11.344  0.4135  0.0067  0.0702
 3520TIP3    H234756   3.209   2.451  11.410  0.5356  0.0808 -0.0890
 3521TIP3   OH234757   3.511   6.347   9.196  0.0747 -0.3270  0.5435
 3521TIP3    H134758   3.547   6.260   9.207  0.0360 -0.4682 -0.3504
 3521TIP3    H234759   3.420   6.340   9.224  0.2319 -0.4287  1.0236
 3522TIP3   OH234760   1.553   2.041   9.603  0.0960  0.2692  0.4943
 3522TIP3    H134761   1.504   2.036   9.686 -1.7683 -2.8650 -0.6006
 3522TIP3    H234762   1.524   1.964   9.554  3.6273  0.1547 -1.7498
 3523TIP3   OH234763   1.256   2.372  10.747 -0.4581 -0.2052  0.4175
 3523TIP3    H134764   1.218   2.378  10.659 -1.3066 -1.7609  0.6391
 3523TIP3    H234765   1.187   2.335  10.801  0.4385 -0.3741  1.4833
 3524TIP3   OH234766   1.863   0.360  10.126 -0.1636  0.2093 -0.4756
 3524TIP3    H134767   1.942   0.358  10.181  0.7912  2.4526 -1.6488
 3524TIP3    H234768   1.840   0.267  10.116  1.0459 -0.4108  1.6232
 3525TIP3   OH234769   5.168   6.808  10.075  0.1187  0.0904  0.1636
 3525TIP3    H134770   5.145   6.891  10.117  0.2120  0.4164 -0.4342
 3525TIP3    H234771   5.147   6.742  10.142 -0.9961  0.4993  0.2426
 3526TIP3   OH234772   1.086   5.378  10.427  0.5127  0.3368 -0.0433
 3526TIP3    H134773   1.152   5.418  10.485  1.4094 -0.0145 -0.7990
 3526TIP3    H234774   1.051   5.451  10.377 -0.9362  0.7947  1.5380
 3527TIP3   OH234775   2.607   2.312  10.506 -0.1709  0.2018 -0.3476
 3527TIP3    H134776   2.529   2.338  10.456 -1.8549 -1.8519  1.0606
 3527TIP3    H234777   2.653   2.251  10.449 -0.2122  0.5014 -0.7099
 3528TIP3   OH234778   3.805   3.866   8.911  0.7859 -0.3123 -0.4348
 3528TIP3    H134779   3.881   3.833   8.864  0.4187 -1.1296 -0.4771
 3528TIP3    H234780   3.800   3.811   8.990  0.0641 -0.4824 -0.5918
 3529TIP3   OH234781   3.876   2.906  10.963  0.6951  0.2753 -0.2465
 3529TIP3    H134782   3.886   2.991  11.005 -0.9632  0.8973 -0.9911
 3529TIP3    H234783   3.859   2.845  11.035  1.1869  0.6910  0.2318
 3530TIP3   OH234784   4.902   1.468   9.465 -0.1841 -0.0506 -0.1795
 3530TIP3    H134785   4.924   1.539   9.526  0.6784 -0.7614  0.3499
 3530TIP3    H234786   4.834   1.419   9.511 -0.3307  0.0615 -0.2752
 3531TIP3   OH234787   4.159   0.523   8.196 -0.3787  0.0159  0.0250
 3531TIP3    H134788   4.106   0.502   8.273  1.4972  0.1620  1.4317
 3531TIP3    H234789   4.150   0.446   8.140 -2.1859  0.1134  0.1169
 3532TIP3   OH234790   2.472   6.323   9.042 -0.3140  0.2675  0.0314
 3532TIP3    H134791   2.539   6.381   9.078  0.4765 -0.8672  0.4754
 3532TIP3    H234792   2.401   6.381   9.015  1.5832  1.7031 -2.1924
 3533TIP3   OH234793   6.750   1.045  10.322  0.1247 -0.5253  0.0914
 3533TIP3    H134794   6.756   1.008  10.410 -0.0451 -2.1752 -0.5611
 3533TIP3    H234795   6.814   0.995  10.271  1.1124  1.2270 -0.4789
 3534TIP3   OH234796   3.097   2.739  10.241 -0.6705  0.2998 -0.4487
 3534TIP3    H134797   3.144   2.823  10.241 -0.8082  0.3827 -0.1453
 3534TIP3    H234798   3.103   2.709  10.332 -1.9874  0.7682 -0.1806
 3535TIP3   OH234799   3.792   3.495  10.991 -0.3940 -0.2830 -0.3002
 3535TIP3    H134800   3.729   3.563  11.013  0.9334  0.9369 -0.0615
 3535TIP3    H234801   3.835   3.474  11.074  2.2930  1.8854 -1.0110
 3536TIP3   OH234802   4.218   0.858   9.402  0.1629  0.9094  0.2935
 3536TIP3    H134803   4.237   0.778   9.353  1.0494  1.4739 -0.2934
 3536TIP3    H234804   4.133   0.887   9.368 -0.4267 -0.0418  0.8787
 3537TIP3   OH234805   0.039   3.797   8.956 -0.0738  0.4440 -0.3399
 3537TIP3    H134806   0.104   3.734   8.926 -0.9961 -0.7330  0.0289
 3537TIP3    H234807   0.052   3.873   8.900  1.9053  0.4354  0.0410
 3538TIP3   OH234808   2.776   3.595  11.676 -0.0434 -0.0909  0.2627
 3538TIP3    H134809   2.839   3.560  11.739  0.9390 -0.2971 -0.8019
 3538TIP3    H234810   2.739   3.671  11.720  0.7853 -0.1050  1.0209
 3539TIP3   OH234811   4.571   5.839   8.981  0.3746  0.5448 -0.0954
 3539TIP3    H134812   4.584   5.901   8.910 -0.5898  0.8696 -0.0042
 3539TIP3    H234813   4.477   5.820   8.980  0.4446  0.0872  0.6990
 3540TIP3   OH234814   2.079   6.533   9.626  0.7570 -0.3557 -0.2951
 3540TIP3    H134815   2.063   6.547   9.719  0.2578 -0.4254 -0.3700
 3540TIP3    H234816   2.023   6.597   9.582  0.2871 -0.9568 -0.5730
 3541TIP3   OH234817   1.147   3.059  11.620  0.0746 -0.1627  0.0991
 3541TIP3    H134818   1.207   3.132  11.632 -0.6635  0.7965 -1.7382
 3541TIP3    H234819   1.204   2.983  11.609  1.0158  0.7494 -1.7750
 3542TIP3   OH234820   1.561   5.749   9.575  0.5188 -0.0703 -0.0846
 3542TIP3    H134821   1.527   5.812   9.639  0.0588 -0.9795  0.5975
 3542TIP3    H234822   1.596   5.677   9.629  1.2780 -0.2756 -0.8328
 3543TIP3   OH234823   5.204   0.528  10.735  0.1862  0.4635  0.0473
 3543TIP3    H134824   5.195   0.434  10.715  0.1827  0.7702 -1.4992
 3543TIP3    H234825   5.274   0.531  10.801 -1.3637 -0.7882  1.8612
 3544TIP3   OH234826   1.649   5.090   8.296 -0.6290  0.0270 -0.3299
 3544TIP3    H134827   1.671   5.147   8.222 -0.8235 -0.7313 -0.9788
 3544TIP3    H234828   1.666   5.144   8.373 -1.6445  1.2872 -0.9337
 3545TIP3   OH234829   0.115   3.957  10.855 -0.3624 -0.5162  0.3740
 3545TIP3    H134830   0.042   4.019  10.862  0.5189  0.6951 -0.7175
 3545TIP3    H234831   0.117   3.932  10.763  0.5834 -0.5426  0.3941
 3546TIP3   OH234832   2.123   0.121   9.439  0.3822  0.2494 -0.0712
 3546TIP3    H134833   2.174   0.067   9.378  1.1387 -1.0950  1.6630
 3546TIP3    H234834   2.130   0.210   9.403  0.7275 -0.4819 -1.9612
 3547TIP3   OH234835   2.059   1.498   9.676 -0.0190 -0.0401  0.2413
 3547TIP3    H134836   2.053   1.575   9.733  0.7133 -0.0677  0.3656
 3547TIP3    H234837   1.975   1.497   9.629  0.5423  1.7233 -0.8985
 3548TIP3   OH234838   1.832   0.452  10.456  0.1757  0.2044  1.0643
 3548TIP3    H134839   1.801   0.380  10.511  0.3935  0.6623  1.8037
 3548TIP3    H234840   1.832   0.528  10.514 -1.0071  1.0237  0.0319
 3549TIP3   OH234841   1.529   1.548  11.531 -0.1845  0.1578 -0.2770
 3549TIP3    H134842   1.447   1.498  11.536  0.4702 -0.9561 -0.1693
 3549TIP3    H234843   1.517   1.620  11.593 -0.8273 -0.3945  0.2576
 3550TIP3   OH234844   1.380   6.300  11.403  0.0293  0.1209  0.3143
 3550TIP3    H134845   1.451   6.343  11.451 -0.2391  0.4655  0.4044
 3550TIP3    H234846   1.369   6.352  11.324  1.7942 -1.5578 -1.1239
 3551TIP3   OH234847   3.185   2.950  11.383  0.3681  0.2130  0.0188
 3551TIP3    H134848   3.099   2.974  11.417  0.1786 -2.1021  1.3776
 3551TIP3    H234849   3.203   3.015  11.315 -3.0439 -0.0536 -1.3151
 3552TIP3   OH234850   6.103   4.867   9.397 -0.3216 -0.3022  0.7734
 3552TIP3    H134851   6.052   4.793   9.364 -0.9251  0.1748  0.6350
 3552TIP3    H234852   6.046   4.942   9.388  0.5380  0.3097  0.2851
 3553TIP3   OH234853   5.267   2.764  10.670 -0.3282 -0.5830 -0.1577
 3553TIP3    H134854   5.362   2.764  10.662 -0.2125 -1.1989  1.1138
 3553TIP3    H234855   5.236   2.796  10.585  0.9879 -1.0153 -0.8205
 3554TIP3   OH234856   2.264   6.773  11.350  0.4573 -0.3360 -0.0505
 3554TIP3    H134857   2.196   6.839  11.337  0.6535 -0.0546  0.3419
 3554TIP3    H234858   2.302   6.794  11.435  0.2120 -1.2337  0.2900
 3555TIP3   OH234859   2.015   1.251  10.806  0.3893  0.3457  0.5536
 3555TIP3    H134860   1.920   1.239  10.808  0.3139  0.4610 -1.1670
 3555TIP3    H234861   2.027   1.343  10.784  0.8910  0.2127  0.2513
 3556TIP3   OH234862   2.363   6.586   9.583 -0.0834 -0.4448  0.2735
 3556TIP3    H134863   2.389   6.590   9.491 -0.9081  2.6933  0.0504
 3556TIP3    H234864   2.268   6.578   9.580 -0.1859  0.4285  0.7959
 3557TIP3   OH234865   4.805   5.051   8.167  0.6608  0.1875 -0.2688
 3557TIP3    H134866   4.795   5.099   8.085  0.2919 -0.9671 -0.9289
 3557TIP3    H234867   4.773   5.111   8.235  1.2592  1.2706 -0.9185
 3558TIP3   OH234868   6.418   0.845   9.862 -0.1615 -0.5101 -0.1721
 3558TIP3    H134869   6.448   0.779   9.799 -0.7605 -0.7218 -0.2438
 3558TIP3    H234870   6.322   0.841   9.856 -0.2346  1.4542 -1.3503
 3559TIP3   OH234871   0.485   5.523  10.541  0.2136  0.0621 -0.4363
 3559TIP3    H134872   0.560   5.549  10.488  0.7630 -0.8405 -0.1314
 3559TIP3    H234873   0.492   5.428  10.548 -0.5992  0.0256  0.1383
 3560TIP3   OH234874   1.975   3.497   8.935 -0.3408 -0.3159  0.2724
 3560TIP3    H134875   1.933   3.568   8.886  0.8568  0.2019 -0.0371
 3560TIP3    H234876   1.986   3.427   8.870 -1.3601 -0.7335  0.5338
 3561TIP3   OH234877   5.104   2.715  10.910 -0.1017  0.7747 -0.7862
 3561TIP3    H134878   5.164   2.765  10.966 -0.1123  1.9940 -1.8143
 3561TIP3    H234879   5.143   2.720  10.823 -0.1406 -1.0035 -0.9317
 3562TIP3   OH234880   0.367   0.971  11.401  0.0005 -0.0368  0.1144
 3562TIP3    H134881   0.377   1.057  11.441  0.8173 -0.2625  0.4166
 3562TIP3    H234882   0.357   0.989  11.308 -2.6632  0.5465  0.4241
 3563TIP3   OH234883   0.429   3.978  11.743 -0.2441  0.1164 -0.0782
 3563TIP3    H134884   0.403   4.040  11.812 -0.3614 -0.9547  0.8628
 3563TIP3    H234885   0.346   3.949  11.705 -0.1641  1.2792 -1.2436
 3564TIP3   OH234886   0.559   3.419   9.462  0.2045 -0.1572 -0.3175
 3564TIP3    H134887   0.560   3.334   9.418 -2.8626 -0.6105  0.2574
 3564TIP3    H234888   0.466   3.436   9.480  0.8985  2.2748  1.5952
 3565TIP3   OH234889   0.183   4.137  11.671 -0.1247 -0.4100 -0.6981
 3565TIP3    H134890   0.238   4.123  11.594  0.2252  1.2332 -0.7786
 3565TIP3    H234891   0.236   4.193  11.729 -0.5413 -1.2823  0.5636
 3566TIP3   OH234892   1.587   0.813  10.944  0.4897  0.1928 -0.1381
 3566TIP3    H134893   1.593   0.898  10.987  2.0357 -0.3432  0.8224
 3566TIP3    H234894   1.656   0.761  10.986 -0.4576 -1.5509 -0.6452
 3567TIP3   OH234895   1.189   6.309  11.855 -0.1830 -0.9824 -0.6017
 3567TIP3    H134896   1.181   6.223  11.897  0.5077 -0.3354  0.9318
 3567TIP3    H234897   1.100   6.343  11.853  0.0198  0.7523  4.4455
 3568TIP3   OH234898   0.017   0.719  10.884 -0.4144 -0.2343  0.3897
 3568TIP3    H134899  -0.064   0.729  10.935  0.2725  0.9600  1.2865
 3568TIP3    H234900   0.056   0.806  10.883 -0.3659 -0.2167 -2.1832
 3569TIP3   OH234901   6.558   0.492   9.976  0.1972 -0.0278  0.0507
 3569TIP3    H134902   6.559   0.399   9.952 -0.7730  0.4035 -1.8276
 3569TIP3    H234903   6.473   0.505  10.017  0.6007 -0.0823  0.9372
 3570TIP3   OH234904   3.185   5.395   9.964 -0.4079  0.3793  0.1690
 3570TIP3    H134905   3.258   5.386  10.025  0.1891  1.6757 -0.3297
 3570TIP3    H234906   3.149   5.306   9.958 -0.6273  0.2332  2.5242
 3571TIP3   OH234907   1.343   0.512  11.338  0.0090 -0.1696  0.4399
 3571TIP3    H134908   1.347   0.529  11.244 -2.1253  0.0715  0.3586
 3571TIP3    H234909   1.368   0.596  11.378 -1.3232  0.4373  0.0556
 3572TIP3   OH234910   5.209   6.411  10.840  0.1712 -0.1716  0.2238
 3572TIP3    H134911   5.196   6.491  10.891  3.4224 -1.0036  2.7269
 3572TIP3    H234912   5.135   6.356  10.863 -1.1692  1.3984 -0.1187
 3573TIP3   OH234913   2.981   2.352  10.399  0.0371  0.2998 -0.2874
 3573TIP3    H134914   2.958   2.443  10.377 -0.3715  0.0200 -1.0698
 3573TIP3    H234915   3.051   2.330  10.337  0.5629  0.2749  0.3076
 3574TIP3   OH234916   6.771   2.628   9.605 -0.3283  0.3937  0.2336
 3574TIP3    H134917   6.775   2.699   9.540  0.6844  0.1453  0.0159
 3574TIP3    H234918   6.752   2.550   9.553  1.6120 -0.0045  0.0497
 3575TIP3   OH234919   3.312   3.255  10.281 -0.3172 -0.0455  0.1563
 3575TIP3    H134920   3.385   3.245  10.220  0.4377 -0.3516  1.0949
 3575TIP3    H234921   3.351   3.293  10.360 -1.5063  1.6407 -0.0101
 3576TIP3   OH234922   6.444   3.327  10.527  0.2111  0.0170 -0.4864
 3576TIP3    H134923   6.495   3.352  10.450 -1.2887 -0.7658 -1.7930
 3576TIP3    H234924   6.370   3.388  10.527 -0.7790 -1.1358 -0.7806
 3577TIP3   OH234925   6.017   0.221   9.911  0.1691 -0.1674 -0.0156
 3577TIP3    H134926   5.977   0.244   9.827  0.0937 -0.2680 -0.0072
 3577TIP3    H234927   5.946   0.179   9.960  0.2819 -0.3358  0.0035
 3578TIP3   OH234928   6.126   2.393  11.395 -0.9769  0.2566  0.3599
 3578TIP3    H134929   6.165   2.322  11.447 -2.7128 -0.3461  0.8977
 3578TIP3    H234930   6.167   2.472  11.430 -1.7933 -0.1623  2.4222
 3579TIP3   OH234931   0.560   3.955  10.331 -0.1380  0.5183 -0.9425
 3579TIP3    H134932   0.549   4.002  10.248  0.0367 -0.2332 -1.4060
 3579TIP3    H234933   0.628   3.890  10.313  1.3392  1.6464  0.3721
 3580TIP3   OH234934   1.457   3.025   9.914 -0.2641  0.2528 -0.0488
 3580TIP3    H134935   1.463   2.983   9.828 -1.4365 -1.1154  0.5050
 3580TIP3    H234936   1.397   2.969   9.964  1.4343  0.2422  2.1129
 3581TIP3   OH234937   0.965   5.430   9.242  0.8766  0.4303 -0.1877
 3581TIP3    H134938   0.954   5.507   9.186  1.9635  0.4697 -0.3581
 3581TIP3    H234939   0.949   5.463   9.331 -0.2216  0.5019 -0.3922
 3582TIP3   OH234940   5.949   5.325   9.518 -0.1579 -0.6269  0.3233
 3582TIP3    H134941   6.017   5.385   9.487 -1.8889  0.0652 -2.5399
 3582TIP3    H234942   5.911   5.369   9.594  0.8748  0.2104  0.3771
 3583TIP3   OH234943   4.864   1.734  10.887  0.1937 -0.0578  0.6912
 3583TIP3    H134944   4.822   1.703  10.968  2.3426 -1.0749  1.5003
 3583TIP3    H234945   4.801   1.713  10.818 -1.4188  0.2356  2.0143
 3584TIP3   OH234946   4.394   1.184  11.632  0.3944 -0.4168 -0.0603
 3584TIP3    H134947   4.468   1.238  11.662 -0.7716  0.5428  1.2000
 3584TIP3    H234948   4.316   1.231  11.662 -0.7725 -1.1700 -1.7537
 3585TIP3   OH234949   3.617   5.172   9.934 -0.4182 -0.5986  0.0690
 3585TIP3    H134950   3.709   5.165   9.960 -0.4886 -1.0019  0.2166
 3585TIP3    H234951   3.585   5.250   9.981 -0.2128 -0.5927  0.1992
 3586TIP3   OH234952   0.564   6.165  11.829 -0.4204  0.0644  0.6129
 3586TIP3    H134953   0.639   6.217  11.859  0.5204 -0.0958 -1.2870
 3586TIP3    H234954   0.503   6.229  11.792  0.3043 -0.0506 -0.8474
 3587TIP3   OH234955   3.751   0.651  11.664 -0.3723 -0.6771 -0.0723
 3587TIP3    H134956   3.840   0.618  11.674 -0.6544 -0.9669  2.1086
 3587TIP3    H234957   3.703   0.613  11.739 -2.1370  0.0786 -0.7513
 3588TIP3   OH234958   2.217   1.652   8.267 -0.3717 -0.7838 -0.6447
 3588TIP3    H134959   2.156   1.615   8.202 -0.8549 -1.2368  0.0572
 3588TIP3    H234960   2.164   1.666   8.345 -0.4732  2.4281 -1.1672
 3589TIP3   OH234961   6.756   6.513  11.250 -0.6972 -0.1335  0.3208
 3589TIP3    H134962   6.798   6.510  11.336 -1.5439 -1.1090  0.7173
 3589TIP3    H234963   6.818   6.560  11.195  1.3068 -2.1472  0.6926
 3590TIP3   OH234964   4.637   6.172  11.122  1.0667 -0.4383 -0.3503
 3590TIP3    H134965   4.679   6.167  11.208  0.9391  0.1358 -0.2490
 3590TIP3    H234966   4.624   6.081  11.096 -1.4157 -0.7009  1.4774
 3591TIP3   OH234967   1.498   0.052  11.055 -0.0221  0.1486 -0.0406
 3591TIP3    H134968   1.447   0.068  10.976 -0.7696  1.7130  0.7392
 3591TIP3    H234969   1.463   0.112  11.121  0.5317 -1.1602  1.5288
 3592TIP3   OH234970   6.563   1.300   9.616  0.1283  0.2304 -0.3984
 3592TIP3    H134971   6.556   1.210   9.647 -1.1123  0.8710  1.3835
 3592TIP3    H234972   6.473   1.324   9.593  0.3484  1.1849 -0.3071
 3593TIP3   OH234973   2.730   5.837  11.391 -0.6002  0.1394 -0.5835
 3593TIP3    H134974   2.648   5.826  11.343 -0.7361  0.9665 -0.5596
 3593TIP3    H234975   2.793   5.862  11.323 -0.7569  1.1577 -0.3708
 3594TIP3   OH234976   4.037   5.881  10.962 -0.4388 -0.1162 -0.3436
 3594TIP3    H134977   4.030   5.787  10.976 -0.3439  0.0946  1.2964
 3594TIP3    H234978   4.056   5.890  10.868  0.9860 -1.7879 -0.2599
 3595TIP3   OH234979   0.009   1.009  10.938  0.7025  0.4968 -0.1386
 3595TIP3    H134980  -0.040   0.967  11.009  0.3063 -0.4993 -0.9742
 3595TIP3    H234981  -0.054   1.013  10.865  1.2962  0.9272 -0.6354
 3596TIP3   OH234982   1.129   6.216  11.312  0.1047  0.4854 -0.0822
 3596TIP3    H134983   1.133   6.128  11.347 -0.0669  0.3153 -0.4832
 3596TIP3    H234984   1.207   6.259  11.347  0.2458  0.1437  0.0250
 3597TIP3   OH234985   4.994   6.185  11.472  0.4998 -0.3299 -0.1968
 3597TIP3    H134986   5.018   6.273  11.502 -1.5030 -0.0112  0.6489
 3597TIP3    H234987   4.945   6.199  11.392  1.0198 -0.7757 -0.6024
 3598TIP3   OH234988   3.215   6.309  10.606  0.0058 -0.4440  0.5105
 3598TIP3    H134989   3.211   6.281  10.515 -0.7757 -1.0529  0.7243
 3598TIP3    H234990   3.171   6.394  10.608  2.9042  1.2028 -0.2492
 3599TIP3   OH234991   0.199   0.551   9.839  0.0258  0.1821  0.1577
 3599TIP3    H134992   0.191   0.569   9.745  1.6699  0.2584  0.0111
 3599TIP3    H234993   0.133   0.608   9.879 -0.5780  0.2832 -0.9210
 3600TIP3   OH234994   3.825   3.004   9.409 -0.2855 -0.3112  0.0991
 3600TIP3    H134995   3.773   3.003   9.490  0.1788  0.2015  0.4139
 3600TIP3    H234996   3.907   3.046   9.434 -0.2008  0.0098 -0.6842
 3601TIP3   OH234997   1.076   0.771  10.689 -0.0478 -0.6279  0.1973
 3601TIP3    H134998   1.058   0.762  10.783 -0.6117 -0.3365  0.1162
 3601TIP3    H234999   1.151   0.830  10.685 -0.5220 -0.0032  0.4312
 3602TIP3   OH235000   2.495   4.310   9.087  0.0720  0.0370 -0.5484
 3602TIP3    H135001   2.438   4.358   9.028 -1.1280  0.2875  0.7430
 3602TIP3    H235002   2.479   4.349   9.173  1.7849 -0.2768 -0.0428
 3603TIP3   OH235003   6.336   3.435  11.734 -0.7937 -0.3556  0.1723
 3603TIP3    H135004   6.386   3.448  11.653  0.0868 -2.3989  0.3267
 3603TIP3    H235005   6.392   3.471  11.802 -0.9107  0.0897  0.0406
 3604TIP3   OH235006   6.038   6.200  10.168  0.2768 -0.3158 -0.0672
 3604TIP3    H135007   5.966   6.184  10.106 -0.5922 -1.0574  1.0832
 3604TIP3    H235008   6.077   6.282  10.139  0.2391 -0.9212 -1.9068
 3605TIP3   OH235009   0.784   4.988   9.292  0.4470  0.0144  0.3643
 3605TIP3    H135010   0.778   5.072   9.246 -2.2737 -1.0905 -1.5738
 3605TIP3    H235011   0.723   4.997   9.365  1.7914  0.3896  1.4920
 3606TIP3   OH235012   5.764   3.031  11.159 -0.2808  0.2905  0.4396
 3606TIP3    H135013   5.841   3.011  11.105  0.8760 -0.9395  2.4096
 3606TIP3    H235014   5.795   3.096  11.222 -1.4587  1.3266 -0.0096
 3607TIP3   OH235015   5.807   0.114   9.218  0.2648 -0.0827 -0.3708
 3607TIP3    H135016   5.744   0.099   9.148 -1.2021 -0.0254  0.8816
 3607TIP3    H235017   5.762   0.085   9.298  1.9156 -0.2531  0.5533
 3608TIP3   OH235018   5.904   0.291   9.654 -0.4474 -0.6403 -0.1964
 3608TIP3    H135019   5.844   0.217   9.665 -1.5823  0.3898  0.9157
 3608TIP3    H235020   5.877   0.330   9.571 -1.5176 -0.0501  0.4012
 3609TIP3   OH235021   1.765   0.131   9.193  0.0684  0.2026 -0.3284
 3609TIP3    H135022   1.721   0.146   9.277  0.4793  1.3101 -0.2963
 3609TIP3    H235023   1.812   0.048   9.205  0.8088  0.7670  0.8435
 3610TIP3   OH235024   5.145   3.225   9.526  0.5356 -0.4754 -0.4929
 3610TIP3    H135025   5.157   3.133   9.548  1.0948 -0.2758  0.0541
 3610TIP3    H235026   5.224   3.250   9.478  0.5505 -0.1892 -0.3262
 3611TIP3   OH235027   2.554   0.076   8.318  0.0856  0.4813 -0.5341
 3611TIP3    H135028   2.502   0.019   8.261  1.0137 -1.2916  0.3029
 3611TIP3    H235029   2.594   0.017   8.381  0.0911  2.2377  1.2103
 3612TIP3   OH235030   0.990   3.030   9.883 -0.4411 -0.0583  0.6890
 3612TIP3    H135031   1.019   3.060   9.970 -0.7945 -1.1405  1.2039
 3612TIP3    H235032   1.065   3.046   9.826 -0.0760  0.3561  1.2695
 3613TIP3   OH235033   1.896   3.117  11.853 -0.0378  0.4001  0.2375
 3613TIP3    H135034   1.920   3.209  11.864 -0.4174  0.4383  0.7796
 3613TIP3    H235035   1.971   3.077  11.809 -0.7404  1.4282 -2.0430
 3614TIP3   OH235036   2.429   0.170  10.118  0.4913 -0.1655  0.4666
 3614TIP3    H135037   2.456   0.253  10.078 -1.6009  1.0367  1.3827
 3614TIP3    H235038   2.431   0.186  10.212 -0.7082 -0.8463  0.6376
 3615TIP3   OH235039   2.944   3.638   8.904 -0.0239  0.3613  0.2676
 3615TIP3    H135040   2.893   3.598   8.833 -0.2723  2.6109 -0.9513
 3615TIP3    H235041   3.023   3.585   8.910 -1.0469 -1.2768 -0.0625
 3616TIP3   OH235042   5.207   5.387  11.218  0.0636  0.1925  0.2552
 3616TIP3    H135043   5.282   5.349  11.264 -0.7702  0.9480  2.3922
 3616TIP3    H235044   5.143   5.316  11.213 -0.1959  0.3450  1.1727
 3617TIP3   OH235045   3.262   4.733  10.503 -0.1887 -0.3156  0.1912
 3617TIP3    H135046   3.238   4.771  10.588  2.2426 -0.0528  0.8382
 3617TIP3    H235047   3.278   4.641  10.521 -0.0741 -0.3489 -0.0729
 3618TIP3   OH235048   4.306   0.475   8.904  0.1040 -0.0411 -0.3726
 3618TIP3    H135049   4.236   0.481   8.839 -1.0923 -0.4649  0.8054
 3618TIP3    H235050   4.333   0.383   8.902  1.9026  0.4689 -2.0413
 3619TIP3   OH235051   3.978   6.306   9.003  0.1428  0.6499 -0.2177
 3619TIP3    H135052   4.020   6.221   9.016 -1.0648  0.2571  1.4953
 3619TIP3    H235053   3.912   6.290   8.935  0.5833  0.4743 -0.6061
 3620TIP3   OH235054   1.799   4.772   8.729 -0.6550  0.9151  0.0948
 3620TIP3    H135055   1.780   4.854   8.684 -0.3741  1.3539  0.7632
 3620TIP3    H235056   1.894   4.768   8.733 -0.6135  2.1581  2.8457
 3621TIP3   OH235057   1.511   5.034   9.868  0.8355  0.1720  0.5025
 3621TIP3    H135058   1.585   5.024   9.928  0.6805 -0.7936  0.5567
 3621TIP3    H235059   1.481   5.124   9.882  2.5085  0.8753 -0.1476
 3622TIP3   OH235060   4.267   3.510  10.971 -0.2143  0.2972 -0.3568
 3622TIP3    H135061   4.231   3.430  11.009 -1.1642  0.7752 -0.2258
 3622TIP3    H235062   4.324   3.546  11.039 -0.3858  0.1290 -0.1247
 3623TIP3   OH235063   4.872   4.348  11.061 -0.3397 -0.0471  0.5052
 3623TIP3    H135064   4.814   4.420  11.085 -0.6229 -0.0964 -0.0103
 3623TIP3    H235065   4.825   4.269  11.088 -1.4170 -0.1978 -1.6560
 3624TIP3   OH235066   2.025   1.075   8.915 -0.4128  0.0170 -0.5200
 3624TIP3    H135067   2.046   0.982   8.919  1.4231  0.4299  2.5648
 3624TIP3    H235068   1.936   1.081   8.949  0.6318 -0.4601  2.6739
 3625TIP3   OH235069   0.459   2.514  10.439  0.1405 -0.9182  0.2240
 3625TIP3    H135070   0.459   2.501  10.534  0.3020 -0.4502  0.2884
 3625TIP3    H235071   0.441   2.607  10.428 -1.7342 -1.2826 -0.2455
 3626TIP3   OH235072   0.792   1.093   9.770 -0.7475 -0.1948 -0.3665
 3626TIP3    H135073   0.882   1.079   9.740 -0.3004 -1.9240  1.4984
 3626TIP3    H235074   0.745   1.014   9.742 -0.9840 -0.5455  0.9267
 3627TIP3   OH235075   6.196   4.839  11.449 -0.0273 -0.3935 -0.3453
 3627TIP3    H135076   6.205   4.746  11.469  3.7218  0.0732  0.8773
 3627TIP3    H235077   6.241   4.850  11.365  0.2562  0.4150 -0.0984
 3628TIP3   OH235078   3.731   5.990  11.378  0.1781  0.0267 -0.4619
 3628TIP3    H135079   3.679   6.070  11.380 -0.7021 -0.5299 -0.6356
 3628TIP3    H235080   3.807   6.013  11.323  0.1498  0.8537 -0.1771
 3629TIP3   OH235081   3.020   3.825  10.234 -0.2910  0.2635  0.2281
 3629TIP3    H135082   3.063   3.885  10.173 -0.2426  0.3047  0.3030
 3629TIP3    H235083   3.046   3.856  10.320 -0.1052  0.0120  0.2613
 3630TIP3   OH235084   3.171   3.040   9.081  0.4568 -0.1717  0.7285
 3630TIP3    H135085   3.178   2.952   9.118  1.6044 -2.2776 -3.8632
 3630TIP3    H235086   3.092   3.037   9.028  1.6182  0.7919 -1.1461
 3631TIP3   OH235087   0.563   6.796  11.397  0.1901  0.3053  0.6798
 3631TIP3    H135088   0.520   6.750  11.469 -1.2314 -1.2562 -1.0771
 3631TIP3    H235089   0.634   6.738  11.370  0.4401  0.6764  0.5276
 3632TIP3   OH235090   0.701   3.654   9.461  0.5287 -0.1283  0.1757
 3632TIP3    H135091   0.644   3.577   9.467  2.9482 -1.9538  1.5763
 3632TIP3    H235092   0.644   3.728   9.483 -1.2677 -1.8509  1.7134
 3633TIP3   OH235093   0.677   4.720  11.464 -0.2466 -0.1207  0.2627
 3633TIP3    H135094   0.637   4.701  11.549  1.0211 -1.6972  0.5495
 3633TIP3    H235095   0.770   4.733  11.484  0.1312 -0.8527 -0.9215
 3634TIP3   OH235096   5.518   3.063   8.152  0.2070 -0.7080  0.3978
 3634TIP3    H135097   5.465   2.997   8.197 -0.4136 -1.3425 -1.1848
 3634TIP3    H235098   5.461   3.095   8.082  0.2474  2.0208  1.4922
 3635TIP3   OH235099   3.211   5.894  11.687 -0.1010  0.4807  0.1660
 3635TIP3    H135100   3.227   5.910  11.593 -1.9284  2.2761  0.0976
 3635TIP3    H235101   3.143   5.826  11.688 -0.0669  0.4472  0.1912
 3636TIP3   OH235102   4.499   6.484  11.379  0.4135 -0.3938 -0.1510
 3636TIP3    H135103   4.587   6.495  11.416  0.8279  0.4616 -1.2916
 3636TIP3    H235104   4.457   6.569  11.393  0.7280  0.1026 -1.9144
 3637TIP3   OH235105   4.581   3.882  11.694  0.5294 -0.0829  0.0308
 3637TIP3    H135106   4.671   3.851  11.706  0.5271 -0.0735  0.0723
 3637TIP3    H235107   4.568   3.882  11.599  1.4852  2.4463 -0.1812
 3638TIP3   OH235108   6.361   4.332  11.000  0.4529 -0.4459  0.1708
 3638TIP3    H135109   6.375   4.407  10.942  0.3739 -0.3693  0.2511
 3638TIP3    H235110   6.292   4.361  11.059  0.3446 -0.6233  0.1299
 3639TIP3   OH235111   2.547   6.194  10.343 -0.1199 -0.1292 -0.4729
 3639TIP3    H135112   2.455   6.208  10.321 -0.1494 -0.1874 -0.3852
 3639TIP3    H235113   2.560   6.100  10.335 -0.0705 -0.1222 -0.4748
 3640TIP3   OH235114   2.328   3.505   8.587 -0.0346  0.1877 -0.1993
 3640TIP3    H135115   2.234   3.491   8.587  0.0561 -0.6727  1.5085
 3640TIP3    H235116   2.339   3.597   8.564 -1.3028  0.3513 -0.2175
 3641TIP3   OH235117   5.401   4.966  11.583  0.2063 -0.1565 -0.2328
 3641TIP3    H135118   5.327   4.927  11.629  1.0837 -0.7337  0.7276
 3641TIP3    H235119   5.445   4.893  11.541  0.3390  0.1557 -0.6461
 3642TIP3   OH235120   0.633   6.162  10.811  0.1660  0.2399 -0.7686
 3642TIP3    H135121   0.553   6.112  10.830  1.2399 -1.2210  0.0595
 3642TIP3    H235122   0.690   6.099  10.767  1.9949  0.3494  1.3102
 3643TIP3   OH235123   3.357   0.054  12.061  0.6465  0.6083  0.3360
 3643TIP3    H135124   3.324  -0.025  12.102 -0.6584  1.6167  1.2959
 3643TIP3    H235125   3.360   0.034  11.968  0.3347 -0.5517  0.5670
 3644TIP3   OH235126   2.947   1.951  11.002  0.2048  0.4515 -0.0356
 3644TIP3    H135127   2.923   1.900  10.925 -0.1223 -0.2751  0.5359
 3644TIP3    H235128   3.040   1.934  11.014  0.3998  1.0545 -0.6181
 3645TIP3   OH235129   6.757   4.044   8.349  0.1200  0.2298 -0.0747
 3645TIP3    H135130   6.668   4.008   8.343  0.0728  0.5264 -1.6801
 3645TIP3    H235131   6.811   3.971   8.379 -0.9854  0.6820  3.5415
 3646TIP3   OH235132   3.296   6.328   8.861 -0.0075 -0.4069  0.4141
 3646TIP3    H135133   3.382   6.368   8.860 -0.2082  0.0231 -0.0277
 3646TIP3    H235134   3.237   6.395   8.826 -0.5174 -0.7042  0.6816
 3647TIP3   OH235135   5.247   5.958   8.935 -0.0600  0.1461  0.1335
 3647TIP3    H135136   5.169   6.012   8.937  0.6768  1.2557 -0.1763
 3647TIP3    H235137   5.228   5.890   8.870 -1.0246 -0.0410  0.5939
 3648TIP3   OH235138   0.785   6.641  11.371  0.0932  0.0793 -0.1134
 3648TIP3    H135139   0.763   6.556  11.332 -0.7191 -0.3294  1.1720
 3648TIP3    H235140   0.876   6.656  11.344  0.0304 -0.8564 -0.9367
 3649TIP3   OH235141   0.294   1.276   9.754  0.1335  0.2856  0.4105
 3649TIP3    H135142   0.332   1.288   9.841 -0.9437 -0.1499  0.9714
 3649TIP3    H235143   0.342   1.203   9.716  2.0802  1.8180 -0.2708
 3650TIP3   OH235144   6.173   2.382  10.425  0.2757  0.7237 -0.1778
 3650TIP3    H135145   6.085   2.360  10.392  0.9087 -0.1649 -1.3528
 3650TIP3    H235146   6.157   2.442  10.497 -1.3812 -0.4227  0.4734
 3651TIP3   OH235147   0.274   5.923   9.238  0.1663 -0.8695  0.2081
 3651TIP3    H135148   0.235   5.942   9.324  1.6093  1.5368  0.4479
 3651TIP3    H235149   0.277   6.008   9.195  4.1902 -0.9964 -0.1206
 3652TIP3   OH235150   4.897   1.015  10.006 -0.5071  0.3534  0.6521
 3652TIP3    H135151   4.872   1.005   9.914 -1.1191  1.7265  0.6448
 3652TIP3    H235152   4.862   1.100  10.031  2.1045  1.2801  1.3795
 3653TIP3   OH235153   5.203   3.679   7.862 -0.1316  0.0040  0.0270
 3653TIP3    H135154   5.172   3.762   7.827 -0.8310 -0.2494  0.0405
 3653TIP3    H235155   5.298   3.691   7.871 -0.3568  1.1967  1.1008
 3654TIP3   OH235156   3.191   6.076   8.951  0.1515  0.5589  0.2665
 3654TIP3    H135157   3.217   6.156   8.906 -1.1016 -0.1736 -1.9211
 3654TIP3    H235158   3.184   6.101   9.043  2.4367  2.2369  0.0590
 3655TIP3   OH235159   4.509   1.806  11.221  0.2889  0.1065 -0.4618
 3655TIP3    H135160   4.535   1.725  11.266 -1.8023 -0.8983 -0.9336
 3655TIP3    H235161   4.502   1.782  11.129 -0.6541  0.7353 -0.5700
 3656TIP3   OH235162   4.407   0.693  11.421 -0.3573 -0.4167 -0.4941
 3656TIP3    H135163   4.426   0.779  11.460  1.7546 -0.9409 -0.2693
 3656TIP3    H235164   4.329   0.663  11.468  0.7218  0.0165  1.6710
 3657TIP3   OH235165   6.266   0.488  10.030 -0.3419 -0.3370  0.1188
 3657TIP3    H135166   6.300   0.577  10.042 -0.0802 -0.0440 -2.3138
 3657TIP3    H235167   6.178   0.491  10.068  0.3346  0.3922  1.7292
 3658TIP3   OH235168   4.435   1.286   9.224  0.2001 -0.3257  0.4576
 3658TIP3    H135169   4.530   1.290   9.216  0.2552  2.2128  1.3914
 3658TIP3    H235170   4.420   1.276   9.318 -0.4436 -0.1377  0.3794
 3659TIP3   OH235171   4.381   0.628  10.321 -0.0105  0.3410  0.1041
 3659TIP3    H135172   4.350   0.661  10.405  0.0286  0.6134  0.0105
 3659TIP3    H235173   4.432   0.699  10.283 -0.8873  0.6135 -0.6174
 3660TIP3   OH235174   3.442   3.923   9.048  0.4288 -0.1847  0.0253
 3660TIP3    H135175   3.374   3.990   9.055  0.9903  0.6006 -1.5505
 3660TIP3    H235176   3.409   3.863   8.981  0.8636 -0.3078 -0.0804
 3661TIP3   OH235177   2.954   4.626   8.591  0.4567 -0.1389 -0.3086
 3661TIP3    H135178   2.876   4.577   8.613  0.2586 -0.0867 -0.9015
 3661TIP3    H235179   2.926   4.690   8.526  0.5281  1.2926  0.9982
 3662TIP3   OH235180   5.313   2.901   9.190 -0.5882 -0.0465 -0.1982
 3662TIP3    H135181   5.233   2.917   9.140 -0.3141 -1.5174 -1.1674
 3662TIP3    H235182   5.382   2.947   9.142 -0.6499  0.2208 -0.0333
 3663TIP3   OH235183   1.791   1.587  10.084 -0.1093 -0.7950 -0.0862
 3663TIP3    H135184   1.699   1.576  10.108 -0.1779 -0.9299 -0.4033
 3663TIP3    H235185   1.803   1.681  10.078 -0.1002 -0.7607  0.4342
 3664TIP3   OH235186   2.356   2.329   9.603  0.0398  0.3843 -0.1785
 3664TIP3    H135187   2.330   2.247   9.562 -0.6465  0.8330 -0.6486
 3664TIP3    H235188   2.394   2.303   9.687 -0.0798 -0.4188 -0.3708
 3665TIP3   OH235189   5.021   5.491  10.853  0.2985 -0.0839  0.4552
 3665TIP3    H135190   5.059   5.456  10.772  0.7314 -0.7146  0.9243
 3665TIP3    H235191   5.043   5.584  10.851  0.3761 -0.1072 -0.1103
 3666TIP3   OH235192   0.967   2.696  10.254 -0.4209 -0.1460 -0.0763
 3666TIP3    H135193   0.927   2.718  10.170 -1.1218 -3.2261 -0.6875
 3666TIP3    H235194   0.893   2.666  10.308  0.1988  0.5352  1.2038
 3667TIP3   OH235195   0.393   3.842   8.655  0.2499  0.1661  0.4609
 3667TIP3    H135196   0.452   3.772   8.627 -0.1330  0.1283 -0.2715
 3667TIP3    H235197   0.441   3.888   8.723  0.8296 -0.3158  0.3861
 3668TIP3   OH235198   4.795   5.673   9.432  0.4110  0.2290 -0.2975
 3668TIP3    H135199   4.803   5.582   9.403  0.9303 -0.2161  1.1516
 3668TIP3    H235200   4.870   5.717   9.393 -0.4269  0.3303 -1.9087
 3669TIP3   OH235201   3.062   5.638   9.122  0.4809  0.4838  0.0125
 3669TIP3    H135202   3.015   5.699   9.178 -1.0155  0.9203 -1.6008
 3669TIP3    H235203   3.061   5.555   9.169 -2.5677  0.3034 -0.1813
 3670TIP3   OH235204   3.736   0.693  10.779  0.0859  0.7837  0.7320
 3670TIP3    H135205   3.694   0.643  10.709 -0.2782  1.4772  0.4427
 3670TIP3    H235206   3.668   0.700  10.846  0.2555  0.5920  0.9280
 3671TIP3   OH235207   4.694   5.598   9.052  0.2845  0.0308  0.6724
 3671TIP3    H135208   4.662   5.667   8.994  1.8754 -0.3110 -0.7148
 3671TIP3    H235209   4.616   5.548   9.075 -0.5238  0.7002 -0.4899
 3672TIP3   OH235210   6.823   2.723  10.002  0.6934 -0.0600  0.0005
 3672TIP3    H135211   6.862   2.764   9.925 -0.5672  1.4974  0.1515
 3672TIP3    H235212   6.734   2.701   9.976  0.6200 -0.5806  0.6627
 3673TIP3   OH235213   0.210   4.264   8.827  0.3412  0.4743  0.0846
 3673TIP3    H135214   0.178   4.176   8.810 -0.6596  0.4789  1.7922
 3673TIP3    H235215   0.205   4.308   8.742 -2.0228 -0.2360 -0.2027
 3674TIP3   OH235216   3.995   4.304  11.290  0.0270 -0.2696  0.4744
 3674TIP3    H135217   3.917   4.274  11.244 -1.2510  0.8105  1.8827
 3674TIP3    H235218   4.044   4.223  11.308 -0.7776 -0.9650 -0.3591
 3675TIP3   OH235219   5.166   4.677   8.127  0.2422 -0.0783 -0.0060
 3675TIP3    H135220   5.089   4.626   8.101  0.5839 -0.9273  0.6018
 3675TIP3    H235221   5.141   4.768   8.110 -1.9527 -0.0347  2.6448
 3676TIP3   OH235222   5.121   3.675  11.702 -0.1672  0.1797  0.3200
 3676TIP3    H135223   5.143   3.615  11.630  0.7485  1.0109 -0.1248
 3676TIP3    H235224   5.126   3.621  11.781  2.2031 -0.0263  0.0985
 3677TIP3   OH235225   6.247   4.328  10.467  0.2596  0.0530 -0.2542
 3677TIP3    H135226   6.262   4.342  10.560  1.1774 -1.6655 -0.1080
 3677TIP3    H235227   6.153   4.343  10.456  0.4736  2.3522  0.5018
 3678TIP3   OH235228   1.822   1.781  11.127  0.3000  0.0787 -0.4741
 3678TIP3    H135229   1.845   1.691  11.152 -1.1655 -0.5319 -1.2241
 3678TIP3    H235230   1.743   1.801  11.177  0.9066  1.1667  0.0838
 3679TIP3   OH235231   0.883   2.075   9.277 -0.3009  0.0132  0.4970
 3679TIP3    H135232   0.931   2.094   9.197 -0.3776  0.6242  0.5929
 3679TIP3    H235233   0.900   2.150   9.334 -2.4910  0.9596  0.0033
 3680TIP3   OH235234   6.835   4.204  11.444  0.3423 -0.8927 -0.5660
 3680TIP3    H135235   6.744   4.212  11.418  0.1887 -0.6515  0.0185
 3680TIP3    H235236   6.847   4.111  11.464 -0.1071 -0.7354  0.5027
 3681TIP3   OH235237   4.174   2.031  11.689 -0.3136  0.0334  0.5566
 3681TIP3    H135238   4.227   2.081  11.751 -0.1343  0.3473  0.1544
 3681TIP3    H235239   4.231   1.959  11.662  0.3167  0.9552 -0.6735
 3682TIP3   OH235240   1.657   2.061  10.742  0.2474  0.3353  0.2755
 3682TIP3    H135241   1.658   2.109  10.824  0.7928  0.8342 -0.0141
 3682TIP3    H235242   1.661   2.128  10.674  1.3175 -0.1030 -0.1290
 3683TIP3   OH235243   3.659   1.702   9.823  0.1132 -0.0243 -0.5430
 3683TIP3    H135244   3.737   1.756   9.829 -0.0306  0.5296 -2.6096
 3683TIP3    H235245   3.679   1.639   9.753 -0.1740 -1.9152  0.9937
 3684TIP3   OH235246   0.001   1.368   9.827 -0.2089 -0.4112 -0.2876
 3684TIP3    H135247   0.083   1.320   9.814  0.3759  0.4094  0.2584
 3684TIP3    H235248  -0.058   1.305   9.869  0.6723 -0.5575  0.7584
 3685TIP3   OH235249   5.227   1.837   9.543 -0.4270 -0.0154 -0.3156
 3685TIP3    H135250   5.174   1.882   9.609 -2.1781 -0.7281 -1.1717
 3685TIP3    H235251   5.306   1.891   9.535 -1.2269  1.3758  0.6477
 3686TIP3   OH235252   0.147   3.249  10.521 -0.2798  0.2697 -0.3474
 3686TIP3    H135253   0.173   3.205  10.602 -1.5620  0.3413  0.1166
 3686TIP3    H235254   0.224   3.299  10.496  1.1541 -1.9571 -0.7395
 3687TIP3   OH235255   3.149   4.389  10.237  0.2297 -0.1833 -0.2001
 3687TIP3    H135256   3.141   4.474  10.281 -0.0574 -0.3945  0.1652
 3687TIP3    H235257   3.241   4.383  10.212  0.9182 -0.9306  2.2012
 3688TIP3   OH235258   1.773   4.665   9.945  0.8709 -0.5052 -0.3180
 3688TIP3    H135259   1.850   4.610   9.931  2.6112  1.2527  1.5351
 3688TIP3    H235260   1.727   4.624  10.018  0.8806 -0.7737 -0.4647
 3689TIP3   OH235261   5.912   6.313   9.136  0.7496 -0.0948  0.6874
 3689TIP3    H135262   5.994   6.274   9.106 -0.3193 -1.1445 -1.0393
 3689TIP3    H235263   5.854   6.310   9.060 -1.7307 -1.7511  2.4369
 3690TIP3   OH235264   6.460   0.367  11.487 -0.4482 -0.2119  0.4329
 3690TIP3    H135265   6.437   0.300  11.424  1.0538 -0.4873  0.1232
 3690TIP3    H235266   6.418   0.340  11.569 -1.5675 -0.3962 -0.1927
 3691TIP3   OH235267   3.587   3.604   9.289  0.3466 -0.2950  0.4510
 3691TIP3    H135268   3.605   3.633   9.379  1.5216 -0.8945  0.4295
 3691TIP3    H235269   3.532   3.527   9.300 -1.1830  0.7770  0.5703
 3692TIP3   OH235270   2.361   2.920   9.366 -0.1707 -0.2781 -0.4518
 3692TIP3    H135271   2.353   3.013   9.388 -1.9828 -0.6766  0.8301
 3692TIP3    H235272   2.299   2.907   9.294  0.6364 -0.3532 -1.1399
 3693TIP3   OH235273   3.601   5.492   9.907 -0.2744  1.0519 -0.0688
 3693TIP3    H135274   3.692   5.518   9.920  0.3049 -0.0138 -1.8150
 3693TIP3    H235275   3.561   5.568   9.865  0.0337  1.1625 -0.1646
 3694TIP3   OH235276   2.971   1.001  11.069  0.3459  0.1782  0.0194
 3694TIP3    H135277   2.999   1.092  11.065  1.5325 -0.0543  1.7016
 3694TIP3    H235278   2.937   0.991  11.158 -0.6778 -0.7761 -0.4675
 3695TIP3   OH235279   1.054   0.111   8.999  0.0567 -0.2165 -0.2033
 3695TIP3    H135280   1.052   0.204   8.976  2.2748  0.1875  0.9577
 3695TIP3    H235281   1.083   0.067   8.919  0.7589  0.3241 -0.2574
 3696TIP3   OH235282   6.575   1.798  10.955 -0.0793 -0.1733  0.6751
 3696TIP3    H135283   6.651   1.841  10.916  0.1668 -1.6746 -0.5518
 3696TIP3    H235284   6.567   1.715  10.909 -0.6495 -1.4023  2.8665
 3697TIP3   OH235285   6.661   2.985  11.841  0.1685 -0.2978  0.2875
 3697TIP3    H135286   6.567   3.002  11.837  0.2904  1.0576  2.2456
 3697TIP3    H235287   6.673   2.907  11.786 -2.1213 -0.6808  0.2251
 3698TIP3   OH235288   2.662   4.608   8.934  0.2816  0.1530  0.1120
 3698TIP3    H135289   2.568   4.592   8.945  0.4091 -0.1740  0.7298
 3698TIP3    H235290   2.700   4.591   9.020  0.7988  1.1045  0.0886
 3699TIP3   OH235291   3.904   2.678   9.617  0.1981  0.0884  0.3157
 3699TIP3    H135292   3.868   2.635   9.694 -0.5948  0.9912  0.4660
 3699TIP3    H235293   3.831   2.680   9.554  0.8829 -0.7985 -0.5406
 3700TIP3   OH235294   4.903   5.928  11.122  0.4823  0.5631  0.2615
 3700TIP3    H135295   4.841   5.995  11.149  0.3286  0.3159  0.5259
 3700TIP3    H235296   4.948   5.903  11.203 -1.1738 -1.4264  0.6499
 3701TIP3   OH235297   5.416   4.905   9.150  0.7125 -0.4929 -0.1532
 3701TIP3    H135298   5.424   4.810   9.156  0.3397 -0.5505 -0.5568
 3701TIP3    H235299   5.329   4.924   9.185  0.7692 -0.3026 -0.1117
 3702TIP3   OH235300   0.229   0.477  11.343  0.1318  0.6544  0.1720
 3702TIP3    H135301   0.250   0.540  11.274 -0.3394  0.5287 -0.0865
 3702TIP3    H235302   0.273   0.512  11.421  1.1832  0.4699 -0.3211
 3703TIP3   OH235303   4.190   0.866   9.960  0.6418 -0.6512  0.0404
 3703TIP3    H135304   4.131   0.941   9.948  1.8392  0.5188  1.1067
 3703TIP3    H235305   4.179   0.841  10.051  1.3295 -0.8059  0.0873
 3704TIP3   OH235306   3.154   2.505  10.805 -0.0693 -0.1430  0.3696
 3704TIP3    H135307   3.073   2.555  10.800  0.5962  0.8885 -0.3190
 3704TIP3    H235308   3.142   2.434  10.742 -1.0831 -0.9989  1.4753
 3705TIP3   OH235309   3.091   6.571   9.586 -0.0536 -0.0567  0.2004
 3705TIP3    H135310   3.185   6.572   9.564 -0.2161 -0.4675 -0.5411
 3705TIP3    H235311   3.081   6.643   9.648  0.9800 -0.7980  1.2696
 3706TIP3   OH235312   6.316   0.295   9.818  0.1583  0.7170 -0.1947
 3706TIP3    H135313   6.239   0.249   9.788  0.6581 -0.2985  0.0396
 3706TIP3    H235314   6.294   0.324   9.907  0.7180 -1.3003  0.6604
 3707TIP3   OH235315   5.417   3.093  10.824 -0.0238  0.3109 -0.0235
 3707TIP3    H135316   5.326   3.082  10.852  0.1773  0.2708  0.6238
 3707TIP3    H235317   5.461   3.129  10.900  0.6017 -0.1035 -0.1891
 3708TIP3   OH235318   5.003   5.510  10.436  0.0864 -0.1017  0.3131
 3708TIP3    H135319   5.018   5.586  10.380 -0.6619  0.2008  0.5023
 3708TIP3    H235320   4.909   5.512  10.454 -0.1199 -1.6196 -0.4537
 3709TIP3   OH235321   4.821   6.353  10.705 -0.6841 -0.5764  0.0720
 3709TIP3    H135322   4.852   6.443  10.717 -0.3062 -0.8353  1.0915
 3709TIP3    H235323   4.743   6.347  10.759 -1.4203 -0.5179 -0.9481
 3710TIP3   OH235324   2.403   0.506   8.945 -0.2568  0.4788  0.1036
 3710TIP3    H135325   2.449   0.586   8.970 -0.0006  0.0784  0.9321
 3710TIP3    H235326   2.344   0.534   8.875  2.3996  0.7242 -2.2476
 3711TIP3   OH235327   5.424   0.694  10.453  0.1361 -0.3446  0.7190
 3711TIP3    H135328   5.419   0.711  10.547 -1.9524 -2.6385  1.1394
 3711TIP3    H235329   5.333   0.683  10.426  0.5323  2.1125 -2.0257
 3712TIP3   OH235330   3.176   6.766  11.191 -0.3834 -0.3825 -0.6041
 3712TIP3    H135331   3.180   6.672  11.179  0.8671 -0.2738 -1.2319
 3712TIP3    H235332   3.155   6.800  11.104  1.4741  0.0161 -0.9483
 3713TIP3   OH235333   0.900   4.881  11.010 -0.0413  0.3981  0.1976
 3713TIP3    H135334   0.992   4.904  10.995 -0.4868  0.7936 -2.3287
 3713TIP3    H235335   0.856   4.905  10.928 -2.0876 -1.4258  0.6957
 3714TIP3   OH235336   4.843   1.985  10.426  0.4252  0.3407  0.1224
 3714TIP3    H135337   4.874   2.048  10.361  1.4287  1.0570  1.2718
 3714TIP3    H235338   4.845   2.032  10.509 -2.0343 -0.1604  0.5610
 3715TIP3   OH235339   6.809   4.311   8.400 -0.1828  0.0529  0.2086
 3715TIP3    H135340   6.801   4.218   8.380  0.4546 -0.4576  2.0331
 3715TIP3    H235341   6.789   4.356   8.318  0.4075 -1.7112 -0.9614
 3716TIP3   OH235342   4.375   4.187   8.769 -0.1561 -0.5313 -0.1113
 3716TIP3    H135343   4.347   4.258   8.826  0.3409  0.1273 -0.6767
 3716TIP3    H235344   4.470   4.185   8.777 -0.1072 -0.6313 -0.6879
 3717TIP3   OH235345   5.829   1.996   9.001  0.3067 -0.6164 -0.1235
 3717TIP3    H135346   5.762   2.059   9.027 -1.1687 -1.1177 -2.3550
 3717TIP3    H235347   5.858   2.027   8.915 -1.9661 -3.9049 -2.3248
 3718TIP3   OH235348   3.238   0.104  11.549  0.3176 -0.2257 -0.1692
 3718TIP3    H135349   3.237   0.056  11.632 -0.4763  0.3024  0.1382
 3718TIP3    H235350   3.313   0.163  11.555  1.2583 -1.3381 -0.5177
 3719TIP3   OH235351   3.640   0.557   8.672  0.4369 -0.5609 -0.2353
 3719TIP3    H135352   3.624   0.565   8.578  0.3568 -1.1094 -0.2662
 3719TIP3    H235353   3.576   0.616   8.712 -0.6606 -1.5840 -0.4345
 3720TIP3   OH235354   5.430   5.390   9.748 -0.0899 -0.3420  0.0304
 3720TIP3    H135355   5.369   5.325   9.713  0.4988 -1.5016  1.0770
 3720TIP3    H235356   5.503   5.390   9.686 -1.2889  1.3704 -1.4654
 3721TIP3   OH235357   6.812   3.922  11.455  0.1923 -0.5917  0.2362
 3721TIP3    H135358   6.800   3.828  11.465  2.8505 -1.2574 -1.6065
 3721TIP3    H235359   6.853   3.931  11.369  0.9513  2.1640  0.8056
 3722TIP3   OH235360   0.911   1.232  10.134 -0.0770  0.2271 -0.3333
 3722TIP3    H135361   0.858   1.154  10.146 -1.5434  1.2057 -0.1546
 3722TIP3    H235362   0.942   1.254  10.221 -1.4612  1.0291 -0.0107
 3723TIP3   OH235363   3.844   5.242  10.082  0.2904  0.0698  0.1394
 3723TIP3    H135364   3.763   5.284  10.113  0.7553  1.3427 -0.3235
 3723TIP3    H235365   3.856   5.167  10.141 -0.4769  0.6735  1.0917
 3724TIP3   OH235366   2.493   1.731  10.136  0.6897 -0.6488 -0.0131
 3724TIP3    H135367   2.533   1.796  10.194  0.3027  0.2519 -0.7369
 3724TIP3    H235368   2.505   1.647  10.182 -1.2316  0.2200  2.2814
 3725TIP3   OH235369   2.606   4.203  10.078  0.0304 -0.4981 -0.2619
 3725TIP3    H135370   2.518   4.177  10.051 -0.4076  1.1702 -0.5681
 3725TIP3    H235371   2.604   4.298  10.074  1.3101 -0.3714  1.4840
 3726TIP3   OH235372   4.124   6.212  11.178 -0.3672 -0.3583  0.5806
 3726TIP3    H135373   4.071   6.137  11.204  0.1011 -1.1654 -0.6619
 3726TIP3    H235374   4.155   6.189  11.090  0.1897  1.0825  0.3759
 3727TIP3   OH235375   6.284   6.213  11.653  0.0980  0.4824  0.8426
 3727TIP3    H135376   6.242   6.145  11.600 -0.2989  1.1405  0.2917
 3727TIP3    H235377   6.295   6.173  11.739  2.8771 -1.4547 -0.2772
 3728TIP3   OH235378   2.094   3.708   8.648  0.4918  0.4197 -0.2114
 3728TIP3    H135379   2.185   3.737   8.645  0.5395  0.1534 -1.8175
 3728TIP3    H235380   2.095   3.620   8.612 -0.4426  0.5046 -0.4757
 3729TIP3   OH235381   6.481   2.376  11.214  0.4149  0.3273  0.2919
 3729TIP3    H135382   6.560   2.421  11.244  0.7905 -0.7207  0.8913
 3729TIP3    H235383   6.506   2.338  11.130  0.8309 -0.7344  0.8823
 3730TIP3   OH235384   6.436   3.757  11.971  0.3951 -0.0587 -0.1855
 3730TIP3    H135385   6.519   3.777  11.928  0.4163 -1.5059 -0.8868
 3730TIP3    H235386   6.433   3.661  11.975 -0.9420 -0.0216  0.4224
 3731TIP3   OH235387   4.514   6.272  11.544  0.2134  0.4518  0.0391
 3731TIP3    H135388   4.479   6.341  11.487  1.4854  1.2369  0.1610
 3731TIP3    H235389   4.441   6.212  11.556 -0.8304  1.5782 -0.3912
 3732TIP3   OH235390   4.601   6.257  10.833  0.5228 -0.4863 -0.2566
 3732TIP3    H135391   4.625   6.257  10.926  0.6577 -0.9008 -0.2936
 3732TIP3    H235392   4.516   6.301  10.831  0.1996 -1.0785  0.1489
 3733TIP3   OH235393   3.084   2.482   9.295 -0.0313 -0.2083 -0.0986
 3733TIP3    H135394   3.067   2.388   9.298 -0.0218 -0.2154 -0.2819
 3733TIP3    H235395   3.114   2.498   9.206 -1.7599  0.2660 -0.6246
 3734TIP3   OH235396   0.633   6.365   9.669  0.6620 -0.4586  0.5151
 3734TIP3    H135397   0.619   6.411   9.752 -0.7791  0.9684 -0.4497
 3734TIP3    H235398   0.724   6.383   9.648  0.5289  0.7692  0.8873
 3735TIP3   OH235399   2.187   2.872   8.708 -0.2190  0.5716  0.3886
 3735TIP3    H135400   2.268   2.911   8.675  0.0015  0.5040  0.8394
 3735TIP3    H235401   2.196   2.778   8.691 -0.2680  0.5828  0.3018
 3736TIP3   OH235402   2.194   4.667  10.769 -0.7227  0.1025  0.3374
 3736TIP3    H135403   2.152   4.582  10.754  0.5891 -0.6723  0.8551
 3736TIP3    H235404   2.224   4.662  10.860  0.0128  0.8394  0.1388
 3737TIP3   OH235405   5.924   5.883  11.535  0.5327 -0.3274  0.3245
 3737TIP3    H135406   5.945   5.810  11.593 -0.5080 -0.7541  0.1949
 3737TIP3    H235407   5.903   5.842  11.451 -1.5384 -0.0615  0.6430
 3738TIP3   OH235408   2.362   0.215  10.388 -0.2792  0.4536  0.2153
 3738TIP3    H135409   2.434   0.183  10.442  1.4918  1.0204 -1.6739
 3738TIP3    H235410   2.371   0.310  10.388 -1.7983  0.6285  0.9030
 3739TIP3   OH235411   6.367   1.781  11.330  0.4089  0.4601 -0.6736
 3739TIP3    H135412   6.387   1.871  11.354 -1.0112  0.5186  0.3942
 3739TIP3    H235413   6.359   1.735  11.413 -1.0034 -0.1537 -1.1161
 3740TIP3   OH235414   4.048   5.753  10.295  0.1980  0.1363  0.0880
 3740TIP3    H135415   3.969   5.765  10.347 -0.5882 -0.6760 -0.8831
 3740TIP3    H235416   4.073   5.841  10.267 -0.6603  0.3520 -0.0129
 3741TIP3   OH235417   2.979   4.911   9.345  0.1218  0.8266 -0.1938
 3741TIP3    H135418   3.051   4.974   9.348 -0.4642  1.4553  1.4169
 3741TIP3    H235419   2.938   4.916   9.431  0.2137 -1.9671  0.1310
 3742TIP3   OH235420   6.747   3.374  11.506 -0.1814  0.2572 -0.3963
 3742TIP3    H135421   6.757   3.393  11.599  0.2299 -0.2386 -0.3321
 3742TIP3    H235422   6.692   3.295  11.504 -0.4385  0.4399 -0.5875
 3743TIP3   OH235423   1.358   4.162  11.513  0.1307  0.2091  0.0457
 3743TIP3    H135424   1.429   4.132  11.457 -0.8225  0.6319 -1.4679
 3743TIP3    H235425   1.320   4.236  11.465 -1.6125 -0.3052  0.5722
 3744TIP3   OH235426   1.393   5.956   9.418 -0.1668  0.2748  0.3804
 3744TIP3    H135427   1.468   5.993   9.464 -1.0149  1.8061  0.5997
 3744TIP3    H235428   1.338   6.032   9.397  0.2866 -0.2891 -3.4320
 3745TIP3   OH235429   6.089   0.057   9.130 -0.1370 -0.6400  0.4146
 3745TIP3    H135430   6.087   0.102   9.046  0.6153  0.4845  0.9680
 3745TIP3    H235431   6.013   0.092   9.177  1.0411  0.9263  1.2427
 3746TIP3   OH235432   1.638   2.278   9.508 -0.3651  0.5291 -0.8451
 3746TIP3    H135433   1.713   2.272   9.449 -0.1549  1.2344 -0.6559
 3746TIP3    H235434   1.607   2.188   9.517  2.2671 -0.2803  1.3966
 3747TIP3   OH235435   5.863   6.424  11.701 -0.0976 -0.5868 -0.4209
 3747TIP3    H135436   5.787   6.421  11.760  1.0148 -0.0672  1.1036
 3747TIP3    H235437   5.873   6.518  11.682  0.9147 -0.4999  0.4509
 3748TIP3   OH235438   5.698   4.751  10.887 -0.5523  0.4514 -0.5840
 3748TIP3    H135439   5.684   4.792  10.802  0.7266 -1.3316 -1.7170
 3748TIP3    H235440   5.785   4.711  10.881 -0.7150 -0.2966  1.3179
 3749TIP3   OH235441   3.056   0.977  10.224 -0.1909 -0.3160  0.2546
 3749TIP3    H135442   3.029   0.886  10.234  0.8818 -0.8508 -1.3477
 3749TIP3    H235443   3.027   1.019  10.304 -1.0774 -1.9727  0.8578
 3750TIP3   OH235444   2.317   5.500   9.924 -0.0691  0.6102 -0.0843
 3750TIP3    H135445   2.369   5.478   9.847  0.6141 -2.6232  1.1585
 3750TIP3    H235446   2.236   5.450   9.913 -0.4684  1.0625  0.7473
 3751TIP3   OH235447   5.673   6.548   8.961  0.7501  0.1491 -0.1834
 3751TIP3    H135448   5.707   6.506   8.882  2.1692  0.6639  0.1136
 3751TIP3    H235449   5.683   6.482   9.029  2.3652  0.6874  0.1491
 3752TIP3   OH235450   6.086   3.436   9.422 -0.0114  0.6576 -0.2254
 3752TIP3    H135451   6.058   3.527   9.432  1.0330  0.9208  0.4821
 3752TIP3    H235452   6.005   3.386   9.417 -0.5943  1.6169 -0.5285
 3753TIP3   OH235453   0.137   4.484  10.581 -0.9413  0.2644 -0.3463
 3753TIP3    H135454   0.165   4.409  10.634 -0.0704  1.0329  0.3168
 3753TIP3    H235455   0.154   4.560  10.636  0.3780  1.1276 -1.8588
 3754TIP3   OH235456   6.844   0.842   9.704  0.5093 -0.0563  0.1092
 3754TIP3    H135457   6.811   0.800   9.783  1.4989 -2.0198 -0.4443
 3754TIP3    H235458   6.801   0.794   9.632  2.9689 -1.3905 -0.5783
 3755TIP3   OH235459   5.214   0.289   9.040 -0.4723  0.2409 -0.0262
 3755TIP3    H135460   5.181   0.207   9.003 -0.6291 -0.2029  1.0834
 3755TIP3    H235461   5.177   0.357   8.983  1.7587 -0.4992 -2.5909
 3756TIP3   OH235462   1.148   0.200   9.246 -0.0244 -0.3936  0.5248
 3756TIP3    H135463   1.133   0.146   9.168  0.0342  1.2452 -0.6911
 3756TIP3    H235464   1.093   0.161   9.314 -1.0730 -1.1273 -0.6963
 3757TIP3   OH235465   1.939   5.512  11.287  0.8769 -0.2733  0.0848
 3757TIP3    H135466   1.997   5.476  11.354 -1.9972 -1.8896  1.9154
 3757TIP3    H235467   1.927   5.604  11.313 -0.5883 -0.9881  2.2468
 3758TIP3   OH235468   0.043   3.210   8.308 -0.8671 -0.0874 -0.0682
 3758TIP3    H135469   0.048   3.135   8.367 -1.2900 -0.5198 -0.5703
 3758TIP3    H235470  -0.020   3.183   8.241  0.9131 -0.3029 -1.7141
 3759TIP3   OH235471   2.608   2.130  10.087  0.5500 -0.8403  0.1078
 3759TIP3    H135472   2.621   2.212  10.134  1.4870 -0.4420 -0.8041
 3759TIP3    H235473   2.530   2.091  10.127 -0.5419  0.9815 -0.1111
 3760TIP3   OH235474   1.207   2.785   8.845  0.1594  0.2437  0.0807
 3760TIP3    H135475   1.300   2.788   8.868 -0.1012  0.8060  1.1471
 3760TIP3    H235476   1.180   2.695   8.865  0.3999  0.1664  0.0597
 3761TIP3   OH235477   1.803   1.565   9.459 -0.1467  0.3640 -0.5986
 3761TIP3    H135478   1.786   1.585   9.551  1.8295 -1.3279  0.2152
 3761TIP3    H235479   1.768   1.640   9.411 -1.1815  1.3185  1.5209
 3762TIP3   OH235480   4.199   6.477  10.410 -0.3968 -0.7054  0.0816
 3762TIP3    H135481   4.110   6.443  10.417 -1.5025  1.7782 -0.5478
 3762TIP3    H235482   4.219   6.513  10.497  0.0549 -1.3531  0.2537
 3763TIP3   OH235483   3.218   4.498   9.915 -0.1906  0.1228  0.1447
 3763TIP3    H135484   3.284   4.430   9.927 -1.0191 -1.0802 -1.6380
 3763TIP3    H235485   3.200   4.529  10.004  1.2270 -0.9961  0.8710
 3764TIP3   OH235486   1.297   5.592  10.832 -0.1880 -0.3836  0.0552
 3764TIP3    H135487   1.389   5.609  10.852 -0.0310 -1.0151 -0.1016
 3764TIP3    H235488   1.275   5.515  10.885 -0.7747  0.0691  0.4913
 3765TIP3   OH235489   2.283   1.720   9.597 -0.2521  0.0209 -0.3500
 3765TIP3    H135490   2.253   1.805   9.631 -1.6155 -0.1225 -1.1301
 3765TIP3    H235491   2.245   1.656   9.657 -0.2975 -0.1026 -0.5122
 3766TIP3   OH235492   2.685   0.288   9.847  0.0325 -0.5954 -0.3577
 3766TIP3    H135493   2.623   0.361   9.847 -0.4892 -1.0317 -0.2630
 3766TIP3    H235494   2.730   0.295   9.931  2.3488  1.5708 -1.6635
 3767TIP3   OH235495   4.746   1.106  10.470  0.4492  0.2495 -0.3674
 3767TIP3    H135496   4.768   1.194  10.438 -3.2935  1.4518 -0.1640
 3767TIP3    H235497   4.713   1.060  10.393 -0.9411  0.3056  0.1674
 3768TIP3   OH235498   0.411   3.396   9.104  0.2567 -0.3052 -0.1852
 3768TIP3    H135499   0.394   3.355   9.019  0.9354  1.2798 -1.1201
 3768TIP3    H235500   0.407   3.323   9.166 -1.6902 -1.2925 -1.3500
 3769TIP3   OH235501   0.160   0.070  10.072  0.2409  0.1251 -0.1411
 3769TIP3    H135502   0.140   0.163  10.088 -0.2103  0.0011  0.0317
 3769TIP3    H235503   0.112   0.049   9.992  0.2874  0.0222 -0.1416
 3770TIP3   OH235504   1.923   5.799  11.387 -0.7559  0.1131 -0.4793
 3770TIP3    H135505   1.857   5.865  11.408 -0.9591 -0.3807  0.4612
 3770TIP3    H235506   2.006   5.847  11.389 -0.9727  0.4912 -0.5082
 3771TIP3   OH235507   1.976   4.059  10.862  0.5357  0.4009  0.0823
 3771TIP3    H135508   1.888   4.079  10.893 -0.1414 -1.8785 -0.1556
 3771TIP3    H235509   1.963   3.994  10.793  2.4105  0.0028  0.0353
 3772TIP3   OH235510   6.505   4.560  11.852 -0.3307  0.2695 -0.5506
 3772TIP3    H135511   6.480   4.468  11.847 -1.2717  0.5671 -1.5832
 3772TIP3    H235512   6.601   4.558  11.848 -0.3416 -0.6605 -0.7210
 3773TIP3   OH235513   5.253   2.063  10.627 -0.0164  0.4726 -0.1023
 3773TIP3    H135514   5.289   1.977  10.646 -0.2339  0.1834 -0.9532
 3773TIP3    H235515   5.166   2.062  10.665 -0.5455 -0.1922 -1.2788
 3774TIP3   OH235516   6.820   4.808   8.938 -0.2682 -0.1033  0.4744
 3774TIP3    H135517   6.804   4.890   8.984 -1.0228 -0.2554  0.4975
 3774TIP3    H235518   6.908   4.782   8.965  0.0169  0.7504  0.3771
 3775TIP3   OH235519   3.606   5.737  11.428 -0.7900 -0.0630  0.3814
 3775TIP3    H135520   3.666   5.692  11.487 -2.0541 -0.3645  1.4847
 3775TIP3    H235521   3.654   5.816  11.402  0.1536 -0.3788  1.0771
 3776TIP3   OH235522   1.861   3.200   9.801  0.3731  0.4198  0.3866
 3776TIP3    H135523   1.911   3.149   9.865  0.3196 -0.1803 -0.0383
 3776TIP3    H235524   1.849   3.140   9.727 -1.7536  0.2245  0.8238
 3777TIP3   OH235525   6.717   4.494  10.891  0.3596 -0.1989 -0.0055
 3777TIP3    H135526   6.759   4.575  10.862 -0.5519 -0.4678 -2.2660
 3777TIP3    H235527   6.628   4.500  10.857 -0.3152 -1.3099  1.4574
 3778TIP3   OH235528   1.927   4.373  11.259  0.0949  0.1165  0.1205
 3778TIP3    H135529   1.865   4.431  11.303 -0.2947  0.6594 -1.1130
 3778TIP3    H235530   1.993   4.431  11.222 -0.6827 -0.1203 -1.7399
 3779TIP3   OH235531   6.344   3.983  10.460  0.4615 -0.2367  0.0920
 3779TIP3    H135532   6.415   4.017  10.515 -0.7224  0.7991  1.0513
 3779TIP3    H235533   6.313   4.059  10.411  0.4627 -0.8258 -0.8383
 3780TIP3   OH235534   2.508   4.364  10.575 -0.2402 -0.0219 -0.0047
 3780TIP3    H135535   2.564   4.337  10.647  0.2466  0.8175 -0.0496
 3780TIP3    H235536   2.527   4.302  10.505  0.9348  0.4768 -0.1513
 3781TIP3   OH235537   6.223   0.468  11.883  0.0070  0.2619 -0.3470
 3781TIP3    H135538   6.251   0.420  11.804  0.4058  0.8564 -0.5714
 3781TIP3    H235539   6.253   0.413  11.955 -0.5495 -0.3974 -0.6060
 3782TIP3   OH235540   2.597   5.953   9.998 -0.3495 -0.3023  0.0644
 3782TIP3    H135541   2.510   5.981  10.024 -1.4311 -3.0081 -0.3546
 3782TIP3    H235542   2.589   5.932   9.905  0.2566 -2.1682  0.3934
 3783TIP3   OH235543   0.931   4.286  10.068 -0.4068 -0.3993 -0.4734
 3783TIP3    H135544   0.840   4.293  10.097 -0.7114  1.4175 -1.6927
 3783TIP3    H235545   0.976   4.243  10.141 -1.6838  1.2725  1.4156
 3784TIP3   OH235546   4.848   2.112  10.660 -0.1547 -0.0186  0.0332
 3784TIP3    H135547   4.924   2.142  10.709 -1.8374 -0.2915  3.0279
 3784TIP3    H235548   4.792   2.190  10.654 -0.5544 -0.3278 -0.2847
 3785TIP3   OH235549   5.035   3.280   9.090  0.0627 -0.2072 -0.2286
 3785TIP3    H135550   4.949   3.243   9.110 -0.7801  1.4931 -0.4569
 3785TIP3    H235551   5.054   3.253   9.001 -0.4680 -0.1934 -0.3461
 3786TIP3   OH235552   5.903   3.596   9.693 -0.4174 -0.2862  0.0959
 3786TIP3    H135553   5.811   3.587   9.667 -0.6672  0.6010  0.5970
 3786TIP3    H235554   5.943   3.645   9.622 -0.9266  1.4785  0.9533
 3787TIP3   OH235555   5.551   1.133  11.296 -0.0263  0.7632  0.0625
 3787TIP3    H135556   5.593   1.090  11.370  0.1064  2.6757  1.1951
 3787TIP3    H235557   5.524   1.062  11.238 -1.7706 -1.0197  2.7995
 3788TIP3   OH235558   1.999   1.328   9.048  0.1319  0.3806  0.1308
 3788TIP3    H135559   2.018   1.238   9.019  1.1155  0.8580 -0.7981
 3788TIP3    H235560   1.923   1.319   9.105  1.1100 -1.2505  1.2860
 3789TIP3   OH235561   1.640   0.833  11.311  0.3005 -0.2497  0.4679
 3789TIP3    H135562   1.701   0.856  11.381  0.7729  0.2605 -0.0996
 3789TIP3    H235563   1.692   0.782  11.249  0.1102  0.0153  0.0801
 3790TIP3   OH235564   5.561   1.663  11.383  0.4672 -0.3187 -0.1836
 3790TIP3    H135565   5.500   1.598  11.347 -0.5886  0.9858 -0.8137
 3790TIP3    H235566   5.634   1.664  11.321  1.4245 -2.2388  0.8302
 3791TIP3   OH235567   2.277   6.477  11.489  0.1265  0.0280  0.7478
 3791TIP3    H135568   2.356   6.495  11.437 -0.8612 -2.5416 -1.9781
 3791TIP3    H235569   2.204   6.498  11.431 -1.1017 -1.2247  1.7433
 3792TIP3   OH235570   3.257   2.517   9.082 -0.1555 -0.3471  0.0789
 3792TIP3    H135571   3.333   2.488   9.032  0.9142  0.5795  1.0941
 3792TIP3    H235572   3.187   2.525   9.018  1.0841  0.4948 -1.2362
 3793TIP3   OH235573   3.063   4.321  11.411 -0.0634  0.4433  0.5235
 3793TIP3    H135574   2.976   4.345  11.380  0.7002 -0.4434 -2.6314
 3793TIP3    H235575   3.068   4.226  11.403  1.9124  0.6436 -1.6920
 3794TIP3   OH235576   5.506   3.818  10.092  0.4360 -0.0874  0.1102
 3794TIP3    H135577   5.542   3.733  10.068 -2.1332 -1.1224 -0.4753
 3794TIP3    H235578   5.522   3.873  10.016  1.0718 -0.3922  0.0159
 3795TIP3   OH235579   2.130   2.508  11.412  0.2899  0.1464 -0.0413
 3795TIP3    H135580   2.170   2.500  11.325  0.4451 -0.2689  0.0668
 3795TIP3    H235581   2.204   2.510  11.473  0.2303  1.5131  0.0204
 3796TIP3   OH235582   2.530   1.467  10.236  0.1750  0.5650 -0.4163
 3796TIP3    H135583   2.614   1.443  10.199  0.2811  0.1202  0.1053
 3796TIP3    H235584   2.541   1.457  10.330 -0.8704 -0.8912 -0.4052
 3797TIP3   OH235585   2.252   5.754   9.770  0.0077  0.1096 -0.5651
 3797TIP3    H135586   2.271   5.706   9.851  0.8892  0.1843 -0.7133
 3797TIP3    H235587   2.226   5.841   9.800 -0.3888 -0.0830 -0.3403
 3798TIP3   OH235588   5.058   4.250   9.334  0.8006 -0.3410  0.4875
 3798TIP3    H135589   5.048   4.189   9.407  0.5727  1.6471  2.2009
 3798TIP3    H235590   5.072   4.193   9.258 -2.9705 -2.7043  1.2684
 3799TIP3   OH235591   1.895   4.812   9.009  0.0401  0.2359  0.1091
 3799TIP3    H135592   1.983   4.789   8.980  0.7403  0.2184  2.0400
 3799TIP3    H235593   1.847   4.830   8.929  1.5867 -0.4932 -1.0465
 3800TIP3   OH235594   5.642   3.532   9.648  0.4762  0.0832 -0.3077
 3800TIP3    H135595   5.579   3.518   9.719  0.5268  1.6788  0.1001
 3800TIP3    H235596   5.615   3.472   9.579 -1.8983  1.1407 -0.3936
 3801TIP3   OH235597   4.752   3.734   9.565 -0.2532  0.5281 -0.2626
 3801TIP3    H135598   4.832   3.757   9.613  2.2230 -3.3566 -1.9867
 3801TIP3    H235599   4.741   3.805   9.502  0.1169  2.5189  1.7788
 3802TIP3   OH235600   2.644   4.264  11.617 -0.3391  0.1424 -0.0810
 3802TIP3    H135601   2.697   4.339  11.644 -0.5171  0.4396 -0.5413
 3802TIP3    H235602   2.617   4.285  11.527  0.8916 -1.1788 -0.7975
 3803TIP3   OH235603   4.615   4.436  10.496  0.1243 -0.2286  0.0747
 3803TIP3    H135604   4.683   4.415  10.559  0.8813  1.4611 -0.1203
 3803TIP3    H235605   4.620   4.365  10.431 -1.8601 -3.0132  2.6668
 3804TIP3   OH235606   5.654   6.770  10.766 -0.5431  0.1154  0.4327
 3804TIP3    H135607   5.730   6.727  10.806  1.2198  1.5454 -1.1726
 3804TIP3    H235608   5.692   6.833  10.705 -3.0519 -0.1228 -1.5306
 3805TIP3   OH235609   2.790   4.029  10.188 -0.3900  0.0076 -0.3955
 3805TIP3    H135610   2.718   4.087  10.163  0.1946  0.5989 -0.7153
 3805TIP3    H235611   2.856   4.041  10.120  0.6804  0.6543  0.7242
 3806TIP3   OH235612   4.042   5.846   8.816  0.0739 -0.0354  0.5682
 3806TIP3    H135613   4.070   5.930   8.852  0.5022  0.6672 -1.2691
 3806TIP3    H235614   3.962   5.865   8.767  1.7252  0.0238 -2.3675
 3807TIP3   OH235615   2.519   5.499   8.901 -0.1752  0.2990 -0.4387
 3807TIP3    H135616   2.579   5.572   8.919 -0.0259  0.3016 -0.9479
 3807TIP3    H235617   2.566   5.421   8.932  0.6883  0.1265 -2.0610
 3808TIP3   OH235618   2.636   0.976  11.763 -0.2431  0.6221  0.0637
 3808TIP3    H135619   2.640   0.882  11.742  0.6812  0.0826  2.3929
 3808TIP3    H235620   2.667   1.019  11.683 -0.1728 -1.0816 -0.8714
 3809TIP3   OH235621   4.854   3.194   9.383  0.4192  0.3740 -0.1547
 3809TIP3    H135622   4.835   3.119   9.438 -2.2574  1.0661 -0.0213
 3809TIP3    H235623   4.832   3.165   9.294  0.0806  0.7733 -0.2023
 3810TIP3   OH235624   3.257   0.854   9.379 -0.1840  0.3425  0.4294
 3810TIP3    H135625   3.294   0.852   9.467 -0.1504 -0.5620  0.4084
 3810TIP3    H235626   3.237   0.762   9.360  1.6473  0.2465 -1.2856
 3811TIP3   OH235627   1.744   4.901  11.741  0.2008 -0.8798  0.0867
 3811TIP3    H135628   1.720   4.966  11.808 -0.3696 -0.1875 -0.7745
 3811TIP3    H235629   1.709   4.936  11.660 -0.2399 -2.3400 -0.3841
 3812TIP3   OH235630   4.042   6.701  11.899  0.4102 -0.0577  0.1987
 3812TIP3    H135631   4.094   6.767  11.945 -0.8177  0.5864  0.7057
 3812TIP3    H235632   3.952   6.718  11.926 -0.0335 -1.4051 -0.3359
 3813TIP3   OH235633   6.413   0.997  10.898 -0.1240 -0.0036  0.3697
 3813TIP3    H135634   6.343   0.939  10.868 -1.4472  2.0929 -0.8201
 3813TIP3    H235635   6.472   1.004  10.823 -1.4544  2.2919 -0.5590
 3814TIP3   OH235636   3.553   6.450   8.839 -0.2388 -0.7221  0.6056
 3814TIP3    H135637   3.612   6.414   8.905 -0.7212 -0.2531  1.2940
 3814TIP3    H235638   3.611   6.498   8.780 -0.0218  0.6552  1.8839
 3815TIP3   OH235639   4.762   2.658  11.568  0.3834  0.2545  0.0800
 3815TIP3    H135640   4.773   2.743  11.525  0.8817 -0.0856 -0.4637
 3815TIP3    H235641   4.780   2.594  11.500 -2.1687 -0.3452 -0.1216
 3816TIP3   OH235642   1.045   5.776  11.864 -0.1746 -0.3078  0.0908
 3816TIP3    H135643   1.074   5.867  11.857  0.3429 -0.4821 -0.1253
 3816TIP3    H235644   1.114   5.733  11.915 -1.8914  0.0557  2.8694
 3817TIP3   OH235645   3.973   4.387  11.546  0.6702 -0.2272 -0.3235
 3817TIP3    H135646   3.991   4.378  11.452  0.8971  0.5223 -0.3620
 3817TIP3    H235647   4.045   4.342  11.589  0.2835 -1.0438 -0.5020
 3818TIP3   OH235648   6.769   5.091   8.495 -0.6187  0.2218 -0.2906
 3818TIP3    H135649   6.828   5.153   8.453 -1.1130  0.2884 -0.9024
 3818TIP3    H235650   6.681   5.120   8.471 -1.0003  0.9369  1.7178
 3819TIP3   OH235651   6.013   5.178  10.361 -0.3924  0.3444  0.0216
 3819TIP3    H135652   6.011   5.263  10.318  2.7854  0.4975 -0.0141
 3819TIP3    H235653   5.989   5.196  10.452 -0.1868  1.2106 -0.0933
 3820TIP3   OH235654   4.367   2.056   9.973  0.1058  0.1578 -0.1256
 3820TIP3    H135655   4.300   2.123   9.987  2.0422  2.0828  0.5819
 3820TIP3    H235656   4.449   2.098  10.002  1.5197 -2.3093 -0.2738
 3821TIP3   OH235657   5.133   3.353  10.108  0.2915  0.6699  0.4820
 3821TIP3    H135658   5.205   3.407  10.142  1.3405 -1.1630  1.3397
 3821TIP3    H235659   5.090   3.318  10.186  0.2886 -0.5402 -0.0438
 3822TIP3   OH235660   1.675   2.004   8.266 -0.7503 -0.6618 -0.2005
 3822TIP3    H135661   1.763   2.009   8.230  0.2478 -1.5726  1.9340
 3822TIP3    H235662   1.618   1.992   8.190  0.9508 -0.1443 -1.6132
 3823TIP3   OH235663   2.282   0.898  10.519  0.0085 -0.2594  0.4445
 3823TIP3    H135664   2.326   0.983  10.516 -2.3137  1.0001 -1.4304
 3823TIP3    H235665   2.299   0.859  10.434 -0.4131 -0.8643  0.6304
 3824TIP3   OH235666   1.702   3.521  11.129 -0.1188  0.8899  0.2107
 3824TIP3    H135667   1.621   3.519  11.181 -0.4259  0.9317 -0.2574
 3824TIP3    H235668   1.692   3.597  11.072  0.0793  0.6710 -0.1184
 3825TIP3   OH235669   4.491   6.532  10.453 -0.5597 -0.5130  0.0863
 3825TIP3    H135670   4.439   6.456  10.476 -1.5248  0.5514  1.6291
 3825TIP3    H235671   4.449   6.567  10.374  1.0874 -2.6195 -1.8511
 3826TIP3   OH235672   4.296   3.526   9.053  0.6199 -0.0982 -0.7387
 3826TIP3    H135673   4.229   3.491   8.994 -2.2581 -1.0672  2.7527
 3826TIP3    H235674   4.263   3.612   9.078  1.4649  0.0694 -0.1815
 3827TIP3   OH235675   5.644   0.055   9.455  0.1764  0.6615  0.3675
 3827TIP3    H135676   5.659   0.070   9.548 -0.4094 -1.1089  0.8069
 3827TIP3    H235677   5.570  -0.006   9.453  0.0854  0.7770 -1.2682
 3828TIP3   OH235678   0.034   3.042   9.872  0.8292  0.7303  0.1925
 3828TIP3    H135679  -0.046   3.074   9.830 -0.1102 -1.1084  0.4275
 3828TIP3    H235680   0.077   2.990   9.804  0.1952 -0.8188  0.9080
 3829TIP3   OH235681   4.559   3.687   9.993  0.0070 -0.2296  0.3704
 3829TIP3    H135682   4.539   3.637   9.914  0.0057  0.4756 -0.0828
 3829TIP3    H235683   4.525   3.633  10.065 -0.7927 -0.4631 -0.1736
 3830TIP3   OH235684   5.683   0.784  12.020  0.4430  0.0179  0.5168
 3830TIP3    H135685   5.716   0.699  11.993  0.3435  0.4332 -0.9927
 3830TIP3    H235686   5.592   0.786  11.989  0.8789  1.2199 -0.7954
 3831TIP3   OH235687   3.971   3.181   8.448  0.2860 -0.4405  0.1194
 3831TIP3    H135688   3.957   3.246   8.516 -1.4809 -0.6946  0.0365
 3831TIP3    H235689   3.913   3.109   8.471 -0.2073 -0.6097 -1.5511
 3832TIP3   OH235690   6.083   1.987  10.999  0.4848  0.5124 -0.0620
 3832TIP3    H135691   6.141   1.934  10.944  0.2497 -0.0298  0.2005
 3832TIP3    H235692   6.038   2.045  10.938 -2.8628 -2.8174 -1.1753
 3833TIP3   OH235693   3.623   5.445   9.453 -0.1526  0.8879  0.2498
 3833TIP3    H135694   3.535   5.413   9.471  0.3752 -0.5599  0.4012
 3833TIP3    H235695   3.681   5.384   9.498  1.0272  0.3906 -1.8106
 3834TIP3   OH235696   4.114   3.538   9.308 -0.2195 -0.3842 -0.0180
 3834TIP3    H135697   4.188   3.543   9.246  1.7555  0.5312  2.2683
 3834TIP3    H235698   4.119   3.619   9.359 -2.2109 -0.7778  0.9079
 3835TIP3   OH235699   5.604   4.774   9.964  0.0288 -0.1475 -0.0029
 3835TIP3    H135700   5.619   4.716  10.039  0.7715  1.0329  0.7780
 3835TIP3    H235701   5.689   4.812   9.944 -0.6845  1.8170  0.4611
 3836TIP3   OH235702   0.229   3.747  10.967  0.2011  0.0391  0.8312
 3836TIP3    H135703   0.208   3.829  10.922 -2.8525  0.2910  2.4873
 3836TIP3    H235704   0.216   3.679  10.901 -0.3279  0.6567  0.2860
 3837TIP3   OH235705   5.216   2.746  11.321  0.3311 -0.1619 -0.2008
 3837TIP3    H135706   5.293   2.693  11.339  0.1126 -0.8516 -1.2292
 3837TIP3    H235707   5.239   2.795  11.242 -0.0847  0.0223 -0.2089
 3838TIP3   OH235708   2.628   2.007  10.901  0.2168  0.3424  0.1942
 3838TIP3    H135709   2.671   2.058  10.833  0.3219  0.0544  0.0455
 3838TIP3    H235710   2.536   2.008  10.877  0.2368  0.3457  0.1185
 3839TIP3   OH235711   3.255   0.177   9.483  0.3536 -0.2928 -0.8655
 3839TIP3    H135712   3.261   0.272   9.479 -2.3650 -0.0605 -1.9554
 3839TIP3    H235713   3.343   0.148   9.505  1.1118  2.4910  0.2185
 3840TIP3   OH235714   2.613   1.768  11.004  0.1691  0.1893  0.0386
 3840TIP3    H135715   2.613   1.857  10.968 -1.6864  0.5197  0.7187
 3840TIP3    H235716   2.678   1.769  11.073  1.4884  0.4630 -1.1711
 3841TIP3   OH235717   4.012   1.289  10.468 -0.3512 -0.2291  0.1565
 3841TIP3    H135718   4.030   1.218  10.530  1.4370  0.8885  1.0138
 3841TIP3    H235719   4.064   1.267  10.391 -0.6178 -0.3607  0.0122
 3842TIP3   OH235720   4.299   3.855  11.325 -0.5416  0.3203  0.3260
 3842TIP3    H135721   4.233   3.866  11.393  0.1179 -1.3953  1.2972
 3842TIP3    H235722   4.382   3.880  11.367 -0.1125 -0.8748  0.2163
 3843TIP3   OH235723   0.417   6.389  11.750 -0.0478  0.2882  0.4299
 3843TIP3    H135724   0.334   6.416  11.711  0.2028 -0.1934 -0.4643
 3843TIP3    H235725   0.457   6.470  11.781  0.2111  0.8366 -1.2596
 3844TIP3   OH235726   1.708   1.528  10.521 -0.2592  0.5208  0.3377
 3844TIP3    H135727   1.740   1.536  10.611 -3.4933  1.2462  1.5635
 3844TIP3    H235728   1.728   1.613  10.481  0.9505  0.2927  0.4252
 3845TIP3   OH235729   3.644   5.925   8.410  0.0548  0.1208  0.1640
 3845TIP3    H135730   3.629   5.830   8.405  1.3769 -0.1002  0.0090
 3845TIP3    H235731   3.590   5.953   8.484 -0.6628 -0.6855 -0.0356
 3846TIP3   OH235732   2.216   3.086   9.923 -0.8045 -0.6331  0.4996
 3846TIP3    H135733   2.197   3.121   9.836  0.1232 -0.0752  0.4977
 3846TIP3    H235734   2.283   3.146   9.958  0.0000 -1.7617  0.9541
 3847TIP3   OH235735   2.961   3.354   8.194 -0.4734 -0.8429  0.1871
 3847TIP3    H135736   3.047   3.318   8.175 -0.6052 -0.3409 -1.4698
 3847TIP3    H235737   2.921   3.290   8.253  0.6012 -1.6510  0.0595
 3848TIP3   OH235738   1.207   2.479  11.598 -0.5111 -0.5885  0.3650
 3848TIP3    H135739   1.206   2.521  11.684 -1.0427 -1.8318  0.9924
 3848TIP3    H235740   1.299   2.456  11.585 -0.1376  1.0889 -0.1768
 3849TIP3   OH235741   3.911   1.785  10.740  0.0923  0.8982 -0.0930
 3849TIP3    H135742   3.821   1.772  10.769  0.4097  0.1795  0.6257
 3849TIP3    H235743   3.964   1.735  10.804  1.0162  1.6152 -0.2787
 3850TIP3   OH235744   0.266   1.617  10.432 -0.1720 -0.6099 -0.2320
 3850TIP3    H135745   0.271   1.680  10.504 -0.6549  0.2446 -0.9098
 3850TIP3    H235746   0.217   1.664  10.364 -0.5588 -1.7367 -0.7551
 3851TIP3   OH235747   3.256   3.653   8.636  0.3127  0.0598 -0.1419
 3851TIP3    H135748   3.259   3.557   8.635  1.4744  0.0784  0.4620
 3851TIP3    H235749   3.304   3.679   8.558 -0.9789  0.1668 -0.9416
 3852TIP3   OH235750   6.192   5.782   9.243 -0.2268 -0.2136  0.0989
 3852TIP3    H135751   6.206   5.876   9.240 -1.8435  0.0816  0.7587
 3852TIP3    H235752   6.276   5.746   9.270  0.2827  1.0729  0.3016
 3853TIP3   OH235753   2.081   5.081   9.566 -0.3464  0.0806 -0.0966
 3853TIP3    H135754   2.013   5.061   9.630  1.1975  0.8988  1.9104
 3853TIP3    H235755   2.109   5.170   9.587  1.1830 -0.1391 -1.0063
 3854TIP3   OH235756   2.501   3.433  11.693  0.5497 -0.4265  0.2733
 3854TIP3    H135757   2.589   3.462  11.670 -0.0623  1.8295  0.4933
 3854TIP3    H235758   2.459   3.511  11.730 -1.4936 -1.4725  0.3231
 3855TIP3   OH235759   5.333   5.564   9.087 -0.0207  0.0727 -0.3282
 3855TIP3    H135760   5.378   5.647   9.097  0.1446 -0.2052  1.5583
 3855TIP3    H235761   5.250   5.575   9.134 -0.6947 -0.3232 -1.3978
 3856TIP3   OH235762   1.553   1.212  10.811  0.7796  0.0175  0.1107
 3856TIP3    H135763   1.633   1.178  10.771  1.0388  0.1230  0.5381
 3856TIP3    H235764   1.546   1.301  10.777 -0.5273 -0.7948 -1.9416
 3857TIP3   OH235765   4.713   5.555  10.994  0.4198  0.2969  0.0890
 3857TIP3    H135766   4.780   5.494  11.026  1.6849  0.9694 -1.1604
 3857TIP3    H235767   4.651   5.562  11.066  0.8633 -1.5508  0.7124
 3858TIP3   OH235768   6.172   3.868  11.709 -0.3078 -0.5280  0.2787
 3858TIP3    H135769   6.245   3.928  11.720 -1.5708  1.1606 -0.1287
 3858TIP3    H235770   6.138   3.855  11.798  0.5558 -1.4598  0.4917
 3859TIP3   OH235771   1.178   2.293  10.242 -0.2863 -0.4825  0.2196
 3859TIP3    H135772   1.178   2.386  10.221 -0.3728 -0.3432  0.8347
 3859TIP3    H235773   1.087   2.272  10.263  0.0545 -0.2400  2.0860
 3860TIP3   OH235774   4.893   2.304  11.180 -0.1877 -0.3250  0.3257
 3860TIP3    H135775   4.806   2.331  11.209 -0.0034  0.2988  0.3094
 3860TIP3    H235776   4.938   2.385  11.160  0.2086 -0.6753 -0.2280
 3861TIP3   OH235777   2.641   0.332  11.012 -0.1748  0.1391  0.2460
 3861TIP3    H135778   2.662   0.308  10.921  0.1687  0.3891  0.2565
 3861TIP3    H235779   2.598   0.254  11.048  1.2699 -0.6183  0.4018
 3862TIP3   OH235780   5.660   3.988  11.130  0.1959 -0.0910  0.1365
 3862TIP3    H135781   5.585   3.967  11.075 -0.1228  0.4401  0.3701
 3862TIP3    H235782   5.671   4.083  11.122  0.4681 -0.0823  0.5808
 3863TIP3   OH235783   6.583   1.770   9.416 -0.3183  0.0746 -0.2277
 3863TIP3    H135784   6.576   1.744   9.508  0.3498  2.8498  0.7040
 3863TIP3    H235785   6.551   1.860   9.415  2.4272  1.1356 -2.1453
 3864TIP3   OH235786   4.634   1.205  11.064 -0.1354 -0.0371  0.2909
 3864TIP3    H135787   4.636   1.271  11.133 -0.7342 -0.1620  0.4372
 3864TIP3    H235788   4.570   1.140  11.095  0.9342 -1.0422  0.4761
 3865TIP3   OH235789   4.991   6.116   7.915 -0.0325  0.4042  0.5266
 3865TIP3    H135790   4.897   6.125   7.930 -0.1955 -0.2609 -0.0515
 3865TIP3    H235791   4.998   6.071   7.830  0.8094  1.9028 -0.2519
 3866TIP3   OH235792   5.038   3.581  11.189 -0.0827  0.0140 -0.0199
 3866TIP3    H135793   5.010   3.672  11.182  0.0038  0.0348 -0.1067
 3866TIP3    H235794   4.998   3.549  11.270  0.3073  0.2830  0.2835
 3867TIP3   OH235795   3.527   5.715  11.166  0.1739  0.2481  0.5123
 3867TIP3    H135796   3.483   5.800  11.158 -0.9429 -0.3527 -0.0881
 3867TIP3    H235797   3.544   5.706  11.260 -1.4588  0.3125  0.8533
 3868TIP3   OH235798   4.743   2.892  11.429  0.1963  0.2897  0.1841
 3868TIP3    H135799   4.749   2.868  11.337  1.4679  0.9836  0.0578
 3868TIP3    H235800   4.653   2.923  11.441  0.1262  0.5310 -0.9088
 3869TIP3   OH235801   0.243   4.260  10.734  0.4842 -0.0413 -0.2344
 3869TIP3    H135802   0.184   4.284  10.806  0.2125 -1.4109  0.0383
 3869TIP3    H235803   0.203   4.181  10.697  1.8796 -0.7079 -0.3728
 3870TIP3   OH235804   0.291   3.023   9.377  0.2817  0.0892  0.0247
 3870TIP3    H135805   0.319   3.063   9.295 -1.6225 -0.6476 -1.0474
 3870TIP3    H235806   0.231   2.953   9.350  0.6692 -1.0753  1.9920
 3871TIP3   OH235807   0.235   2.327   9.481  0.2154 -0.2044  0.2245
 3871TIP3    H135808   0.294   2.259   9.449  1.5024  1.1936 -0.5235
 3871TIP3    H235809   0.208   2.297   9.568 -1.3894 -2.9085 -1.0757
 3872TIP3   OH235810   3.493   1.820  10.599 -0.2155  0.4892  0.4330
 3872TIP3    H135811   3.515   1.828  10.692 -0.8847 -1.6863  0.8485
 3872TIP3    H235812   3.455   1.905  10.576 -1.0035  0.7402  2.4372
 3873TIP3   OH235813   5.761   4.172   8.454  0.3400 -0.3734 -0.1010
 3873TIP3    H135814   5.753   4.266   8.435  0.8602 -0.2834  0.1093
 3873TIP3    H235815   5.695   4.131   8.399 -0.5426  0.2009  0.4892
 3874TIP3   OH235816   1.383   5.132  11.351  0.7784  0.1074 -0.4357
 3874TIP3    H135817   1.380   5.042  11.382  0.7794  0.1009 -0.4554
 3874TIP3    H235818   1.465   5.138  11.303  1.6391  0.5867  1.0260
 3875TIP3   OH235819   3.190   1.788  10.267  0.1277  0.3289 -0.4804
 3875TIP3    H135820   3.268   1.830  10.231  0.0741  1.0935  0.2703
 3875TIP3    H235821   3.223   1.732  10.337 -0.0339  0.9647  0.1068
 3876TIP3   OH235822   1.847   5.750   8.964  0.1658 -0.9657  0.6067
 3876TIP3    H135823   1.807   5.734   8.878 -0.0659 -0.7432  0.6725
 3876TIP3    H235824   1.939   5.766   8.945 -0.0742  0.0981  0.2981
 3877TIP3   OH235825   0.230   3.123  10.051 -0.4761 -0.4340 -0.0010
 3877TIP3    H135826   0.301   3.133   9.987  0.0958  1.7974  0.8753
 3877TIP3    H235827   0.154   3.097   9.999  0.6575 -1.5473 -1.1508
 3878TIP3   OH235828   4.108   3.324  11.102 -0.2525 -0.1394  0.1461
 3878TIP3    H135829   4.046   3.352  11.169 -0.0278  0.1892  0.2158
 3878TIP3    H235830   4.056   3.321  11.021 -0.4969 -0.4322  0.3112
 3879TIP3   OH235831   4.530   5.268   9.795 -0.4956  0.4544 -0.5573
 3879TIP3    H135832   4.552   5.347   9.845 -0.5887 -1.9418  3.7546
 3879TIP3    H235833   4.441   5.245   9.823 -0.1233 -1.6537 -0.9163
 3880TIP3   OH235834   3.765   6.822  11.987 -0.4589 -0.3670  0.5680
 3880TIP3    H135835   3.763   6.727  11.995 -2.1734 -0.3578  0.7777
 3880TIP3    H235836   3.682   6.843  11.943  0.0093  1.0162  0.2996
 3881TIP3   OH235837   1.707   5.385  11.140  0.1533  0.1949 -0.3990
 3881TIP3    H135838   1.682   5.395  11.232 -0.7147 -0.7620 -0.5007
 3881TIP3    H235839   1.795   5.422  11.134 -0.0517  0.8976  0.6646
 3882TIP3   OH235840   6.271   0.698  10.710 -0.1586 -0.6114 -0.0236
 3882TIP3    H135841   6.258   0.688  10.805  1.7356  1.3740  0.5373
 3882TIP3    H235842   6.185   0.723  10.677 -0.2930  1.4678  1.6697
 3883TIP3   OH235843   3.873   2.245   9.993  0.0768 -0.4460 -0.4753
 3883TIP3    H135844   3.798   2.252  10.053  1.5582  0.2336  1.3830
 3883TIP3    H235845   3.890   2.151   9.986 -1.5852 -0.6967 -1.8083
 3884TIP3   OH235846   4.935   3.573   8.607 -0.4001  0.0498 -0.0088
 3884TIP3    H135847   4.935   3.491   8.557 -0.9389 -0.7157  1.1933
 3884TIP3    H235848   5.015   3.570   8.659 -0.8076 -0.1052  0.6249
 3885TIP3   OH235849   2.467   5.082   9.325 -0.5181 -0.5111 -0.1326
 3885TIP3    H135850   2.544   5.027   9.339 -1.6882 -1.8749  1.2565
 3885TIP3    H235851   2.503   5.170   9.312  1.3009 -1.2443 -0.3979
 3886TIP3   OH235852   6.727   3.442   9.815 -0.5736  0.1328 -0.3160
 3886TIP3    H135853   6.655   3.502   9.831 -0.3443  0.6601 -1.2333
 3886TIP3    H235854   6.800   3.498   9.787 -0.6248 -0.6253 -2.0855
 3887TIP3   OH235855   6.396   3.458  11.454 -0.3297  0.2207  0.0904
 3887TIP3    H135856   6.406   3.369  11.422 -2.1034 -0.4537  1.2784
 3887TIP3    H235857   6.313   3.487  11.415 -0.2119  1.0374  0.4356
 3888TIP3   OH235858   4.444   5.583   9.176  0.1939  0.6808 -0.1244
 3888TIP3    H135859   4.443   5.618   9.265  1.6898  2.4914 -0.7374
 3888TIP3    H235860   4.397   5.649   9.125 -0.6430 -0.3409 -0.6889
 3889TIP3   OH235861   3.251   6.233  10.308 -0.6799  0.2348 -0.0308
 3889TIP3    H135862   3.237   6.300  10.241 -1.9483 -0.4234 -0.4503
 3889TIP3    H235863   3.345   6.218  10.307 -0.4206  1.6584 -0.2611
 3890TIP3   OH235864   1.318   6.816   9.648 -0.8494 -0.2169  0.2261
 3890TIP3    H135865   1.374   6.743   9.621 -0.2401  0.5186 -0.5367
 3890TIP3    H235866   1.232   6.793   9.615 -0.1612  0.5840 -2.2983
 3891TIP3   OH235867   2.802   0.011   9.155 -0.2167 -0.1386 -0.1883
 3891TIP3    H135868   2.831   0.102   9.162 -0.2906 -0.1320  0.0285
 3891TIP3    H235869   2.777  -0.014   9.244  0.0051 -0.4388 -0.2061
 3892TIP3   OH235870   4.902   1.724  10.307 -0.4307 -0.4729 -1.0697
 3892TIP3    H135871   4.874   1.811  10.336  0.9418 -0.2642 -0.2508
 3892TIP3    H235872   4.822   1.673  10.304 -1.0534  0.3586  0.1823
 3893TIP3   OH235873   3.721   2.146  10.499  0.3345  0.0923 -0.2591
 3893TIP3    H135874   3.690   2.236  10.492 -2.6165 -0.7956  0.1687
 3893TIP3    H235875   3.720   2.127  10.593 -0.4026 -0.7681 -0.4220
 3894TIP3   OH235876   4.328   0.067  11.767 -0.1077  0.0518 -0.2339
 3894TIP3    H135877   4.417   0.038  11.747  0.1791  0.6595  0.1195
 3894TIP3    H235878   4.306   0.127  11.696  0.3496  1.0656  0.4493
 3895TIP3   OH235879   6.432   3.243  10.834 -0.2951 -0.2134 -0.1145
 3895TIP3    H135880   6.385   3.235  10.751  0.8070 -1.8050 -0.6425
 3895TIP3    H235881   6.524   3.234  10.809  0.1094  0.1629  1.1894
 3896TIP3   OH235882   4.448   4.236  11.000 -0.0193  0.1864 -0.5978
 3896TIP3    H135883   4.489   4.321  10.985  1.8546 -0.5678 -0.0781
 3896TIP3    H235884   4.494   4.200  11.076 -2.8128 -0.0666  1.1363
 3897TIP3   OH235885   0.010   0.877  11.428 -0.2950 -0.3495 -0.0145
 3897TIP3    H135886  -0.030   0.791  11.443  1.4192 -1.5436 -1.7057
 3897TIP3    H235887   0.066   0.891  11.504 -0.3863 -0.8631  0.1514
 3898TIP3   OH235888   5.194   5.810  10.335  0.1598  0.1830  0.5272
 3898TIP3    H135889   5.221   5.821  10.426  0.0930 -0.7706  0.6709
 3898TIP3    H235890   5.115   5.865  10.327 -1.0353 -1.2672  1.6182
 3899TIP3   OH235891   2.366   4.559  11.190  0.2452  0.2156 -0.3423
 3899TIP3    H135892   2.441   4.588  11.242 -1.0596 -0.2797  1.9221
 3899TIP3    H235893   2.340   4.637  11.141  1.9461  0.5018 -0.8722
 3900TIP3   OH235894   5.568   5.446   7.927 -0.4501 -0.6175  0.2867
 3900TIP3    H135895   5.598   5.405   7.846 -0.3918 -3.7278  1.7320
 3900TIP3    H235896   5.627   5.412   7.994 -1.2539  0.9024  1.8434
 3901TIP3   OH235897   2.383   5.069   8.361  0.1798 -0.6743  0.6422
 3901TIP3    H135898   2.370   5.113   8.445  1.4994  0.0630  0.4764
 3901TIP3    H235899   2.411   5.138   8.302  1.2600 -1.5420  0.1090
 3902TIP3   OH235900   1.614   3.693   9.305  0.3257  0.1789  0.2190
 3902TIP3    H135901   1.655   3.635   9.370 -1.6083 -3.3904 -1.4261
 3902TIP3    H235902   1.683   3.711   9.242  0.8652 -0.9590  0.4520
 3903TIP3   OH235903   3.057   0.389   9.092  0.1532 -0.7712  0.2155
 3903TIP3    H135904   3.064   0.484   9.084 -0.4770 -0.6349  1.1399
 3903TIP3    H235905   3.096   0.356   9.011 -0.1289  0.2906 -0.3867
 3904TIP3   OH235906   6.708   4.794  11.727  0.0925  0.6827  0.1560
 3904TIP3    H135907   6.764   4.783  11.803 -0.8317 -1.2717  0.6115
 3904TIP3    H235908   6.725   4.718  11.672 -1.5391  0.4052 -0.0338
 3905TIP3   OH235909   5.687   3.176   9.210 -0.2843  0.3414  0.2361
 3905TIP3    H135910   5.749   3.211   9.146 -0.5983 -0.2149 -0.3791
 3905TIP3    H235911   5.635   3.112   9.161 -0.9376  0.3544  0.8979
 3906TIP3   OH235912   1.239   2.483   9.578  0.8570 -0.5234  0.2459
 3906TIP3    H135913   1.161   2.531   9.554  3.0869  4.0759  1.1173
 3906TIP3    H235914   1.273   2.449   9.495 -0.1086  0.6992 -0.6793
 3907TIP3   OH235915   5.154   4.073   9.163  0.0677  0.6824 -0.3198
 3907TIP3    H135916   5.069   4.030   9.155 -1.2133  2.1999  3.2434
 3907TIP3    H235917   5.218   4.004   9.147 -1.8756 -1.8588  1.9825
 3908TIP3   OH235918   0.209   3.640  10.667  0.0992  0.1503 -0.4934
 3908TIP3    H135919   0.113   3.644  10.670 -0.0192 -1.7737  0.1847
 3908TIP3    H235920   0.230   3.647  10.574 -0.8650 -1.2171 -0.8560
 3909TIP3   OH235921   5.601   0.919   8.919  0.1736 -0.1232 -0.2740
 3909TIP3    H135922   5.679   0.975   8.914 -1.9396  3.2032  0.4445
 3909TIP3    H235923   5.601   0.870   8.837  3.1703 -0.5542 -0.1149
 3910TIP3   OH235924   5.461   0.250  10.193  0.2069  0.0110 -0.4618
 3910TIP3    H135925   5.500   0.301  10.264  1.4299 -0.9209 -0.4131
 3910TIP3    H235926   5.425   0.173  10.236  0.4426 -0.2774 -0.7700
 3911TIP3   OH235927   4.529   2.287  10.901 -0.4223 -0.6861 -0.2155
 3911TIP3    H135928   4.450   2.261  10.853 -1.1361 -0.6446  0.9077
 3911TIP3    H235929   4.543   2.378  10.878 -1.7394 -0.1670  0.9353
 3912TIP3   OH235930   2.095   0.306   9.732  0.0863  0.4896  0.3271
 3912TIP3    H135931   2.004   0.323   9.707  0.1588  1.6207  0.7454
 3912TIP3    H235932   2.090   0.274   9.822  0.1640  2.1594  0.9747
 3913TIP3   OH235933   1.601   1.657  11.280  0.5442  0.1414  0.0705
 3913TIP3    H135934   1.586   1.613  11.364 -2.7705  0.0662 -0.3966
 3913TIP3    H235935   1.600   1.750  11.301 -0.8445  0.1398  0.1064
 3914TIP3   OH235936   0.027   0.118  11.169 -0.0525  0.1047 -0.3644
 3914TIP3    H135937  -0.002   0.208  11.186 -0.9416 -0.6226  2.5009
 3914TIP3    H235938  -0.021   0.092  11.091  0.0159  2.0014 -1.0979
 3915TIP3   OH235939   4.408   5.336   9.277 -0.6047 -0.0915  0.4514
 3915TIP3    H135940   4.444   5.346   9.365 -0.8558 -1.3360  0.7092
 3915TIP3    H235941   4.425   5.420   9.235  2.0358 -0.3984  0.7465
 3916TIP3   OH235942   3.447   0.919  10.534  0.2457  0.1524  0.1848
 3916TIP3    H135943   3.362   0.887  10.503  0.9834 -0.8233 -0.9274
 3916TIP3    H235944   3.462   0.871  10.615  0.2428 -0.5489 -0.2192
 3917TIP3   OH235945   0.232   4.197  11.166 -0.1868  0.2072  0.0761
 3917TIP3    H135946   0.303   4.247  11.125 -0.7153 -0.5215 -1.8809
 3917TIP3    H235947   0.152   4.237  11.132 -0.6299 -1.7310 -1.3848
 3918TIP3   OH235948   5.814   1.350  10.557  0.2126  0.1875 -0.5028
 3918TIP3    H135949   5.876   1.419  10.582 -0.0153  0.2224 -0.0237
 3918TIP3    H235950   5.730   1.381  10.590 -0.2338  0.5706 -1.9390
 3919TIP3   OH235951   1.409   4.525   9.430  0.2214 -0.0671  0.2406
 3919TIP3    H135952   1.386   4.499   9.519 -0.3720 -1.2290 -0.2293
 3919TIP3    H235953   1.347   4.478   9.374 -0.3917  1.7706 -0.7352
 3920TIP3   OH235954   0.699   0.590  10.100 -0.6666 -0.2669  0.6140
 3920TIP3    H135955   0.751   0.587  10.180 -0.5467 -0.5371  0.5260
 3920TIP3    H235956   0.610   0.568  10.129 -0.9681  1.2825  0.9504
 3921TIP3   OH235957   0.838   2.434  10.643 -0.0441 -0.3098  0.2042
 3921TIP3    H135958   0.762   2.392  10.684 -0.6836 -0.8646 -1.4685
 3921TIP3    H235959   0.863   2.502  10.705 -1.2401 -0.8124  1.2980
 3922TIP3   OH235960   3.447   6.001   9.313  0.2412  0.5256 -0.5087
 3922TIP3    H135961   3.352   6.001   9.305  0.1268  0.0973  0.6785
 3922TIP3    H235962   3.478   5.982   9.225 -0.8264 -1.1973 -0.5578
 3923TIP3   OH235963   5.957   0.592  10.488 -0.3603 -0.0806 -0.0754
 3923TIP3    H135964   5.971   0.657  10.556  0.8495 -0.5461  0.1474
 3923TIP3    H235965   6.017   0.521  10.509  0.1414 -0.1873 -1.6899
 3924TIP3   OH235966   4.838   4.825   9.773 -0.0516 -0.0779 -0.0259
 3924TIP3    H135967   4.821   4.874   9.693 -1.0707 -0.4905 -0.0768
 3924TIP3    H235968   4.913   4.769   9.751  0.0266  0.2092 -0.5108
 3925TIP3   OH235969   5.041   1.380   9.001  0.2127  0.2145  0.3796
 3925TIP3    H135970   5.017   1.353   9.090  0.2860  0.4516  0.4707
 3925TIP3    H235971   5.029   1.475   9.001 -2.1203 -0.0001 -0.5457
 3926TIP3   OH235972   6.432   6.570  11.418 -0.0108 -0.3787  0.5804
 3926TIP3    H135973   6.397   6.576  11.508 -0.5505  0.8197  0.3130
 3926TIP3    H235974   6.524   6.595  11.426 -0.0736 -0.2105  0.7964
 3927TIP3   OH235975   5.265   3.930  10.660  0.1891 -0.1657  0.1565
 3927TIP3    H135976   5.170   3.927  10.644 -0.0330  1.6945  0.9425
 3927TIP3    H235977   5.285   4.022  10.672  2.3259 -0.3882 -1.0886
 3928TIP3   OH235978   2.244   6.540   8.815 -0.2747 -0.2569  0.0890
 3928TIP3    H135979   2.267   6.451   8.789  1.5322  0.0161  0.6481
 3928TIP3    H235980   2.163   6.558   8.767  1.1409 -0.9665 -2.8443
 3929TIP3   OH235981   5.885   5.130  10.651 -0.2646  0.0718  0.3484
 3929TIP3    H135982   5.810   5.157  10.705 -0.7619 -1.3225  0.3769
 3929TIP3    H235983   5.961   5.141  10.708 -0.4029  1.5779  0.2955
 3930TIP3   OH235984   3.538   0.653   8.412 -0.0846  0.1484 -0.1644
 3930TIP3    H135985   3.613   0.626   8.360 -0.3930 -1.9738  0.4072
 3930TIP3    H235986   3.463   0.612   8.369 -0.9140  1.9159 -0.5013
 3931TIP3   OH235987   2.867   5.351  10.311  0.2530  0.6721 -0.2826
 3931TIP3    H135988   2.824   5.286  10.256  0.7377  0.2853 -0.2097
 3931TIP3    H235989   2.915   5.407  10.251  0.5736  0.4063 -0.2754
 3932TIP3   OH235990   1.387   0.194   9.896  0.0669  0.0212 -0.0452
 3932TIP3    H135991   1.405   0.280   9.933 -0.8621  0.3934 -0.4306
 3932TIP3    H235992   1.326   0.154   9.958 -0.2667  0.0334 -0.3591
 3933TIP3   OH235993   2.393   6.329  10.032  0.6492  0.2893  0.1282
 3933TIP3    H135994   2.343   6.388  10.088 -0.3403  0.0433 -0.4795
 3933TIP3    H235995   2.481   6.366  10.031  0.5327  0.6442  1.3398
 3934TIP3   OH235996   0.480   3.402  10.209  0.1150 -0.3348  0.3877
 3934TIP3    H135997   0.443   3.405  10.120  0.8194  3.6299  0.0150
 3934TIP3    H235998   0.570   3.371  10.196  0.2401  0.2908 -0.3400
 3935TIP3   OH235999   3.147   5.560   9.465  0.4147 -0.1914 -0.1183
 3935TIP3    H136000   3.136   5.522   9.553  1.3930  0.6296  0.3839
 3935TIP3    H236001   3.058   5.563   9.429  0.2870 -2.9934 -0.2447
 3936TIP3   OH236002   4.802   3.496  10.184  0.0041  0.2202 -0.1973
 3936TIP3    H136003   4.846   3.529  10.262 -2.0300 -0.4200  1.3004
 3936TIP3    H236004   4.709   3.501  10.204 -0.5354 -2.3603 -1.5351
 3937TIP3   OH236005   3.775   5.779  10.100 -0.3013  0.0536 -0.0913
 3937TIP3    H136006   3.732   5.717  10.159 -0.4658 -0.1290 -0.3983
 3937TIP3    H236007   3.795   5.727  10.022  1.4315 -0.1358  0.4387
 3938TIP3   OH236008   1.492   5.577  11.563  0.0782  0.4073  0.2869
 3938TIP3    H136009   1.425   5.512  11.541 -1.1493  1.2035  1.5064
 3938TIP3    H236010   1.444   5.659  11.573  1.6186  1.6103 -1.4556
 3939TIP3   OH236011   2.025   5.358  11.056  0.5758 -0.4703 -0.1139
 3939TIP3    H136012   1.979   5.397  11.130 -0.5692 -0.7717 -0.6583
 3939TIP3    H236013   2.061   5.432  11.009  0.9422 -0.2510  0.4942
 3940TIP3   OH236014   0.110   1.270  10.939  0.1221  0.2116  0.1801
 3940TIP3    H136015   0.140   1.314  10.860 -2.1807  0.1781 -0.8087
 3940TIP3    H236016   0.090   1.181  10.910 -1.8131  0.5046  0.4595
 3941TIP3   OH236017   6.843   2.644   8.750 -0.8054  0.6932  0.0653
 3941TIP3    H136018   6.819   2.634   8.842  0.2191  1.6344  0.4649
 3941TIP3    H236019   6.769   2.609   8.702 -0.6895 -1.2908  1.2463
 3942TIP3   OH236020   2.110   4.780  10.243  0.8770 -0.3724  0.2194
 3942TIP3    H136021   2.034   4.722  10.247  0.7795 -0.2610  0.0161
 3942TIP3    H236022   2.095   4.844  10.312 -1.3229  2.1912 -2.4022
 3943TIP3   OH236023   6.096   4.891   9.682  0.0343  0.7140 -0.0413
 3943TIP3    H136024   6.121   4.884   9.590  2.2595 -0.5593  0.5929
 3943TIP3    H236025   6.090   4.801   9.713 -1.3899  1.0990  0.9295
 3944TIP3   OH236026   1.141   1.691  11.418 -0.0824 -0.4061  0.7489
 3944TIP3    H136027   1.173   1.604  11.394  0.0821  0.3066 -1.9632
 3944TIP3    H236028   1.220   1.745  11.427 -0.1539  0.5076 -2.4633
 3945TIP3   OH236029   4.595   4.954  11.045 -0.2193 -0.6660 -0.1433
 3945TIP3    H136030   4.589   4.878  10.987 -0.9831  0.3380 -1.4379
 3945TIP3    H236031   4.519   4.946  11.102 -2.1140  0.7036 -2.3321
 3946TIP3   OH236032   3.744   0.255   8.500  0.1760  0.1138  0.1690
 3946TIP3    H136033   3.774   0.235   8.588  0.8936  0.8342  0.0953
 3946TIP3    H236034   3.823   0.279   8.452 -0.3021  0.4508 -0.4656
 3947TIP3   OH236035   4.449   0.841  10.911  0.3999 -0.7359 -1.1615
 3947TIP3    H136036   4.367   0.889  10.895  1.6304  2.4996  1.1018
 3947TIP3    H236037   4.447   0.822  11.004  2.3254 -0.2891 -0.9964
 3948TIP3   OH236038   1.976   4.467  10.020 -0.4572  1.0257 -0.2487
 3948TIP3    H136039   2.046   4.512   9.973 -0.3245  0.1133 -0.9423
 3948TIP3    H236040   2.011   4.456  10.109  1.1039 -1.0791 -1.0394
 3949TIP3   OH236041   1.919   2.657   9.196 -0.7206 -0.3408  0.4721
 3949TIP3    H136042   1.955   2.714   9.128  0.7422 -0.3834  1.1743
 3949TIP3    H236043   1.849   2.608   9.152 -1.1473  1.0513 -0.4722
 3950TIP3   OH236044   0.751   1.311  11.428 -0.7960  0.0825 -0.2760
 3950TIP3    H136045   0.664   1.292  11.464 -0.4201 -0.6440  0.2827
 3950TIP3    H236046   0.806   1.240  11.460  0.3265  1.2620  0.5297
 3951TIP3   OH236047   6.689   4.284  10.336 -0.1434  0.2580  0.0674
 3951TIP3    H136048   6.765   4.255  10.285  0.7089 -1.2093  2.0624
 3951TIP3    H236049   6.614   4.252  10.286  0.4954  1.4264 -1.7601
 3952TIP3   OH236050   6.181   1.803   9.705 -0.3714 -0.3713 -0.3099
 3952TIP3    H136051   6.153   1.780   9.616 -2.0320  1.5690 -0.3639
 3952TIP3    H236052   6.187   1.899   9.704 -0.9840 -0.2579  1.8226
 3953TIP3   OH236053   2.459   5.404  10.793 -0.5020  0.1034  0.2136
 3953TIP3    H136054   2.441   5.322  10.838  0.6601 -1.4869 -1.9855
 3953TIP3    H236055   2.379   5.456  10.803 -1.7939 -1.8519  0.5636
 3954TIP3   OH236056   4.961   2.745   9.937 -0.1949  0.5431  0.1367
 3954TIP3    H136057   4.910   2.723  10.015 -1.1806 -0.8344 -0.8529
 3954TIP3    H236058   4.899   2.792   9.880  0.3083  0.9057 -0.1247
 3955TIP3   OH236059   5.581   5.245   8.400  0.0575 -0.0189 -0.3363
 3955TIP3    H136060   5.674   5.226   8.385  0.7185  0.6856  2.3232
 3955TIP3    H236061   5.545   5.162   8.431 -0.6521 -0.7295 -2.8594
 3956TIP3   OH236062   2.251   0.401  10.708 -0.3761  0.2392 -0.0000
 3956TIP3    H136063   2.322   0.412  10.772  1.7839  1.7391 -2.4228
 3956TIP3    H236064   2.204   0.323  10.738  2.7620 -1.3477  1.3912
 3957TIP3   OH236065   6.767   2.407  11.328 -0.2032 -0.2407 -0.1588
 3957TIP3    H136066   6.821   2.390  11.405 -0.4118  0.1173  0.0713
 3957TIP3    H236067   6.794   2.341  11.264 -0.4794 -0.9508  0.4431
 3958TIP3   OH236068   0.430   3.257   8.019  0.3745 -0.4798  0.3620
 3958TIP3    H136069   0.525   3.252   8.027  0.6825  1.0221 -1.4780
 3958TIP3    H236070   0.410   3.349   8.035 -0.8360 -0.8435  1.0716
 3959TIP3   OH236071   5.541   2.081  10.608 -0.3957  0.3186  0.0806
 3959TIP3    H136072   5.447   2.099  10.612 -0.2233  1.0707  1.1204
 3959TIP3    H236073   5.567   2.070  10.699  0.8565  1.8916 -0.0451
 3960TIP3   OH236074   0.445   2.617  11.053 -0.3244  0.0590  0.2634
 3960TIP3    H136075   0.442   2.685  10.986  3.8258  1.9056  1.5865
 3960TIP3    H236076   0.522   2.565  11.031 -0.1377 -0.6488  2.3530
 3961TIP3   OH236077   0.407   3.441  10.463 -0.3242 -0.1464  0.3700
 3961TIP3    H136078   0.451   3.414  10.382  0.1596 -0.2221  0.6545
 3961TIP3    H236079   0.415   3.536  10.465 -0.2469 -0.1538  0.3836
 3962TIP3   OH236080   4.256   2.701  11.714 -0.2496 -0.4908 -0.5852
 3962TIP3    H136081   4.347   2.728  11.701  0.3579 -1.3356  1.4804
 3962TIP3    H236082   4.209   2.782  11.732  0.8122 -0.3212  1.7622
 3963TIP3   OH236083   2.147   4.348   9.709 -0.0378  0.8554  0.0102
 3963TIP3    H136084   2.139   4.426   9.765 -2.6871 -0.4473  1.6088
 3963TIP3    H236085   2.090   4.367   9.634  0.1862  0.8871 -0.1530
 3964TIP3   OH236086   0.369   0.138   9.439 -0.1477 -0.2723  0.2956
 3964TIP3    H136087   0.351   0.121   9.531 -1.5294 -1.9757 -0.2443
 3964TIP3    H236088   0.451   0.092   9.422 -0.3213 -0.6545  0.4810
 3965TIP3   OH236089   5.960   4.972   8.738 -0.1992 -0.0589 -0.2845
 3965TIP3    H136090   5.952   5.033   8.812 -0.2046 -0.1789 -0.1854
 3965TIP3    H236091   5.952   5.027   8.660 -1.9088 -0.1385 -0.2088
 3966TIP3   OH236092   3.177   1.907   9.220 -0.5173 -0.6311 -0.4404
 3966TIP3    H136093   3.272   1.910   9.210 -0.2790 -1.5843  1.2165
 3966TIP3    H236094   3.157   1.970   9.289 -1.2068  0.1744 -1.3452
 3967TIP3   OH236095   2.474   6.631   8.686 -0.0205  0.3235 -0.5526
 3967TIP3    H136096   2.511   6.548   8.654  0.2787  0.1038  0.3270
 3967TIP3    H236097   2.409   6.604   8.751  2.1970  0.8066  1.9977
 3968TIP3   OH236098   5.707   3.161   9.491  0.0861 -0.2606 -0.6743
 3968TIP3    H136099   5.725   3.202   9.406  1.2297  0.3045 -0.1824
 3968TIP3    H236100   5.651   3.087   9.471  0.5651 -0.2915 -1.9608
 3969TIP3   OH236101   4.532   0.958   8.226 -0.2066 -0.1710  0.4356
 3969TIP3    H136102   4.618   0.918   8.216 -0.3967 -0.3125 -0.9320
 3969TIP3    H236103   4.479   0.917   8.157 -0.5147  2.1331 -0.7858
 3970TIP3   OH236104   3.277   5.805  10.733  0.1056  0.1619 -0.3055
 3970TIP3    H136105   3.236   5.759  10.807  0.4483  0.2410 -0.0683
 3970TIP3    H236106   3.329   5.874  10.773 -0.1282  0.5383 -0.6475
 3971TIP3   OH236107   1.390   3.576   9.988  0.5988  0.0759  0.0645
 3971TIP3    H136108   1.350   3.511   9.929 -1.8533  0.7293  0.8900
 3971TIP3    H236109   1.428   3.523  10.058 -0.4346 -0.5680  0.1775
 3972TIP3   OH236110   6.058   6.211   9.354  0.2239 -0.1017 -0.1260
 3972TIP3    H136111   6.075   6.279   9.419 -0.4812 -0.7329  0.7661
 3972TIP3    H236112   6.018   6.256   9.281  1.8101  0.7599 -0.5111
 3973TIP3   OH236113   3.107   5.633  10.888 -0.0529  0.2126  0.1800
 3973TIP3    H136114   3.038   5.652  10.951 -0.8839 -0.5218 -0.4842
 3973TIP3    H236115   3.174   5.586  10.938  0.3050  1.5508  0.9824
 3974TIP3   OH236116   5.990   1.260   9.418  0.1540 -0.6000 -0.2878
 3974TIP3    H136117   5.912   1.220   9.456  0.4274 -2.3149 -1.4166
 3974TIP3    H236118   6.022   1.318   9.486 -2.8464  1.2634 -0.2728
 3975TIP3   OH236119   5.478   3.461   9.923 -0.2656  0.0361 -0.1343
 3975TIP3    H136120   5.430   3.451  10.005  1.1059  2.4871  1.0815
 3975TIP3    H236121   5.570   3.453   9.948  0.1160 -1.3725 -1.8509
 3976TIP3   OH236122   6.824   0.604  11.503  0.1089  0.4109 -0.3042
 3976TIP3    H136123   6.829   0.524  11.555 -0.4089 -0.2786 -1.2936
 3976TIP3    H236124   6.909   0.611  11.461  0.7891  1.3553  1.1460
 3977TIP3   OH236125   4.926   0.290  10.532 -0.5744 -0.0862  0.1210
 3977TIP3    H136126   4.952   0.318  10.444  0.6231  0.6072  0.6565
 3977TIP3    H236127   5.009   0.268  10.575 -1.0074  0.7582  1.4469
 3978TIP3   OH236128   0.544   0.259  10.049 -0.1008  0.0744 -0.0483
 3978TIP3    H136129   0.467   0.282  10.101 -0.5125  0.2240 -0.7191
 3978TIP3    H236130   0.606   0.225  10.113 -1.0104 -0.7744  0.4140
 3979TIP3   OH236131   0.579   6.105  11.244 -0.0216 -0.0419  0.0539
 3979TIP3    H136132   0.504   6.151  11.205 -1.2331 -2.2273 -0.3544
 3979TIP3    H236133   0.651   6.123  11.183 -0.5856  0.8028 -0.3976
 3980TIP3   OH236134   4.740   4.198  10.361  0.3715 -0.0359  0.0213
 3980TIP3    H136135   4.657   4.151  10.372 -0.9476  2.3094  0.6639
 3980TIP3    H236136   4.776   4.204  10.449  1.9286 -2.0627 -0.3800
 3981TIP3   OH236137   3.733   4.376   9.211  0.0445 -0.3983  0.2176
 3981TIP3    H136138   3.720   4.470   9.203 -0.0081 -0.4977 -0.9639
 3981TIP3    H236139   3.647   4.342   9.235 -0.6558 -0.4388 -2.1583
 3982TIP3   OH236140   2.367   5.751  11.847  0.0973 -0.5843  0.6301
 3982TIP3    H136141   2.366   5.790  11.759  1.5265 -0.7000  0.5349
 3982TIP3    H236142   2.299   5.798  11.894 -0.0414  0.1658 -0.2666
 3983TIP3   OH236143   0.894   4.539   9.939 -0.1970  0.1665  0.2459
 3983TIP3    H136144   0.910   4.459   9.989 -0.0801 -0.3130 -0.5289
 3983TIP3    H236145   0.957   4.602   9.973 -0.8676  0.2033  1.4601
 3984TIP3   OH236146   1.211   3.648   8.797 -0.0756 -0.0843 -0.3183
 3984TIP3    H136147   1.156   3.613   8.727  0.6697 -1.2157 -0.3718
 3984TIP3    H236148   1.266   3.713   8.754 -0.5937  0.2449 -0.4874
 3985TIP3   OH236149   4.001   6.573  11.397 -0.2353 -0.3669 -0.0976
 3985TIP3    H136150   4.053   6.633  11.449  0.8727  0.4724 -2.0572
 3985TIP3    H236151   4.047   6.489  11.403  0.0959 -0.1790 -0.0205
 3986TIP3   OH236152   1.424   6.761   9.928  0.2221  0.2772 -0.1364
 3986TIP3    H136153   1.437   6.734   9.837 -1.8742  0.8728 -0.6881
 3986TIP3    H236154   1.353   6.825   9.923  0.2212  0.4880  1.9021
 3987TIP3   OH236155   6.594   4.270  11.785  0.0295  0.4440  0.2518
 3987TIP3    H136156   6.595   4.178  11.758  1.1601 -0.1074  1.9836
 3987TIP3    H236157   6.527   4.275  11.853  1.2103  0.4197  1.4865
 3988TIP3   OH236158   1.225   3.215   9.463  0.6159  0.1193  0.6690
 3988TIP3    H136159   1.306   3.223   9.514  0.3602  2.0058  0.8234
 3988TIP3    H236160   1.251   3.238   9.374  0.6146 -1.1165  0.3294
 3989TIP3   OH236161   5.945   5.627  10.320  0.6468 -0.2436  0.3823
 3989TIP3    H136162   5.881   5.578  10.267 -0.3754  1.4537 -0.0126
 3989TIP3    H236163   5.942   5.716  10.285  1.2483  0.5061  2.1465
 3990TIP3   OH236164   4.937   5.219   8.928  0.5499 -0.0962  0.1645
 3990TIP3    H136165   5.026   5.236   8.959  0.8112  1.6715 -1.3903
 3990TIP3    H236166   4.942   5.133   8.886  1.6349  0.1237 -0.1894
 3991TIP3   OH236167   4.771   5.662  10.444  0.2802 -0.5094 -0.1430
 3991TIP3    H136168   4.746   5.753  10.424  1.5503 -0.1945 -0.3971
 3991TIP3    H236169   4.729   5.644  10.527 -1.3451 -0.2604 -0.8736
 3992TIP3   OH236170   6.143   4.190   9.756 -0.1083  0.0467 -0.2035
 3992TIP3    H136171   6.074   4.125   9.738  0.6010 -0.7408 -0.1531
 3992TIP3    H236172   6.144   4.197   9.851  1.2783 -1.5378 -0.0594
 3993TIP3   OH236173   5.705   2.158   9.242  0.2540  0.3797 -0.8420
 3993TIP3    H136174   5.770   2.106   9.288 -1.7351 -0.4894  1.1383
 3993TIP3    H236175   5.699   2.239   9.293 -0.9001  0.0397 -0.4242
 3994TIP3   OH236176   3.089   2.263  10.630  0.1563  0.3193  0.3685
 3994TIP3    H136177   3.071   2.256  10.536  2.1842  0.4747 -0.0789
 3994TIP3    H236178   3.003   2.271  10.671 -0.8304 -0.8066 -1.3756
 3995TIP3   OH236179   2.593   4.806   9.504 -0.5922 -0.0169  0.3058
 3995TIP3    H136180   2.517   4.861   9.527  0.3444  0.9923  1.1152
 3995TIP3    H236181   2.556   4.720   9.484 -1.9516  0.4761  0.6127
 3996TIP3   OH236182   1.013   4.227   9.588  0.2987  0.0559 -0.1459
 3996TIP3    H136183   1.082   4.264   9.644  0.7811 -1.7107  0.4814
 3996TIP3    H236184   0.990   4.299   9.529 -0.4531  2.1200  2.4670
 3997TIP3   OH236185   6.169   5.483   9.481  0.3861 -0.2530 -0.4884
 3997TIP3    H136186   6.221   5.402   9.479 -0.7729 -1.0206 -1.0427
 3997TIP3    H236187   6.232   5.552   9.461  1.2538 -1.1069 -0.8271
 3998TIP3   OH236188   0.874   6.799   9.995  0.0032  0.1854  0.6248
 3998TIP3    H136189   0.800   6.821   9.939  0.8518  1.9033  0.1129
 3998TIP3    H236190   0.837   6.792  10.082 -1.0024 -0.4790  0.1573
 3999TIP3   OH236191   6.636   0.286   9.681  0.0850 -0.1307  0.0453
 3999TIP3    H136192   6.731   0.296   9.684  0.1104 -0.3836  0.0880
 3999TIP3    H236193   6.613   0.252   9.767  0.2129 -2.1880 -0.6775
 4000TIP3   OH236194   4.127   4.056  10.644  0.1885 -0.3076 -0.4313
 4000TIP3    H136195   4.111   4.058  10.550  0.4082  0.6618 -0.4519
 4000TIP3    H236196   4.041   4.070  10.683 -0.1341 -2.0396 -0.4569
 4001TIP3   OH236197   5.105   6.768  11.471 -0.2655  0.6071 -0.1661
 4001TIP3    H136198   5.072   6.707  11.537 -0.4337  0.6285 -0.2316
 4001TIP3    H236199   5.158   6.830  11.521 -0.8144  0.9306  0.0207
 4002TIP3   OH236200   0.515   0.660   9.373 -0.1499 -0.3227 -0.3998
 4002TIP3    H136201   0.434   0.636   9.327 -0.9746  2.1157 -0.3751
 4002TIP3    H236202   0.498   0.639   9.465 -0.3973 -0.6809 -0.5274
 4003TIP3   OH236203   1.275   1.459  11.569 -0.9591 -0.8042 -0.3132
 4003TIP3    H136204   1.195   1.477  11.620 -2.2883 -0.6122 -2.3389
 4003TIP3    H236205   1.271   1.365  11.551 -0.5469 -0.8544 -0.1424
 4004TIP3   OH236206   1.582   2.899   9.668 -0.2983 -0.4103  0.0923
 4004TIP3    H136207   1.616   2.886   9.580 -1.7729  0.3834 -0.6486
 4004TIP3    H236208   1.521   2.827   9.681 -2.3008  1.0252 -0.7654
 4005TIP3   OH236209   1.396   2.717  11.671 -0.5610 -0.2542  0.2884
 4005TIP3    H136210   1.473   2.661  11.681 -0.5762 -0.4877 -0.7530
 4005TIP3    H236211   1.333   2.682  11.734  0.6276  0.8206  2.1933
 4006TIP3   OH236212   6.174   5.921  11.767 -0.2650  0.0170 -0.1721
 4006TIP3    H136213   6.141   5.953  11.683 -0.2285 -2.8514 -1.3796
 4006TIP3    H236214   6.123   5.842  11.784  1.3958 -0.7992  1.2914
 4007TIP3   OH236215   0.602   5.234  10.566  0.0162 -0.2736  0.0508
 4007TIP3    H136216   0.687   5.279  10.568 -0.5475  0.8639 -0.3818
 4007TIP3    H236217   0.624   5.141  10.566  1.2533 -0.0051  0.2151
 4008TIP3   OH236218   1.637   2.771   8.494 -0.0503  0.3820  0.6038
 4008TIP3    H136219   1.725   2.737   8.484  0.0279  1.0290 -1.3749
 4008TIP3    H236220   1.648   2.850   8.547  0.6992  0.9352 -0.3516
 4009TIP3   OH236221   1.050   0.806   9.447  0.0390 -0.5951 -0.0295
 4009TIP3    H136222   1.005   0.791   9.530  0.0415  0.1424  0.1165
 4009TIP3    H236223   1.086   0.895   9.456  3.5828 -1.9390  0.8400
 4010TIP3   OH236224   6.397   1.617  11.544 -0.2377  0.2185  0.0541
 4010TIP3    H136225   6.333   1.549  11.565 -2.9639  2.5431 -0.1478
 4010TIP3    H236226   6.466   1.606  11.610 -1.9935 -0.9707  1.8021
 4011TIP3   OH236227   4.680   6.149   8.447  0.3121 -0.1604  0.1583
 4011TIP3    H136228   4.621   6.217   8.414 -1.2100 -1.5040 -0.0356
 4011TIP3    H236229   4.764   6.193   8.459 -0.3266  1.4666 -1.0348
 4012TIP3   OH236230   0.608   1.472  10.781 -0.7482  0.0588  0.4591
 4012TIP3    H136231   0.533   1.531  10.793 -1.9813 -1.0021 -1.4942
 4012TIP3    H236232   0.606   1.450  10.688  0.4553 -2.0495  0.8779
 4013TIP3   OH236233   4.025   2.549   9.372 -0.3952 -0.5541  0.2063
 4013TIP3    H136234   3.973   2.537   9.452  0.1073  0.4117  0.7000
 4013TIP3    H236235   4.114   2.567   9.404 -0.5432  1.7767 -0.4560
 4014TIP3   OH236236   0.541   2.436   9.908  0.5233  0.0451  0.7023
 4014TIP3    H136237   0.460   2.466   9.950  0.0113  0.9290 -0.8704
 4014TIP3    H236238   0.513   2.365   9.851  0.6943  0.9560 -0.5395
 4015TIP3   OH236239   6.123   2.993  10.692 -0.3282 -0.3561  0.0197
 4015TIP3    H136240   6.121   3.082  10.658 -0.5017  0.2248  1.4688
 4015TIP3    H236241   6.214   2.966  10.685 -0.6423 -0.9630 -2.5532
 4016TIP3   OH236242   1.694   3.437  11.920 -0.2485  0.1987 -0.0337
 4016TIP3    H136243   1.654   3.460  11.837 -0.4648 -0.9087 -0.2552
 4016TIP3    H236244   1.625   3.452  11.985 -1.6724 -3.0598 -0.5597
 4017TIP3   OH236245   0.286   5.322  10.781  0.2128  0.2470 -0.6400
 4017TIP3    H136246   0.234   5.254  10.826 -2.5124  1.7066 -1.3410
 4017TIP3    H236247   0.223   5.365  10.723  2.2425  2.2680 -1.4719
 4018TIP3   OH236248   6.368   3.460   9.511 -0.6044 -0.1515  1.0352
 4018TIP3    H136249   6.424   3.405   9.456  1.6264  2.1793  0.7696
 4018TIP3    H236250   6.279   3.443   9.480  0.1952 -2.0077 -0.4201
 4019TIP3   OH236251   2.211   3.837  10.245  0.0405 -0.2074  0.1383
 4019TIP3    H136252   2.242   3.805  10.160  0.4461  1.1471 -0.2515
 4019TIP3    H236253   2.116   3.825  10.242  0.0844 -0.4723 -0.3684
 4020TIP3   OH236254   4.062   6.251  10.501  0.5894 -0.3867  0.0775
 4020TIP3    H136255   4.017   6.234  10.584  1.1520  0.1011  0.4910
 4020TIP3    H236256   3.992   6.252  10.436 -0.1790  1.5365  0.8761
 4021TIP3   OH236257   4.359   6.111   9.202  0.1527 -0.0157  0.0223
 4021TIP3    H136258   4.423   6.170   9.244 -1.1044  1.2236  0.2649
 4021TIP3    H236259   4.357   6.034   9.258  0.7650  0.3229  0.5281
 4022TIP3   OH236260   2.163   5.847   8.146 -0.6078  0.1158  0.0293
 4022TIP3    H136261   2.184   5.940   8.146  0.6161 -0.1219  1.3220
 4022TIP3    H236262   2.248   5.804   8.137 -1.0853 -0.8811  0.1570
 4023TIP3   OH236263   1.010   4.108  11.352 -0.3368 -0.2909 -0.8434
 4023TIP3    H136264   0.932   4.088  11.301  0.3681  0.6585 -2.3698
 4023TIP3    H236265   1.083   4.082  11.296  0.4657  1.0968 -0.4934
 4024TIP3   OH236266   0.711   2.432   9.354 -0.5217 -0.4867  0.4382
 4024TIP3    H136267   0.624   2.418   9.317 -0.2564  1.4731 -1.0814
 4024TIP3    H236268   0.694   2.454   9.446 -1.6175 -0.3172  0.2058
 4025TIP3   OH236269   3.837   5.912   8.617  0.0619 -0.1304  0.2898
 4025TIP3    H136270   3.902   5.894   8.549 -0.4879  0.0426 -0.2888
 4025TIP3    H236271   3.793   5.991   8.587 -2.6150 -1.9745 -0.9925
 4026TIP3   OH236272   2.241   1.503  10.469  0.5445  0.0642  0.1799
 4026TIP3    H136273   2.205   1.540  10.388 -0.6267 -0.2785  0.5176
 4026TIP3    H236274   2.190   1.423  10.483 -1.0188  1.3389  2.5190
 4027TIP3   OH236275   0.319   4.879  11.287 -0.3975 -0.0004 -0.2754
 4027TIP3    H136276   0.352   4.802  11.334  1.4253  1.3464  0.7866
 4027TIP3    H236277   0.278   4.933  11.354 -0.3838  0.6095 -0.7491
 4028TIP3   OH236278   2.572   1.876   9.261 -0.0763  0.5285 -0.4438
 4028TIP3    H136279   2.510   1.869   9.188 -2.2247  2.0539  1.1202
 4028TIP3    H236280   2.609   1.788   9.268 -2.5614 -0.6643 -1.0726
 4029TIP3   OH236281   5.762   3.559  10.007 -0.0616 -0.0602  0.0848
 4029TIP3    H136282   5.810   3.533  10.086 -1.3200 -1.9214  0.3156
 4029TIP3    H236283   5.816   3.528   9.934  0.4017  0.3368  0.2613
 4030TIP3   OH236284   0.592   2.017   9.945 -0.5112 -0.2805 -0.4636
 4030TIP3    H136285   0.511   1.989   9.904 -0.7880 -0.0239 -0.0927
 4030TIP3    H236286   0.659   2.001   9.878 -0.5988 -2.1230 -0.1717
 4031TIP3   OH236287   5.440   0.958  11.698  0.1475  0.0587  0.0633
 4031TIP3    H136288   5.388   0.881  11.676  0.1285 -0.3881  1.5801
 4031TIP3    H236289   5.510   0.959  11.633 -0.6817 -0.3928 -0.8623
 4032TIP3   OH236290   3.522   0.948  10.027  0.1388 -0.5561 -0.1676
 4032TIP3    H136291   3.455   1.007  10.062  0.2175 -0.2547 -0.5113
 4032TIP3    H236292   3.570   1.002   9.963  1.3308 -0.4705  0.7574
 4033TIP3   OH236293   1.334   6.510  11.646 -0.1552  0.3440  0.5164
 4033TIP3    H136294   1.278   6.529  11.572  1.6120 -2.3205 -1.6907
 4033TIP3    H236295   1.276   6.470  11.711 -1.1988 -0.3703 -0.8117
 4034TIP3   OH236296   6.218   6.740  11.244  0.3770  0.0137  0.6905
 4034TIP3    H136297   6.249   6.740  11.153  1.0919 -0.6327  0.9245
 4034TIP3    H236298   6.294   6.716  11.295 -0.6643 -2.4084  1.2274
 4035TIP3   OH236299   1.884   4.492   9.551 -0.4056  0.3163  0.8765
 4035TIP3    H136300   1.925   4.575   9.575 -0.8364  0.7393  0.1919
 4035TIP3    H236301   1.829   4.514   9.476 -0.1599 -0.6842  0.3875
 4036TIP3   OH236302   4.465   5.193   8.606 -0.0062  0.1766  0.0393
 4036TIP3    H136303   4.477   5.216   8.698 -0.5930 -2.1979  0.7878
 4036TIP3    H236304   4.370   5.191   8.594  0.0534 -0.5061 -0.3502
 4037TIP3   OH236305   5.556   4.571   9.489  0.2657  0.0384 -0.2748
 4037TIP3    H136306   5.618   4.639   9.516  0.3533 -0.5332  1.0123
 4037TIP3    H236307   5.610   4.508   9.440  0.8065 -0.6545  1.1721
 4038TIP3   OH236308   5.423   5.462   8.150  0.5394 -0.3850  0.1562
 4038TIP3    H136309   5.427   5.555   8.171 -2.0707  0.1054 -1.1193
 4038TIP3    H236310   5.478   5.453   8.072  0.4318  0.1584  0.0156
 4039TIP3   OH236311   1.680   4.249   9.194  0.0925 -0.2916 -0.6251
 4039TIP3    H136312   1.649   4.340   9.197  0.5919 -0.1491  1.1588
 4039TIP3    H236313   1.742   4.247   9.121  3.1354  1.8743  1.6498
 4040TIP3   OH236314   3.708   2.583   9.434 -0.0562  0.5208  0.1899
 4040TIP3    H136315   3.730   2.503   9.482  1.1383  0.5510 -0.2798
 4040TIP3    H236316   3.674   2.552   9.351  0.8295  0.4867 -0.1717
 4041TIP3   OH236317   6.168   0.141  11.912  0.2601 -0.0778  0.6516
 4041TIP3    H136318   6.221   0.114  11.836  0.2445  0.4199  0.4638
 4041TIP3    H236319   6.109   0.067  11.927 -0.0460  0.0049 -0.1070
 4042TIP3   OH236320   0.880   1.334   9.852  0.1298  0.4510 -0.0662
 4042TIP3    H136321   0.870   1.337   9.947 -0.6297 -0.2431 -0.1137
 4042TIP3    H236322   0.819   1.266   9.824  1.4386 -0.4135 -0.9013
 4043TIP3   OH236323   1.203   6.580  11.435  0.2286 -0.0117  0.3489
 4043TIP3    H136324   1.129   6.523  11.414 -0.3611  0.7779  0.2437
 4043TIP3    H236325   1.252   6.587  11.353  1.1962 -1.6121  0.7442
 4044TIP3   OH236326   0.080   3.230   9.091  0.3703 -0.1049 -0.2392
 4044TIP3    H136327   0.086   3.299   9.026 -0.5038 -0.1393 -0.3648
 4044TIP3    H236328   0.016   3.168   9.056  0.0033 -0.2039  0.5588
 4045TIP3   OH236329   0.900   5.543   9.487  0.3326  0.3319 -0.1865
 4045TIP3    H136330   0.847   5.613   9.448 -1.8465 -0.6366  0.8534
 4045TIP3    H236331   0.938   5.582   9.565  0.8884  0.9433 -0.7512
 4046TIP3   OH236332   6.689   5.194  10.399  0.4303  0.4485 -0.1447
 4046TIP3    H136333   6.714   5.205  10.307  0.6476  2.3961  0.1043
 4046TIP3    H236334   6.670   5.283  10.429 -1.4629 -0.3408  1.2060
 4047TIP3   OH236335   6.085   4.448  11.739  0.4720 -0.5281 -0.6303
 4047TIP3    H136336   6.159   4.496  11.775  0.2353  0.1695 -1.0555
 4047TIP3    H236337   6.068   4.490  11.655  1.3112 -2.3915 -1.8158
 4048TIP3   OH236338   6.313   5.378   9.872 -0.2920  0.0418  0.2309
 4048TIP3    H136339   6.231   5.409   9.909  0.8482  1.0938  2.0103
 4048TIP3    H236340   6.364   5.457   9.854 -0.1899 -0.5007 -2.2975
 4049TIP3   OH236341   3.455   4.321   7.984  0.0308 -0.4702  0.3494
 4049TIP3    H136342   3.476   4.370   8.063 -0.2071  1.3308 -0.6496
 4049TIP3    H236343   3.359   4.323   7.979  0.0759  0.3883 -0.5260
 4050TIP3   OH236344   0.438   0.954  10.334 -0.3737  0.1667  0.3897
 4050TIP3    H136345   0.463   0.871  10.374  0.7504  0.2323 -0.1597
 4050TIP3    H236346   0.508   1.014  10.356 -0.4463  0.5808 -0.4598
 4051TIP3   OH236347   2.811   1.563  11.456  0.4065  0.4919 -0.4113
 4051TIP3    H136348   2.750   1.633  11.436  1.0205  1.2201  0.1961
 4051TIP3    H236349   2.779   1.526  11.539  0.5262  0.5729 -0.3285
 4052TIP3   OH236350   0.619   1.699   9.825  0.1796  0.0794  0.3504
 4052TIP3    H136351   0.598   1.635   9.757 -1.6692  1.3912 -0.3788
 4052TIP3    H236352   0.695   1.746   9.792  0.3380 -0.4186 -0.0055
 4053TIP3   OH236353   3.890   4.554  10.017 -0.0987 -0.2731  0.5405
 4053TIP3    H136354   3.979   4.532   9.987  0.5277 -0.3108  2.3118
 4053TIP3    H236355   3.867   4.633   9.968  0.8815 -0.3030 -0.0031
 4054TIP3   OH236356   2.160   5.880  12.038 -0.2776 -0.3422  0.1730
 4054TIP3    H136357   2.141   5.907  12.128 -0.2127  0.6592 -0.1025
 4054TIP3    H236358   2.149   5.960  11.986  0.6027 -0.6986 -0.5792
 4055TIP3   OH236359   1.680   4.130   9.449 -0.0359  0.0662 -0.0450
 4055TIP3    H136360   1.676   4.175   9.365 -0.5739  0.2309  0.0624
 4055TIP3    H236361   1.618   4.058   9.440  0.1711 -0.1282  0.0869
 4056TIP3   OH236362   0.131   6.346  10.715  0.2678 -0.5505 -0.5066
 4056TIP3    H136363   0.212   6.298  10.696  0.5881 -0.0126 -0.4939
 4056TIP3    H236364   0.071   6.278  10.746  0.4346 -1.0879 -1.3306
 4057TIP3   OH236365   1.754   6.577  11.880  0.2395  0.2370  0.2460
 4057TIP3    H136366   1.720   6.568  11.969  0.8420  1.1797  0.5871
 4057TIP3    H236367   1.722   6.500  11.834  0.6115 -0.6959  1.5057
 4058TIP3   OH236368   3.602   3.687  10.499 -0.7723 -0.1878  0.6925
 4058TIP3    H136369   3.521   3.738  10.492 -1.5621 -1.1341  2.2519
 4058TIP3    H236370   3.588   3.631  10.575  2.0914  0.9317  2.1792
 4059TIP3   OH236371   4.419   1.154  10.162  0.2712 -0.5197 -0.6322
 4059TIP3    H136372   4.469   1.228  10.125  0.3170  0.1204  0.6486
 4059TIP3    H236373   4.334   1.191  10.183  0.3841 -0.7510  0.2701
 4060TIP3   OH236374   6.288   1.818  10.881 -0.0821  0.3755  0.2474
 4060TIP3    H136375   6.375   1.814  10.921 -0.2627 -1.8251  0.5088
 4060TIP3    H236376   6.242   1.741  10.914 -2.5845  2.0893  1.0632
 4061TIP3   OH236377   2.382   5.882   8.852  0.3922 -0.0665 -0.1761
 4061TIP3    H136378   2.388   5.967   8.808  0.0936 -0.4967 -1.0768
 4061TIP3    H236379   2.292   5.880   8.886  0.3783 -0.0402 -0.2101
 4062TIP3   OH236380   1.701   1.786   9.274  0.2023 -0.3754  0.5084
 4062TIP3    H136381   1.758   1.861   9.257 -1.8058  0.8928 -1.1676
 4062TIP3    H236382   1.695   1.741   9.189 -0.0605 -1.3896  1.0498
 4063TIP3   OH236383   3.226   4.653   8.548 -0.0277  0.1222 -0.0158
 4063TIP3    H136384   3.136   4.627   8.569  0.1155  0.8755  1.7889
 4063TIP3    H236385   3.275   4.571   8.546 -0.3125 -0.1347  1.5838
 4064TIP3   OH236386   2.784   3.342  11.395  0.2758  0.5813  0.5866
 4064TIP3    H136387   2.776   3.341  11.299  0.1366 -0.1870  0.5997
 4064TIP3    H236388   2.752   3.429  11.421 -1.7632  0.0310  0.1033
 4065TIP3   OH236389   5.538   1.195  11.822  0.4125 -0.5985 -0.1610
 4065TIP3    H136390   5.501   1.111  11.794  1.6214 -0.2000 -3.5325
 4065TIP3    H236391   5.631   1.177  11.837  0.9263  0.2399 -2.0047
 4066TIP3   OH236392   4.352   2.195  11.375 -0.2837 -0.2087  0.2450
 4066TIP3    H136393   4.370   2.288  11.360 -1.0736 -0.0741  0.1089
 4066TIP3    H236394   4.372   2.153  11.292  1.8056 -0.4364  0.8164
 4067TIP3   OH236395   5.279   1.938   8.825 -0.2766  0.2986 -0.0951
 4067TIP3    H136396   5.255   1.870   8.763 -2.7418 -0.3720  1.4612
 4067TIP3    H236397   5.372   1.952   8.809  0.3959 -3.4333 -0.5421
 4068TIP3   OH236398   0.456   2.760   9.531 -0.0829  0.1696 -0.5649
 4068TIP3    H136399   0.399   2.823   9.488 -0.9847 -1.1829 -1.4074
 4068TIP3    H236400   0.403   2.724   9.602  1.0908  1.7338  1.2235
 4069TIP3   OH236401   1.236   2.883  10.328  0.4570 -0.3495  0.5724
 4069TIP3    H136402   1.255   2.789  10.325  2.8329  0.0594  0.2942
 4069TIP3    H236403   1.316   2.922  10.365 -0.4192  1.5766  0.5614
 4070TIP3   OH236404   0.920   4.601  11.560 -0.3338 -0.3370 -0.0434
 4070TIP3    H136405   0.988   4.534  11.559  0.1848  0.1074  1.6172
 4070TIP3    H236406   0.842   4.556  11.591 -0.8979 -0.8909 -2.1288
 4071TIP3   OH236407   6.758   6.132   8.828 -0.0965  0.1283  0.0537
 4071TIP3    H136408   6.767   6.119   8.734 -1.2156  0.0908 -0.0661
 4071TIP3    H236409   6.836   6.182   8.853 -0.0277  0.5662 -0.9737
 4072TIP3   OH236410   4.065   4.454   9.849  0.0009 -0.0931 -0.2245
 4072TIP3    H136411   4.023   4.500   9.777  0.7265  0.3666 -0.3714
 4072TIP3    H236412   4.088   4.368   9.813 -0.1052 -0.0541 -0.3834
 4073TIP3   OH236413   2.761   2.196  11.275  0.7490  0.1213  0.4303
 4073TIP3    H136414   2.752   2.284  11.312  2.1327  0.3575  0.2782
 4073TIP3    H236415   2.856   2.184  11.267  0.5514 -1.1143 -0.2084
 4074TIP3   OH236416   5.329   6.125  10.367  0.0125  0.2409  0.4480
 4074TIP3    H136417   5.240   6.105  10.393 -0.1826 -0.0421 -0.4304
 4074TIP3    H236418   5.384   6.076  10.429 -0.3962  1.5084  1.8904
 4075TIP3   OH236419   5.826   1.985  11.596 -0.2079  0.0425  0.4942
 4075TIP3    H136420   5.778   1.903  11.607  0.0925 -0.0580  1.1330
 4075TIP3    H236421   5.759   2.053  11.603 -0.6315 -0.1687 -1.1403
 4076TIP3   OH236422   2.770   6.020   8.448  0.2225  0.5175 -0.5800
 4076TIP3    H136423   2.858   6.028   8.410  0.1940 -1.8403 -1.2915
 4076TIP3    H236424   2.769   5.933   8.489 -1.1981  1.2428  1.0515
 4077TIP3   OH236425   0.345   0.494  10.080 -0.2481 -0.7086  0.6178
 4077TIP3    H136426   0.349   0.555  10.006 -0.6106 -1.5299 -0.1064
 4077TIP3    H236427   0.252   0.485  10.098 -0.3565 -2.5432 -0.6010
 4078TIP3   OH236428   5.450   5.199  11.747  0.3087 -0.1657 -0.2832
 4078TIP3    H136429   5.448   5.119  11.694  1.6707 -1.0170  0.8776
 4078TIP3    H236430   5.365   5.199  11.792  0.1766 -0.8093 -0.5168
 4079TIP3   OH236431   6.278   0.437   8.920 -0.0235 -0.0872 -0.3558
 4079TIP3    H136432   6.221   0.363   8.901 -0.1045  0.0250 -0.5570
 4079TIP3    H236433   6.238   0.510   8.872  0.0122  0.1020 -0.0983
 4080TIP3   OH236434   5.143   6.452   9.024  0.3380 -0.3520 -0.0009
 4080TIP3    H136435   5.070   6.490   9.074 -1.0007 -1.2219 -1.1973
 4080TIP3    H236436   5.217   6.510   9.042 -0.7308  0.7647  1.0100
 4081TIP3   OH236437   6.468   2.880   9.634 -0.5423  0.1384  0.0200
 4081TIP3    H136438   6.493   2.833   9.554 -2.4630  1.1993 -1.2887
 4081TIP3    H236439   6.512   2.832   9.704  1.3060 -0.7848 -1.6482
 4082TIP3   OH236440   1.247   0.181  11.366 -0.5519 -0.1932 -0.0304
 4082TIP3    H136441   1.240   0.106  11.424 -0.8274  0.5254  0.8930
 4082TIP3    H236442   1.257   0.256  11.424  0.0525  0.4596 -0.9409
 4083TIP3   OH236443   2.970   1.995  10.254  0.2938 -0.0638 -0.4162
 4083TIP3    H136444   3.044   1.934  10.252 -0.8649 -1.5691  0.4384
 4083TIP3    H236445   2.922   1.977  10.173 -0.6233 -1.1069  0.3168
 4084TIP3   OH236446   1.759   5.177  10.705  0.0199  0.0338 -0.2316
 4084TIP3    H136447   1.668   5.206  10.710 -0.3630 -1.2095  0.1894
 4084TIP3    H236448   1.790   5.182  10.795  0.7360  1.5071 -0.5204
 4085TIP3   OH236449   2.164   2.839  11.901  0.1213 -0.3544 -0.1321
 4085TIP3    H136450   2.189   2.892  11.825 -0.8317  0.0542 -0.1813
 4085TIP3    H236451   2.083   2.795  11.874 -0.2060 -0.2345  0.6244
 4086TIP3   OH236452   1.272   4.390  11.408  0.6770  0.3489 -0.2100
 4086TIP3    H136453   1.177   4.397  11.397  0.1474 -4.1302 -0.4329
 4086TIP3    H236454   1.308   4.410  11.322 -0.4685 -1.2579 -1.1127
 4087TIP3   OH236455   0.034   5.728  11.745 -0.2133 -0.0039 -0.0035
 4087TIP3    H136456  -0.019   5.649  11.751 -0.2199  0.1227  1.9920
 4087TIP3    H236457   0.125   5.696  11.746 -0.2131  0.0171  1.0506
 4088TIP3   OH236458   1.876   4.673  11.657  0.3027 -0.1082 -0.2528
 4088TIP3    H136459   1.901   4.692  11.567 -2.9959 -2.9462 -1.9875
 4088TIP3    H236460   1.840   4.756  11.690 -1.4008  0.2344 -2.7463
 4089TIP3   OH236461   5.897   3.849   9.983 -0.1485 -0.5991 -0.2457
 4089TIP3    H136462   5.817   3.798   9.968  0.3300 -0.5851 -3.6146
 4089TIP3    H236463   5.966   3.783   9.993 -0.3478 -0.5945  1.3986
 4090TIP3   OH236464   1.992   2.229  10.093 -0.5923 -0.6056  0.2896
 4090TIP3    H136465   1.943   2.279  10.027  0.4325  0.4418  0.2822
 4090TIP3    H236466   2.027   2.154  10.045 -0.5237 -0.2771 -0.1816
 4091TIP3   OH236467   3.764   6.628   8.725 -0.0759 -0.1437  0.1959
 4091TIP3    H136468   3.835   6.690   8.745 -2.8441  3.1693  0.6689
 4091TIP3    H236469   3.780   6.603   8.633  2.6385 -1.0434  0.8103
 4092TIP3   OH236470   0.244   4.723  10.697  0.1978 -0.2576 -0.1997
 4092TIP3    H136471   0.331   4.688  10.684 -0.0550  0.0490 -3.6713
 4092TIP3    H236472   0.253   4.817  10.679 -0.7775 -0.1535 -0.2094
 4093TIP3   OH236473   6.588   3.241  12.038  0.3244 -0.2169 -0.0641
 4093TIP3    H136474   6.679   3.215  12.052  0.7220  1.1446 -0.0334
 4093TIP3    H236475   6.551   3.170  11.985  1.0348 -1.4183  0.9813
 4094TIP3   OH236476   4.151   1.281  10.217 -0.5329  0.1308  0.0279
 4094TIP3    H136477   4.130   1.355  10.160  0.2804  0.4866  0.1836
 4094TIP3    H236478   4.133   1.204  10.163  2.3446  0.4550 -1.5567
 4095TIP3   OH236479   0.895   0.076  10.700  0.1668  0.2296 -0.4061
 4095TIP3    H136480   0.800   0.087  10.689  0.1306  1.1596  0.7620
 4095TIP3    H236481   0.921   0.143  10.763  1.6455  0.0969 -0.8314
 4096TIP3   OH236482   0.465   1.543   9.235 -0.1984 -0.4231  0.3696
 4096TIP3    H136483   0.555   1.547   9.267 -0.3226 -0.5598  0.7404
 4096TIP3    H236484   0.472   1.508   9.146  0.4397  2.8447 -0.9963
 4097TIP3   OH236485   0.444   2.182   9.710  0.3090 -0.1116 -0.0063
 4097TIP3    H136486   0.411   2.173   9.620  1.6900  1.8109 -0.7715
 4097TIP3    H236487   0.538   2.166   9.702  0.9816  2.9958  0.4836
 4098TIP3   OH236488   3.333   5.306  10.497 -1.0803  0.2310 -0.3728
 4098TIP3    H136489   3.284   5.377  10.539 -1.0350  0.7528 -1.1672
 4098TIP3    H236490   3.360   5.249  10.569  0.3088  1.8980  0.4940
 4099TIP3   OH236491   0.962   1.093  11.386 -0.0124  0.5259  0.0318
 4099TIP3    H136492   1.017   1.015  11.378  1.2498  1.2176  1.4566
 4099TIP3    H236493   0.877   1.059  11.412  0.5585 -0.3966  0.7722
 4100TIP3   OH236494   5.409   0.853   9.095  0.0903 -0.4968 -0.1178
 4100TIP3    H136495   5.386   0.766   9.063  1.8354 -0.9755 -0.1570
 4100TIP3    H236496   5.489   0.876   9.049  1.3206 -0.1519  2.0610
 4101TIP3   OH236497   0.663   1.770  10.747  0.1027 -0.0040  0.0930
 4101TIP3    H136498   0.754   1.766  10.776  0.0859  2.9697  0.8481
 4101TIP3    H236499   0.669   1.772  10.651  0.9501  1.3453  0.1532
 4102TIP3   OH236500   2.375   4.212  11.205  0.2350 -0.0501  0.7139
 4102TIP3    H136501   2.295   4.164  11.183 -0.4978  1.8486 -1.0426
 4102TIP3    H236502   2.446   4.160  11.167 -0.4135 -0.4565  0.0457
 4103TIP3   OH236503   0.116   5.155  11.206 -0.4490  0.0507 -0.1868
 4103TIP3    H136504   0.185   5.117  11.261 -0.8871 -0.6421 -0.0984
 4103TIP3    H236505   0.072   5.218  11.261 -0.9446 -0.7058  0.3046
 4104TIP3   OH236506   5.548   1.945   9.606 -0.4623 -0.3996 -0.3019
 4104TIP3    H136507   5.608   1.985   9.669 -1.1811  1.3052 -0.6561
 4104TIP3    H236508   5.589   1.861   9.585  0.5755 -0.3263  1.2477
 4105TIP3   OH236509   3.224   5.091   9.387  0.1305 -0.5359 -0.6297
 4105TIP3    H136510   3.234   5.134   9.302  0.6409  1.9148  0.5975
 4105TIP3    H236511   3.233   5.161   9.451 -1.4635 -2.1021  1.4495
 4106TIP3   OH236512   1.704   6.078  10.657  0.3433  0.6092  0.3508
 4106TIP3    H136513   1.712   6.069  10.562 -3.1006 -0.2657  0.0301
 4106TIP3    H236514   1.724   5.991  10.691  0.5050  0.6396  0.3345
 4107TIP3   OH236515   1.974   3.593  10.273 -0.5843  0.6419 -0.0837
 4107TIP3    H136516   2.028   3.612  10.196  1.5222 -0.9694  0.8750
 4107TIP3    H236517   1.973   3.498  10.278 -0.7616  0.7053  1.7809
 4108TIP3   OH236518   5.076   4.906  10.595 -0.2144  0.4925  0.5560
 4108TIP3    H136519   5.092   4.830  10.540  0.9967  0.1094  1.3880
 4108TIP3    H236520   4.991   4.889  10.636 -1.9371  1.5404 -2.3418
 4109TIP3   OH236521   0.306   3.641   8.866  0.1272  0.0020  0.7650
 4109TIP3    H136522   0.397   3.633   8.895  0.6516 -1.8952 -1.1456
 4109TIP3    H236523   0.312   3.677   8.778 -0.9370 -0.8006  0.3522
 4110TIP3   OH236524   6.006   6.293  10.943  0.2054  0.3592  0.5254
 4110TIP3    H136525   6.024   6.359  11.010 -0.3180  0.0530  0.9729
 4110TIP3    H236526   5.979   6.344  10.866 -0.9555  0.6527  1.1005
 4111TIP3   OH236527   1.403   2.197  11.677  0.3301 -0.4633  0.0692
 4111TIP3    H136528   1.443   2.283  11.674  0.7771 -0.6561  0.4173
 4111TIP3    H236529   1.385   2.176  11.585  0.1257  0.0371 -0.0086
 4112TIP3   OH236530   2.821   3.416  11.065  0.0601 -0.1509  0.2678
 4112TIP3    H136531   2.762   3.343  11.047 -0.5184  0.7766 -2.0203
 4112TIP3    H236532   2.884   3.414  10.992  0.8409  0.8346  0.8913
 4113TIP3   OH236533   6.103   5.706   9.688  0.2514  0.1809  0.7907
 4113TIP3    H136534   6.046   5.706   9.611  0.8791  0.1868  0.3220
 4113TIP3    H236535   6.164   5.633   9.672  1.2264  1.0130  0.6481
 4114TIP3   OH236536   2.613   5.277   8.214  0.1440 -0.4272 -0.7128
 4114TIP3    H136537   2.530   5.318   8.238 -0.2815 -1.1835 -0.8714
 4114TIP3    H236538   2.614   5.282   8.118  1.1769  1.2956 -0.6657
 4115TIP3   OH236539   6.334   0.595   9.745  0.3021  0.5243  0.4952
 4115TIP3    H136540   6.247   0.628   9.767 -0.1591 -0.6673  0.5556
 4115TIP3    H236541   6.340   0.511   9.790  1.1364  0.1764 -0.2278
 4116TIP3   OH236542   4.123   3.363   9.602 -0.6248  0.3451  0.1160
 4116TIP3    H136543   4.070   3.441   9.586 -0.5798  0.7767  1.8309
 4116TIP3    H236544   4.122   3.353   9.697  0.7923 -0.7552  0.0499
 4117TIP3   OH236545   1.238   2.113  10.000 -0.6145 -0.3886  0.1792
 4117TIP3    H136546   1.202   2.183  10.054 -2.6325 -0.5542 -0.8827
 4117TIP3    H236547   1.210   2.033  10.044 -1.0487 -0.5229 -0.3382
 4118TIP3   OH236548   6.120   1.210   8.992  0.1333 -0.0412 -0.0619
 4118TIP3    H136549   6.162   1.288   9.026 -0.2329  0.1819 -0.1167
 4118TIP3    H236550   6.083   1.166   9.069  0.3368 -0.1586 -0.0320
 4119TIP3   OH236551   6.337   4.473   9.780  0.0196 -0.2661  0.1897
 4119TIP3    H136552   6.297   4.430   9.705  1.2385  0.9936 -1.2490
 4119TIP3    H236553   6.386   4.405   9.825  0.1962 -0.8033 -0.8081
 4120TIP3   OH236554   4.392   4.097  10.762  0.5858 -1.1796 -0.1931
 4120TIP3    H136555   4.297   4.106  10.755  0.7688 -0.3409 -2.1599
 4120TIP3    H236556   4.414   4.147  10.841 -0.6753 -2.3938  1.0139
 4121TIP3   OH236557   1.602   5.530   9.854 -0.2870 -0.5141 -0.3132
 4121TIP3    H136558   1.527   5.588   9.865  0.7445  0.8635 -0.2336
 4121TIP3    H236559   1.566   5.450   9.817 -1.8870 -0.1557  0.3903
 4122TIP3   OH236560   0.621   2.771  11.231  0.0562 -0.2511  0.1024
 4122TIP3    H136561   0.601   2.725  11.313 -0.9575 -1.1236 -0.6026
 4122TIP3    H236562   0.561   2.732  11.167 -0.3357  1.5652 -0.6968
 4123TIP3   OH236563   4.649   0.377   9.599 -0.0022 -0.6079 -0.3155
 4123TIP3    H136564   4.734   0.393   9.559  0.4578  0.4398  0.9987
 4123TIP3    H236565   4.599   0.457   9.580 -0.3640 -0.8241 -0.2793
 4124TIP3   OH236566   0.402   5.900  11.946 -0.4077  0.3534  0.4875
 4124TIP3    H136567   0.310   5.903  11.920 -0.3255 -0.7470  0.0383
 4124TIP3    H236568   0.434   5.989  11.929 -0.5801 -0.0540 -2.4309
 4125TIP3   OH236569   5.747   5.059  11.166  0.0950  0.1859 -0.3322
 4125TIP3    H136570   5.830   5.024  11.197 -0.6385 -1.7129 -0.3521
 4125TIP3    H236571   5.689   4.983  11.164 -1.7084  1.4935 -0.1067
 4126TIP3   OH236572   1.517   3.956   9.679 -0.2656  0.1807 -0.3786
 4126TIP3    H136573   1.486   3.976   9.591  0.2621  1.7749 -0.2433
 4126TIP3    H236574   1.474   4.021   9.735 -1.4140 -1.4684  0.7198
 4127TIP3   OH236575   3.616   3.653   9.023 -0.7585 -0.7258 -0.0531
 4127TIP3    H136576   3.547   3.716   8.999 -0.1871  0.2272  0.7038
 4127TIP3    H236577   3.613   3.650   9.119 -2.7538 -4.1678 -0.0938
 4128TIP3   OH236578   5.785   5.332  11.181 -0.6150 -0.6356  0.1585
 4128TIP3    H136579   5.702   5.348  11.225 -1.1982  0.7772 -1.3330
 4128TIP3    H236580   5.781   5.241  11.152 -1.2674 -0.8301  0.8400
 4129TIP3   OH236581   6.532   5.831  10.982 -0.0195 -0.6765 -0.7757
 4129TIP3    H136582   6.611   5.872  11.018 -1.4448 -0.5286  2.5175
 4129TIP3    H236583   6.506   5.890  10.911  1.1437  0.9858  0.0870
 4130TIP3   OH236584   0.305   4.031  11.386  0.5067  0.5688  0.3325
 4130TIP3    H136585   0.381   4.002  11.335 -0.0721 -2.0521  0.8536
 4130TIP3    H236586   0.273   4.108  11.339  2.1061  0.3560 -1.2124
 4131TIP3   OH236587   3.480   4.063  10.255  0.2727  0.8145 -0.4581
 4131TIP3    H136588   3.510   3.972  10.250 -1.3372  0.2689 -0.8102
 4131TIP3    H236589   3.528   4.107  10.185  1.2530  0.3038 -0.1274
 4132TIP3   OH236590   5.051   1.613  10.727 -0.0238 -0.2014 -0.0414
 4132TIP3    H136591   5.013   1.560  10.657  1.3819  0.0650 -1.0591
 4132TIP3    H236592   4.977   1.655  10.770 -0.8319  1.7861 -3.1100
 4133TIP3   OH236593   2.803   1.335  11.613 -0.1981 -0.2735 -0.0296
 4133TIP3    H136594   2.772   1.245  11.601 -1.2035  0.1167 -0.4646
 4133TIP3    H236595   2.768   1.362  11.697 -1.1721  0.2046 -0.5701
 4134TIP3   OH236596   4.633   2.115   9.021 -0.0838  0.2914 -0.1480
 4134TIP3    H136597   4.710   2.158   8.983 -0.3226  1.6997  0.8703
 4134TIP3    H236598   4.621   2.159   9.105 -1.6535 -0.3236 -0.0261
 4135TIP3   OH236599   0.761   3.580  11.529 -0.1018 -0.0965 -0.4284
 4135TIP3    H136600   0.740   3.490  11.504 -0.2285 -0.1876  0.0144
 4135TIP3    H236601   0.791   3.574  11.619 -1.3416  0.4823  0.0427
 4136TIP3   OH236602   3.178   3.479  10.623 -0.1881 -0.0809  0.3877
 4136TIP3    H136603   3.123   3.400  10.622  2.0284 -1.7337 -0.3170
 4136TIP3    H236604   3.228   3.472  10.704 -1.5813  1.9037  1.4979
 4137TIP3   OH236605   0.720   3.757  10.222 -0.2688  0.3641  0.5287
 4137TIP3    H136606   0.667   3.745  10.143  1.7945  0.9379 -1.0413
 4137TIP3    H236607   0.810   3.747  10.192  0.5918  0.2741  2.9067
 4138TIP3   OH236608   0.292   4.082   9.954 -0.0141 -0.2686 -0.1781
 4138TIP3    H136609   0.289   4.031  10.034 -2.2100 -0.1354 -0.0975
 4138TIP3    H236610   0.313   4.171   9.983 -1.0388 -0.1712  0.3020
 4139TIP3   OH236611   3.786   6.625  11.571  0.0416  0.0229 -0.8405
 4139TIP3    H136612   3.793   6.530  11.582 -0.8920 -0.1663 -1.7083
 4139TIP3    H236613   3.862   6.649  11.519  0.7270 -0.1093  0.0722
 4140TIP3   OH236614   3.393   0.822  10.783  0.2798  0.4058  0.4622
 4140TIP3    H136615   3.311   0.866  10.804  1.0279  1.8680  0.4357
 4140TIP3    H236616   3.432   0.804  10.869  0.9916  1.8377  0.4743
 4141TIP3   OH236617   1.205   2.886  11.326 -0.1501  0.2721 -0.5495
 4141TIP3    H136618   1.162   2.959  11.281 -0.1618 -0.1208 -1.1861
 4141TIP3    H236619   1.214   2.819  11.259  0.8477  0.0947 -0.2510
 4142TIP3   OH236620   5.876   3.299   9.022  0.0090  0.0600 -0.5474
 4142TIP3    H136621   5.805   3.312   8.960  0.1519  0.9988 -0.5313
 4142TIP3    H236622   5.937   3.241   8.977  0.0940  0.7006 -1.2853
 4143TIP3   OH236623   4.999   2.575  11.381  0.2355 -0.2534  0.3253
 4143TIP3    H136624   5.077   2.630  11.377 -0.2680  0.5444  1.1734
 4143TIP3    H236625   5.030   2.493  11.421  0.7958 -0.2446 -0.0849
 4144TIP3   OH236626   3.084   1.129  11.299  0.1698 -0.6955 -0.0584
 4144TIP3    H136627   3.129   1.165  11.376  0.0148 -0.6840  0.0271
 4144TIP3    H236628   3.002   1.094  11.333 -0.9025  1.2158 -0.5187
 4145TIP3   OH236629   6.806   3.422   8.804  0.1000 -0.2292 -0.7426
 4145TIP3    H136630   6.878   3.453   8.859  0.2091 -1.9856  0.1770
 4145TIP3    H236631   6.739   3.489   8.812 -0.3128 -0.8552  2.4445
 4146TIP3   OH236632   6.663   4.113   9.615  0.1110  0.6904 -0.3363
 4146TIP3    H136633   6.690   4.028   9.579 -2.2223 -0.1674 -0.2659
 4146TIP3    H236634   6.683   4.176   9.545 -1.4091 -0.4805 -1.9334
 4147TIP3   OH236635   4.040   3.530  11.442 -0.0138  0.0764  0.2614
 4147TIP3    H136636   3.998   3.491  11.518  1.0014 -1.9322 -0.1263
 4147TIP3    H236637   4.124   3.561  11.474  1.2006 -2.4063 -0.3056
 4148TIP3   OH236638   2.822   5.628  11.559 -0.4685 -0.2417 -0.6680
 4148TIP3    H136639   2.917   5.626  11.553 -0.2978  1.3699  0.6984
 4148TIP3    H236640   2.796   5.709  11.516 -1.1555 -0.3138 -0.4106
 4149TIP3   OH236641   5.356   5.520  11.966 -0.4127  0.5137  0.0186
 4149TIP3    H136642   5.430   5.481  11.920 -0.5506  0.1138  0.1296
 4149TIP3    H236643   5.392   5.599  12.008 -0.4529  1.2837 -1.3571
 4150TIP3   OH236644   4.140   1.342  11.660  0.0139 -0.0587  0.0434
 4150TIP3    H136645   4.100   1.270  11.610  0.9247 -1.6577  1.5336
 4150TIP3    H236646   4.119   1.421  11.609 -0.5703 -1.4176 -1.9218
 4151TIP3   OH236647   5.220   4.906  10.262  0.4232  0.5561 -0.0992
 4151TIP3    H136648   5.271   4.898  10.182 -0.0034  0.4449 -0.3654
 4151TIP3    H236649   5.285   4.905  10.332  0.7094 -0.8442 -0.3520
 4152TIP3   OH236650   4.532   5.741   9.759  0.6098  0.3708  0.1221
 4152TIP3    H136651   4.614   5.696   9.739  0.5181 -0.1377  0.8373
 4152TIP3    H236652   4.528   5.813   9.696  0.7153 -0.6734 -1.1432
 4153TIP3   OH236653   5.159   4.802  11.630  0.1869 -0.1275  0.5028
 4153TIP3    H136654   5.144   4.816  11.537 -1.9029  1.2428  0.9788
 4153TIP3    H236655   5.162   4.706  11.640 -1.4855 -0.3475 -0.7317
 4154TIP3   OH236656   1.811   6.468  11.560 -0.1964 -0.5403 -0.0147
 4154TIP3    H136657   1.819   6.563  11.552  1.4874 -0.6794 -0.1909
 4154TIP3    H236658   1.838   6.434  11.475 -0.1846 -1.2019  0.2493
 4155TIP3   OH236659   3.745   0.351  10.909 -0.1661 -0.2573  0.4180
 4155TIP3    H136660   3.787   0.422  10.958  0.7047 -0.6441  0.2540
 4155TIP3    H236661   3.685   0.310  10.972  2.1714 -1.8495  1.7910
 4156TIP3   OH236662   0.227   4.525  10.312 -0.0166 -0.4460 -0.2066
 4156TIP3    H136663   0.196   4.509  10.401 -0.0053 -0.3712 -0.1886
 4156TIP3    H236664   0.148   4.518  10.258 -0.9465  3.6709  0.2486
 4157TIP3   OH236665   5.886   4.854  10.674  0.0844  0.6850  0.3504
 4157TIP3    H136666   5.894   4.945  10.648 -1.3018  0.6292 -0.3465
 4157TIP3    H236667   5.841   4.811  10.601  0.8635 -0.5925  0.5892
 4158TIP3   OH236668   2.419   3.451  10.711 -0.2025 -0.2311 -0.4660
 4158TIP3    H136669   2.359   3.469  10.783 -0.1845  0.2604 -0.5717
 4158TIP3    H236670   2.363   3.418  10.640 -0.2548 -0.4460 -0.3261
 4159TIP3   OH236671   1.169   1.956   9.505 -0.1284  0.4629 -0.8049
 4159TIP3    H136672   1.099   1.985   9.563 -0.2811 -0.3370 -0.5881
 4159TIP3    H236673   1.202   1.876   9.545 -1.9719 -1.6128 -3.1223
 4160TIP3   OH236674   3.141   5.473  11.310  0.0169 -0.1685  0.2841
 4160TIP3    H136675   3.165   5.490  11.401  0.5776  0.8819 -0.0539
 4160TIP3    H236676   3.163   5.553  11.263  0.4853 -0.9755 -0.9301
 4161TIP3   OH236677   2.463   3.688   9.586 -0.2783  0.0680  0.1274
 4161TIP3    H136678   2.370   3.675   9.605 -0.0404  0.7366  1.9806
 4161TIP3    H236679   2.508   3.644   9.658  0.8373  0.1357 -0.5113
 4162TIP3   OH236680   3.265   4.064   9.873  0.3182  0.1969  0.2657
 4162TIP3    H136681   3.333   4.126   9.845 -1.4566  0.4790 -4.2613
 4162TIP3    H236682   3.269   3.993   9.810 -1.3478 -1.5724  1.9954
 4163TIP3   OH236683   6.220   3.478  10.560  0.0337  0.3062 -0.0957
 4163TIP3    H136684   6.178   3.492  10.646 -1.7738 -0.3106 -0.8221
 4163TIP3    H236685   6.224   3.565  10.521 -0.0550  0.4553  0.2226
 4164TIP3   OH236686   3.137   2.991   8.362 -0.3990  0.4760 -0.2610
 4164TIP3    H136687   3.159   3.044   8.284  2.0531  0.5190  0.3812
 4164TIP3    H236688   3.149   3.051   8.435 -1.1831  0.0111  0.2538
 4165TIP3   OH236689   6.530   0.907   9.415  0.7442  0.3977  0.1123
 4165TIP3    H136690   6.602   0.848   9.436 -0.1643 -2.5855 -3.8632
 4165TIP3    H236691   6.568   0.971   9.355  0.8339  1.3731  1.1687
 4166TIP3   OH236692   4.680   2.993   9.273  0.1278 -0.2444 -0.2652
 4166TIP3    H136693   4.667   2.952   9.358  1.9224 -1.1516 -0.3713
 4166TIP3    H236694   4.592   3.003   9.237 -0.8185  1.4372  2.2317
 4167TIP3   OH236695   2.989   5.261  10.855  0.1241  0.0400 -0.0344
 4167TIP3    H136696   3.073   5.305  10.863  1.3962 -2.4744  2.9552
 4167TIP3    H236697   2.949   5.270  10.942 -1.6122 -0.7990 -0.6881
 4168TIP3   OH236698   1.793   0.106  11.329 -0.1543  0.0663 -0.2862
 4168TIP3    H136699   1.703   0.140  11.338 -0.3049 -0.1017 -1.0479
 4168TIP3    H236700   1.795   0.029  11.386 -0.2812  0.4602  0.2620
 4169TIP3   OH236701   6.836   5.764  10.309  0.2314  0.9321  0.3273
 4169TIP3    H136702   6.915   5.808  10.278  1.2169  1.1396  2.9198
 4169TIP3    H236703   6.834   5.781  10.403 -0.8172 -2.2729  1.0129
 4170TIP3   OH236704   2.694   4.046  10.444  0.2286  0.1271  0.1999
 4170TIP3    H136705   2.614   4.039  10.391  0.7608  0.2949 -0.6277
 4170TIP3    H236706   2.764   4.019  10.386  0.9263  1.1437  0.5432
 4171TIP3   OH236707   1.898   1.830  11.652 -0.1714 -0.3794  0.2665
 4171TIP3    H136708   1.812   1.796  11.629 -0.4270 -0.8050  1.7570
 4171TIP3    H236709   1.884   1.923  11.671 -0.2029 -0.3270 -0.0169
 4172TIP3   OH236710   3.567   0.395   9.732  0.1165  0.2643  0.0141
 4172TIP3    H136711   3.476   0.423   9.716  0.1574  0.5669  0.3096
 4172TIP3    H236712   3.612   0.417   9.650 -0.3035 -0.9014 -0.5600
 4173TIP3   OH236713   2.288   3.513  11.299  0.5184 -0.1115 -0.2204
 4173TIP3    H136714   2.296   3.455  11.375  0.9038  1.4234  0.9534
 4173TIP3    H236715   2.196   3.541  11.299  0.5177 -0.1113 -0.3302
 4174TIP3   OH236716   4.742   2.086   9.883 -0.3072 -0.1257 -0.7781
 4174TIP3    H136717   4.677   2.140   9.928 -0.0139  0.9394 -1.6000
 4174TIP3    H236718   4.804   2.148   9.846  2.3289 -1.1790  1.5701
 4175TIP3   OH236719   2.441   4.274   8.632  0.3389  0.1266  0.6528
 4175TIP3    H136720   2.391   4.323   8.566  0.5589 -1.5226 -0.8002
 4175TIP3    H236721   2.406   4.186   8.629  2.4673 -0.7801  0.4540
 4176TIP3   OH236722   5.607   0.325  11.705 -0.0804 -0.1648  0.0269
 4176TIP3    H136723   5.677   0.328  11.770  1.3672  0.8696 -1.5011
 4176TIP3    H236724   5.526   0.330  11.756  1.0169  2.9384  1.7013
 4177TIP3   OH236725   5.837   3.872   8.827  0.3984  0.2563  0.2885
 4177TIP3    H136726   5.809   3.883   8.918 -0.0839 -2.6035  0.6080
 4177TIP3    H236727   5.826   3.778   8.811  3.8131  0.0170 -1.6240
 4178TIP3   OH236728   3.285   5.503  11.053  0.4759 -0.0490  0.0975
 4178TIP3    H136729   3.247   5.435  11.108 -0.9936  0.4119 -0.3266
 4178TIP3    H236730   3.373   5.516  11.090  1.0672 -2.6224 -0.2421
 4179TIP3   OH236731   6.479   2.267   8.955 -0.3464  0.1977 -0.1968
 4179TIP3    H136732   6.538   2.290   8.883  0.4445 -0.7881  0.1175
 4179TIP3    H236733   6.423   2.198   8.919 -0.2739  0.0462 -0.0235
 4180TIP3   OH236734   2.583   1.322  11.307 -0.0996  0.0583  0.1570
 4180TIP3    H136735   2.674   1.330  11.277 -0.5384  0.8624 -1.0207
 4180TIP3    H236736   2.549   1.246  11.262 -0.1801  0.0949  0.1562
 4181TIP3   OH236737   2.256   0.649   8.767  0.3791  0.5492 -0.5540
 4181TIP3    H136738   2.331   0.708   8.772 -0.6377  1.9467 -1.2541
 4181TIP3    H236739   2.258   0.615   8.678  1.0340 -0.6070 -0.1161
 4182TIP3   OH236740   0.849   1.700  11.802 -0.4298 -0.2469  0.2979
 4182TIP3    H136741   0.848   1.784  11.756  0.0058 -0.6214 -0.4262
 4182TIP3    H236742   0.908   1.714  11.876  0.1643 -0.0954 -0.1950
 4183TIP3   OH236743   0.727   0.117  11.206  0.0353 -0.3600 -0.4750
 4183TIP3    H136744   0.683   0.050  11.258  0.1890 -1.3845 -1.6222
 4183TIP3    H236745   0.810   0.133  11.252 -0.2919 -0.4577  0.1660
 4184TIP3   OH236746   0.160   2.322   9.760  0.0699  0.6562  0.3581
 4184TIP3    H136747   0.081   2.329   9.813 -1.0092 -2.2390 -0.7184
 4184TIP3    H236748   0.192   2.234   9.776  0.6293  0.2465 -2.5237
 4185TIP3   OH236749   1.877   6.510   8.153  0.1806  0.2651  0.1981
 4185TIP3    H136750   1.881   6.452   8.230  2.3445  0.9303  0.6768
 4185TIP3    H236751   1.899   6.597   8.188 -0.1976  0.8480 -0.9661
 4186TIP3   OH236752   2.446   2.909  11.110 -0.7633 -0.2696  0.4926
 4186TIP3    H136753   2.377   2.850  11.140 -0.9496 -0.7021 -0.7102
 4186TIP3    H236754   2.514   2.851  11.075 -0.1664  0.1838  0.8765
 4187TIP3   OH236755   6.335   5.309   9.039  0.5476 -0.2790 -0.3876
 4187TIP3    H136756   6.387   5.243   9.086  1.0134  1.0685  1.0683
 4187TIP3    H236757   6.245   5.278   9.046  0.5853 -0.0570  1.5798
 4188TIP3   OH236758   5.604   3.449  10.398  0.0498  0.5278  0.1663
 4188TIP3    H136759   5.671   3.484  10.338  1.8825 -1.8561  0.6554
 4188TIP3    H236760   5.581   3.363  10.361 -1.3376  0.4830  1.0568
 4189TIP3   OH236761   4.415   4.541   9.392 -0.4269 -0.6190 -0.0635
 4189TIP3    H136762   4.342   4.481   9.373 -0.7823 -0.9408  2.0094
 4189TIP3    H236763   4.463   4.497   9.463  1.3328 -0.0290 -0.8513
 4190TIP3   OH236764   4.816   4.685   9.505 -0.3726 -0.1815 -0.5783
 4190TIP3    H136765   4.830   4.779   9.496 -1.0902 -0.0150 -0.0261
 4190TIP3    H236766   4.888   4.645   9.455 -0.6950  0.6550 -1.7594
 4191TIP3   OH236767   4.369   2.397  11.154  0.0976  0.3664 -0.1999
 4191TIP3    H136768   4.375   2.398  11.059  0.3485 -0.9233 -0.2146
 4191TIP3    H236769   4.287   2.442  11.174  0.4185  1.3059 -0.9836
 4192TIP3   OH236770   4.522   3.811   9.202  0.2393 -0.2738  0.1340
 4192TIP3    H136771   4.568   3.745   9.150 -0.6536 -2.8728  2.3699
 4192TIP3    H236772   4.484   3.761   9.275 -2.6193  2.3464  0.6473
 4193TIP3   OH236773   0.703   1.050  11.502  0.0967 -1.0697 -0.3370
 4193TIP3    H136774   0.704   0.988  11.574  0.4702 -3.1740 -2.0645
 4193TIP3    H236775   0.612   1.053  11.473  0.0940 -0.8462 -0.3130
 4194TIP3   OH236776   3.054   5.993  10.349 -0.8139 -0.3991 -0.1323
 4194TIP3    H136777   2.966   6.010  10.318 -0.9208  0.1510  0.4692
 4194TIP3    H236778   3.103   6.073  10.331 -0.4514 -0.6715 -0.3928
 4195TIP3   OH236779   5.339   4.972   9.471  0.0580 -0.2030 -0.0192
 4195TIP3    H136780   5.395   4.910   9.425 -0.6056 -1.3620  0.7038
 4195TIP3    H236781   5.395   5.049   9.485  0.5014 -0.1151 -2.0293
 4196TIP3   OH236782   5.493   2.452  10.347 -0.1880 -0.0621  0.8179
 4196TIP3    H136783   5.574   2.452  10.398 -0.2096  2.6137  1.0089
 4196TIP3    H236784   5.515   2.407  10.266  2.7560  3.7734 -0.8076
 4197TIP3   OH236785   5.593   4.837  11.128  0.2176  1.1430 -0.7554
 4197TIP3    H136786   5.571   4.763  11.185 -2.3700  2.1533 -0.2939
 4197TIP3    H236787   5.620   4.797  11.045 -2.4596 -0.4113 -1.0042
 4198TIP3   OH236788   1.321   3.933  10.104  0.4209 -0.2845 -0.3874
 4198TIP3    H136789   1.331   3.911  10.012  1.0984 -0.0120 -0.3850
 4198TIP3    H236790   1.380   3.873  10.150  1.5433  0.8510 -0.3023
 4199TIP3   OH236791   0.165   6.101  11.615  0.5730 -0.1218  0.9280
 4199TIP3    H136792   0.140   6.141  11.532  0.4340 -1.4494  0.2978
 4199TIP3    H236793   0.256   6.073  11.602  0.0258 -1.8769  0.5617
 4200TIP3   OH236794   3.798   4.714  11.073  0.3582 -0.1714  0.2807
 4200TIP3    H136795   3.755   4.757  11.146  0.2571 -0.5192  0.4285
 4200TIP3    H236796   3.727   4.674  11.023  0.5494 -1.5227  1.0200
 4201TIP3   OH236797   1.812   5.876   9.211 -0.2062  0.0203  0.2869
 4201TIP3    H136798   1.839   5.833   9.131  0.6760 -0.3325  0.7633
 4201TIP3    H236799   1.756   5.949   9.182 -1.8335 -1.4819 -0.5309
 4202TIP3   OH236800   0.958   2.333   9.412 -0.0784  0.3104  0.4708
 4202TIP3    H136801   0.878   2.378   9.386 -0.3169  0.1355  0.8852
 4202TIP3    H236802   0.962   2.343   9.507 -0.3688 -0.9102  0.6276
 4203TIP3   OH236803   0.670   5.464   9.742  0.2359 -0.7484  0.8130
 4203TIP3    H136804   0.596   5.477   9.801 -0.2623  1.4916 -0.2052
 4203TIP3    H236805   0.634   5.414   9.669 -0.7441  1.5451 -0.3718
 4204TIP3   OH236806   3.860   3.722   8.171 -0.1665 -0.2671  0.0880
 4204TIP3    H136807   3.901   3.673   8.242  0.7464 -0.9436 -0.8746
 4204TIP3    H236808   3.874   3.814   8.193 -2.0370 -0.3706  1.9991
 4205TIP3   OH236809   6.606   6.328   9.532 -0.4170 -0.6363  0.1904
 4205TIP3    H136810   6.588   6.270   9.458 -2.5430  0.0741  0.0581
 4205TIP3    H236811   6.524   6.377   9.543  0.9277  1.5583  0.9781
 4206TIP3   OH236812   0.069   5.621  11.305 -0.5078  0.2144 -0.0084
 4206TIP3    H136813   0.112   5.676  11.370  2.9078 -1.1017 -0.9642
 4206TIP3    H236814   0.073   5.533  11.341  2.0955 -0.6729 -2.0789
 4207TIP3   OH236815   1.866   4.684  10.276 -0.4544  0.3734  0.0819
 4207TIP3    H136816   1.881   4.590  10.268 -0.4006  0.5252 -2.8989
 4207TIP3    H236817   1.776   4.696  10.245 -0.8164  1.2300  1.3945
 4208TIP3   OH236818   6.162   0.969  11.850 -0.1568  0.0143 -0.1022
 4208TIP3    H136819   6.249   0.949  11.884 -0.5118 -1.4558 -0.0122
 4208TIP3    H236820   6.144   0.900  11.786 -1.8147 -0.5244  0.8800
 4209TIP3   OH236821   0.045   5.054   9.660 -0.4519 -0.3413  0.1325
 4209TIP3    H136822   0.088   5.041   9.745 -1.1012 -1.2390  0.3481
 4209TIP3    H236823   0.116   5.073   9.599 -0.1746  4.1178  1.4784
 4210TIP3   OH236824   4.030   4.514   8.928  0.6869  0.6530 -0.2034
 4210TIP3    H136825   4.044   4.574   9.001 -0.6851 -0.2059  0.8177
 4210TIP3    H236826   3.936   4.495   8.931  0.7992 -0.2150 -1.5589
 4211TIP3   OH236827   3.354   6.558   9.551  0.6315 -0.2586  0.0218
 4211TIP3    H136828   3.428   6.516   9.507 -0.0240 -2.7341  1.0642
 4211TIP3    H236829   3.393   6.609   9.622  1.3850 -2.2151  1.0982
 4212TIP3   OH236830   4.186   2.693   9.590  0.3912  0.8364  0.1630
 4212TIP3    H136831   4.090   2.690   9.589  0.3756 -1.7756  1.0981
 4212TIP3    H236832   4.207   2.744   9.668 -0.3643 -1.1594  1.7951
 4213TIP3   OH236833   2.903   0.242   9.680 -0.0248  0.0792 -0.6045
 4213TIP3    H136834   2.972   0.293   9.723 -0.2922  1.1835 -1.4266
 4213TIP3    H236835   2.839   0.226   9.749  0.8760 -0.6579  0.0825
 4214TIP3   OH236836   0.491   5.950  10.917 -0.2478 -0.0408 -0.4244
 4214TIP3    H136837   0.563   5.892  10.943  0.0299  0.5737  0.1863
 4214TIP3    H236838   0.413   5.895  10.925  0.1785 -0.8337 -1.4839
 4215TIP3   OH236839   3.487   2.307  11.220  0.2362 -0.1112  0.0004
 4215TIP3    H136840   3.486   2.233  11.280 -0.1382  1.2179  1.7102
 4215TIP3    H236841   3.397   2.315  11.190  0.2277 -0.2111 -0.0010
 4216TIP3   OH236842   5.744   0.380  10.676  0.3026 -0.4441 -0.2637
 4216TIP3    H136843   5.830   0.420  10.689 -0.1827  1.7089 -2.8264
 4216TIP3    H236844   5.682   0.443  10.711 -0.3350 -2.0960  1.8027
 4217TIP3   OH236845   0.504   1.788  11.772 -0.1551 -0.2481  0.5118
 4217TIP3    H136846   0.543   1.733  11.840 -0.3217 -1.3039 -0.2225
 4217TIP3    H236847   0.437   1.733  11.732  1.3248 -0.4395 -1.9066
 4218TIP3   OH236848   5.670   6.414   9.520 -0.3964 -1.0382  0.4616
 4218TIP3    H136849   5.608   6.342   9.516 -0.7767 -0.8190  1.8612
 4218TIP3    H236850   5.669   6.442   9.612  2.1044 -1.3177  0.6548
 4219TIP3   OH236851   5.005   5.806   9.335  0.3118  0.0323  0.3477
 4219TIP3    H136852   5.041   5.852   9.410 -0.2782  0.8092  0.1650
 4219TIP3    H236853   4.980   5.875   9.274 -0.7654 -0.5214  0.1455
 4220TIP3   OH236854   5.901   0.112  11.528 -0.3670  0.2607  0.0156
 4220TIP3    H136855   5.883   0.034  11.580 -0.4189 -0.1792 -0.6513
 4220TIP3    H236856   5.989   0.098  11.494 -0.5779  0.2368 -0.5391
 4221TIP3   OH236857   6.021   3.498  10.732 -0.4990 -0.3366 -0.2884
 4221TIP3    H136858   5.965   3.423  10.711 -1.4854 -0.5205  2.5837
 4221TIP3    H236859   5.970   3.574  10.705 -1.2774 -0.5812  0.4602
 4222TIP3   OH236860   6.469   0.894  10.609 -0.7875  0.2019  0.0370
 4222TIP3    H136861   6.461   0.915  10.516 -0.3075 -0.7184 -0.2239
 4222TIP3    H236862   6.415   0.817  10.621  1.3141 -1.3872 -0.1060
 4223TIP3   OH236863   3.498   2.681  11.918  0.2879 -0.2122 -0.3652
 4223TIP3    H136864   3.518   2.752  11.856 -0.3338 -0.0229 -0.3504
 4223TIP3    H236865   3.557   2.610  11.893  0.5842  0.1436 -0.6814
 4224TIP3   OH236866   0.234   5.416  11.048  0.4217  0.0681  0.4043
 4224TIP3    H136867   0.234   5.406  10.953  1.4125 -1.3748  0.5236
 4224TIP3    H236868   0.158   5.367  11.078  1.4606 -1.5637  0.4944
 4225TIP3   OH236869   0.173   5.113  10.933 -0.1119 -0.1106 -0.8803
 4225TIP3    H136870   0.131   5.130  11.017 -0.0224  1.5950 -1.1391
 4225TIP3    H236871   0.230   5.038  10.950 -2.5509 -1.9610 -0.3147
 4226TIP3   OH236872   5.925   5.864   9.498 -0.2408 -0.2179 -0.1454
 4226TIP3    H136873   5.880   5.816   9.430  1.5787 -2.6683  0.2671
 4226TIP3    H236874   5.995   5.911   9.453  1.1832 -2.1136 -0.0438
 4227TIP3   OH236875   6.733   2.361   9.479 -0.1532  0.2000 -0.1865
 4227TIP3    H136876   6.707   2.311   9.402  0.0376 -0.9671  0.4900
 4227TIP3    H236877   6.828   2.352   9.482  0.0975  2.0180 -0.9901
 4228TIP3   OH236878   2.999   4.792  11.421 -0.3336 -0.0066  0.3416
 4228TIP3    H136879   3.002   4.848  11.499 -1.9662 -0.0264  0.4523
 4228TIP3    H236880   3.090   4.788  11.391  0.3354  0.0629  2.2060
 4229TIP3   OH236881   0.634   3.440  10.635  0.3097  0.1632  0.1489
 4229TIP3    H136882   0.662   3.524  10.599  0.0624 -0.3974 -1.4457
 4229TIP3    H236883   0.564   3.411  10.577  1.5941 -1.9591 -0.4796
 4230TIP3   OH236884   1.098   4.665   8.949 -0.3871  0.4241 -0.3568
 4230TIP3    H136885   1.032   4.733   8.962 -2.7558 -1.5115 -1.4442
 4230TIP3    H236886   1.108   4.658   8.854 -0.0457 -0.5854 -0.2620
 4231TIP3   OH236887   4.969   1.028  11.679 -0.0065  0.0590 -0.0025
 4231TIP3    H136888   4.895   1.011  11.621  0.7239  0.9900 -1.2375
 4231TIP3    H236889   4.942   1.105  11.729 -1.0203 -1.2807  1.6302
 4232TIP3   OH236890   6.542   4.353   9.419  0.1948 -0.0373 -0.1538
 4232TIP3    H136891   6.460   4.349   9.468  0.5105  2.0443  0.6716
 4232TIP3    H236892   6.523   4.310   9.336 -1.4775 -0.3388  0.3474
 4233TIP3   OH236893   0.848   5.817  10.481  0.3724 -0.3536  0.7886
 4233TIP3    H136894   0.821   5.740  10.531  0.1125 -0.5331  0.3770
 4233TIP3    H236895   0.809   5.891  10.528 -0.7852 -0.6028  0.2501
 4234TIP3   OH236896   4.553   3.316  10.669 -0.7759  0.0673  0.4910
 4234TIP3    H136897   4.530   3.286  10.581  0.8574 -0.8446  0.3471
 4234TIP3    H236898   4.470   3.314  10.717 -1.8740  1.4382 -1.2293
 4235TIP3   OH236899   1.124   1.329  10.849  0.2682 -0.7049  0.0238
 4235TIP3    H136900   1.032   1.347  10.831  0.3508  0.0872  0.3804
 4235TIP3    H236901   1.163   1.415  10.863  1.3770 -0.8958 -1.5850
 4236TIP3   OH236902   4.690   6.814   9.973  0.3118  0.0879 -0.4149
 4236TIP3    H136903   4.778   6.776   9.970  0.0896 -0.5061  0.2663
 4236TIP3    H236904   4.640   6.762   9.910  0.6093  0.8756 -1.3140
 4237TIP3   OH236905   6.608   5.055   9.637  0.2324 -0.6534  0.1444
 4237TIP3    H136906   6.553   5.080   9.711  0.0131  0.5145 -0.3854
 4237TIP3    H236907   6.697   5.056   9.671  0.0664 -0.9617  0.5992
 4238TIP3   OH236908   0.586   2.284  10.702 -0.4298  0.1824 -0.3570
 4238TIP3    H136909   0.508   2.313  10.749 -0.5778  0.9149 -1.0189
 4238TIP3    H236910   0.623   2.215  10.756 -1.0429  0.4442  0.4154
 4239TIP3   OH236911   6.096   4.151  10.015  0.2997  0.0054 -0.8633
 4239TIP3    H136912   6.038   4.084   9.977 -0.4549 -0.3149  0.7447
 4239TIP3    H236913   6.097   4.131  10.109  1.5715  1.1347 -0.6034
 4240TIP3   OH236914   4.860   2.052  11.457 -0.1836  0.0589  0.2603
 4240TIP3    H136915   4.911   2.134  11.460 -0.8381  0.4445  1.3169
 4240TIP3    H236916   4.914   1.989  11.504  0.5701 -0.2771 -1.0200
 4241TIP3   OH236917   2.563   1.932   9.543 -0.0798 -0.2744 -0.2192
 4241TIP3    H136918   2.529   1.943   9.454 -0.8305  1.4003  0.2308
 4241TIP3    H236919   2.652   1.899   9.531 -0.7597 -1.7779 -1.5145
 4242TIP3   OH236920   1.538   6.354   9.545 -0.3072 -0.0594 -0.0169
 4242TIP3    H136921   1.623   6.333   9.506  0.0142 -1.7706  1.4984
 4242TIP3    H236922   1.494   6.407   9.478  1.4095 -0.2636 -1.3847
 4243TIP3   OH236923   5.356   1.422   9.273 -0.5683 -0.3179  0.4486
 4243TIP3    H136924   5.440   1.452   9.306 -0.1937  0.3666 -1.0451
 4243TIP3    H236925   5.295   1.492   9.296 -0.8553 -1.0282  1.9520
 4244TIP3   OH236926   0.552   5.290   9.554  0.0517  0.2070  0.0596
 4244TIP3    H136927   0.573   5.197   9.558 -0.6171 -0.0556 -1.6317
 4244TIP3    H236928   0.493   5.298   9.479  0.0939  1.9883  0.1755
 4245TIP3   OH236929   0.987   5.338  11.494 -0.3844 -0.7635 -0.0560
 4245TIP3    H136930   0.927   5.388  11.438  1.7087  1.8811 -0.1706
 4245TIP3    H236931   1.070   5.385  11.487  0.7343 -2.0402  3.0043
 4246TIP3   OH236932   1.385   2.861  10.621 -0.6355  0.7628 -0.8659
 4246TIP3    H136933   1.447   2.911  10.568  1.4047 -0.6505  0.0781
 4246TIP3    H236934   1.391   2.899  10.708 -2.1665  1.4896 -1.0421
 4247TIP3   OH236935   1.581   0.751  10.403 -0.1463  0.4286  0.3898
 4247TIP3    H136936   1.656   0.804  10.374  0.6221 -1.2183 -0.7517
 4247TIP3    H236937   1.564   0.782  10.492  1.4055  1.3616  0.4062
 4248TIP3   OH236938   5.915   0.702  11.177  0.0670 -0.2995 -0.2927
 4248TIP3    H136939   5.864   0.708  11.257 -0.0892 -0.2723 -0.3937
 4248TIP3    H236940   6.004   0.683  11.206  0.1591  0.4387 -0.0668
 4249TIP3   OH236941   3.661   1.438   9.763  0.2770 -0.7492  0.0627
 4249TIP3    H136942   3.583   1.447   9.708  0.5656 -0.7753 -0.3628
 4249TIP3    H236943   3.629   1.448   9.852 -0.0391  0.3417 -0.1641
 4250TIP3   OH236944   1.504   0.642   8.761  0.2184 -0.2816  0.4422
 4250TIP3    H136945   1.490   0.720   8.707 -0.4757  0.5509  1.7540
 4250TIP3    H236946   1.465   0.665   8.846  0.7431 -1.7551  1.1134
 4251TIP3   OH236947   3.312   3.116  10.715  0.1280 -0.1162 -0.4257
 4251TIP3    H136948   3.290   3.141  10.625 -0.9451  0.3483 -0.0593
 4251TIP3    H236949   3.317   3.199  10.762  0.1509 -0.3876  0.0581
 4252TIP3   OH236950   1.205   2.871  11.011 -0.4212 -0.0889  0.0240
 4252TIP3    H136951   1.156   2.874  10.929 -0.8882  0.8352  0.3146
 4252TIP3    H236952   1.164   2.939  11.066  0.2714 -0.2699  0.7940
 4253TIP3   OH236953   3.498   1.348  10.596 -0.0613  0.2943  0.3474
 4253TIP3    H136954   3.567   1.329  10.659 -1.5198 -0.3560  1.8294
 4253TIP3    H236955   3.442   1.411  10.641 -1.9134 -1.2470  0.3044
 4254TIP3   OH236956   4.731   1.554  10.608  0.0296  0.2129  0.0949
 4254TIP3    H136957   4.780   1.508  10.539 -0.7036 -0.3649 -0.0534
 4254TIP3    H236958   4.736   1.496  10.684 -0.0950  0.3388  0.1987
 4255TIP3   OH236959   3.442   2.693   9.438  0.2778  0.4658 -0.3501
 4255TIP3    H136960   3.531   2.671   9.465  0.7893  0.4697 -1.9651
 4255TIP3    H236961   3.435   2.787   9.455  1.8504  1.2667 -3.3883
 4256TIP3   OH236962   4.115   3.610   9.920  0.4022  0.0415  0.2315
 4256TIP3    H136963   4.134   3.517   9.905 -0.4128 -0.0522 -0.2927
 4256TIP3    H236964   4.151   3.654   9.843  1.0721  0.2121  0.6296
 4257TIP3   OH236965   0.154   2.854   8.662  0.4757 -0.0389 -0.3439
 4257TIP3    H136966   0.096   2.797   8.713  1.7138 -0.7970  0.2688
 4257TIP3    H236967   0.233   2.802   8.650  1.8432  1.6973  0.6141
 4258TIP3   OH236968   5.240   1.197   9.349 -0.4543 -0.1940  0.0130
 4258TIP3    H136969   5.279   1.272   9.304  0.5979 -0.9743 -0.4012
 4258TIP3    H236970   5.232   1.226   9.440 -0.6630  0.6429 -0.2573
 4259TIP3   OH236971   4.016   2.117  10.486 -0.5386  0.7468 -0.5063
 4259TIP3    H136972   4.001   2.023  10.499 -0.2841  0.6646 -0.8020
 4259TIP3    H236973   3.929   2.154  10.474 -0.9276  0.9777  2.2921
 4260TIP3   OH236974   1.253   1.600  10.911 -0.6252  0.1733 -0.1119
 4260TIP3    H136975   1.335   1.592  10.959 -1.9389 -0.0967  2.2518
 4260TIP3    H236976   1.256   1.688  10.874  0.7518  0.1327 -0.1584
 4261TIP3   OH236977   6.234   1.389  11.548 -0.1175 -0.7795  0.6332
 4261TIP3    H136978   6.160   1.436  11.509 -0.6331 -1.9707  0.1050
 4261TIP3    H236979   6.194   1.311  11.588  0.7021 -0.7682  1.5051
 4262TIP3   OH236980   6.087   2.856   9.061  0.1185  0.4952  0.7136
 4262TIP3    H136981   6.122   2.906   9.135  4.1301 -0.3519 -0.3830
 4262TIP3    H236982   6.164   2.827   9.013 -2.2608 -0.0580 -3.1814
 4263TIP3   OH236983   0.087   1.896   9.352  0.1902 -0.0104  0.0781
 4263TIP3    H136984   0.152   1.826   9.348  0.5228  0.2721  0.4222
 4263TIP3    H236985   0.120   1.963   9.292  1.4124  1.1034  1.8841
 4264TIP3   OH236986   2.031   2.261   9.456 -0.4996  0.7130 -0.0809
 4264TIP3    H136987   1.978   2.289   9.381 -1.2186 -1.4522 -0.4458
 4264TIP3    H236988   1.982   2.189   9.494  0.9412  0.3519  1.1700
 4265TIP3   OH236989   3.249   1.364   9.909 -0.6665 -0.6019  0.1906
 4265TIP3    H136990   3.193   1.440   9.894  0.1443 -0.1875 -0.9201
 4265TIP3    H236991   3.212   1.296   9.853 -0.5852 -0.6013  0.1364
 4266TIP3   OH236992   4.889   0.416   8.380  0.1812 -0.0354 -0.4168
 4266TIP3    H136993   4.922   0.455   8.461 -0.5495 -0.8206  0.2714
 4266TIP3    H236994   4.869   0.492   8.324 -0.9963  0.5864  0.8052
 4267TIP3   OH236995   3.667   0.791   9.111  0.7849  0.0576  0.0971
 4267TIP3    H136996   3.687   0.856   9.043  2.0107 -0.7333 -0.3301
 4267TIP3    H236997   3.733   0.722   9.098  1.2045 -0.0025  2.2368
 4268TIP3   OH236998   1.424   1.894  10.236  0.1091 -0.0416  0.3980
 4268TIP3    H136999   1.419   1.988  10.251 -0.4180  0.0277 -0.1747
 4268TIP3    H237000   1.355   1.857  10.290  2.0498 -0.4030  2.8068
 4269TIP3   OH237001   2.895   0.211  11.107  0.2162  0.0156 -0.2047
 4269TIP3    H137002   2.808   0.245  11.087  0.5323  0.6327 -0.5591
 4269TIP3    H237003   2.925   0.263  11.182  0.3752 -0.0340 -0.2327
 4270TIP3   OH237004   1.849   5.793   9.536 -0.2001  0.1568 -0.0289
 4270TIP3    H137005   1.857   5.870   9.592  0.6715  0.4186 -0.4989
 4270TIP3    H237006   1.755   5.773   9.537 -0.5584  1.6886 -0.5195
 4271TIP3   OH237007   1.836   5.131   9.368 -0.7231 -0.2942 -0.6179
 4271TIP3    H137008   1.777   5.090   9.304  0.4526  1.7288 -3.1801
 4271TIP3    H237009   1.923   5.098   9.344 -0.3903 -0.7371  1.0504
 4272TIP3   OH237010   4.963   3.002  11.151  0.0294 -0.0967  0.0280
 4272TIP3    H137011   4.878   3.035  11.181  0.5566 -0.6488  2.3834
 4272TIP3    H237012   4.961   2.909  11.172  1.0110 -0.2294 -0.4150
 4273TIP3   OH237013   0.682   2.573  11.712 -0.0287 -0.0169  0.7013
 4273TIP3    H137014   0.737   2.495  11.707 -0.0253 -0.0573  1.3751
 4273TIP3    H237015   0.596   2.540  11.739 -0.0194  0.2168  1.0129
 4274TIP3   OH237016   0.189   3.609   9.922 -0.4688  0.2151  0.1421
 4274TIP3    H137017   0.258   3.674   9.907 -0.6466  1.1281  2.7009
 4274TIP3    H237018   0.110   3.661   9.936 -0.8924 -0.6110  0.9132
 4275TIP3   OH237019   3.595   3.242   9.726  0.2531  0.7238 -0.0457
 4275TIP3    H137020   3.605   3.329   9.765 -0.5157  0.9401 -0.3051
 4275TIP3    H237021   3.500   3.227   9.724  0.3408  0.1689 -0.6312
 4276TIP3   OH237022   1.428   0.342  10.451  0.0287  0.0119 -0.4504
 4276TIP3    H137023   1.373   0.420  10.447 -1.6694 -1.0931  0.4528
 4276TIP3    H237024   1.508   0.367  10.404 -0.0032  2.6402  0.7141
 4277TIP3   OH237025   0.370   6.436  10.085 -0.2843 -0.3537 -0.5011
 4277TIP3    H137026   0.321   6.510  10.121 -2.5841 -2.6553  1.4587
 4277TIP3    H237027   0.446   6.428  10.142 -1.4512 -1.0580  1.0437
 4278TIP3   OH237028   6.328   3.137  11.469  0.6011  0.0019  0.4487
 4278TIP3    H137029   6.254   3.186  11.506  1.0623  0.5759  0.6269
 4278TIP3    H237030   6.314   3.047  11.497 -1.5460 -0.4781 -1.8211
 4279TIP3   OH237031   5.304   5.327   8.591 -0.2049  0.0122  0.0004
 4279TIP3    H137032   5.214   5.322   8.624  0.5839  1.5398  2.6332
 4279TIP3    H237033   5.356   5.275   8.652  0.8220 -0.2922 -1.0925
 4280TIP3   OH237034   6.199   3.249  11.905  0.1736  0.3751  0.4263
 4280TIP3    H137035   6.119   3.296  11.927 -0.4765 -0.6252  0.2243
 4280TIP3    H237036   6.229   3.290  11.824  2.8597  4.4645  3.0600
 4281TIP3   OH237037   3.171   1.325   8.247  0.2917 -0.1598 -0.0531
 4281TIP3    H137038   3.213   1.296   8.329 -1.4417 -0.0999  0.8935
 4281TIP3    H237039   3.191   1.418   8.241  0.5111 -0.1853  0.2449
 4282TIP3   OH237040   0.379   6.743  10.036  0.3065  0.1754 -0.4833
 4282TIP3    H137041   0.297   6.786  10.013  0.5512  1.2750  0.5802
 4282TIP3    H237042   0.445   6.813  10.031  0.5626  0.2686  2.3079
 4283TIP3   OH237043   0.676   3.463   9.778  0.3609  0.6246  0.1983
 4283TIP3    H137044   0.694   3.444   9.686 -0.1446  1.4285 -0.0808
 4283TIP3    H237045   0.629   3.386   9.810 -1.9995  1.4678 -1.0035
 4284TIP3   OH237046   2.384   0.864  10.198 -0.2683  0.3649 -0.2660
 4284TIP3    H137047   2.370   0.949  10.240  2.9048  1.4986 -1.1910
 4284TIP3    H237048   2.402   0.886  10.106  1.8032 -1.1557 -0.2771
 4285TIP3   OH237049   4.737   3.992   8.920 -0.0238 -0.2647  0.5650
 4285TIP3    H137050   4.723   3.918   8.860 -2.1165 -1.1988  2.0576
 4285TIP3    H237051   4.807   3.963   8.978 -0.6097 -0.9639  0.9347
 4286TIP3   OH237052   3.744   2.224  11.653 -0.9619  0.4861  0.6361
 4286TIP3    H137053   3.682   2.252  11.720 -1.5286  1.6863 -0.3468
 4286TIP3    H237054   3.700   2.152  11.608 -0.8939  0.1692  1.0772
 4287TIP3   OH237055   4.222   3.835  10.037  0.5402  0.0274 -0.3912
 4287TIP3    H137056   4.179   3.774   9.977 -1.6414  0.3738  0.7260
 4287TIP3    H237057   4.162   3.910  10.043  0.7216  0.0601  2.0803
 4288TIP3   OH237058   1.714   6.664   9.396 -0.3294 -0.2229  0.1247
 4288TIP3    H137059   1.630   6.653   9.440 -0.8323  1.5362 -0.3267
 4288TIP3    H237060   1.712   6.598   9.326 -2.1078  0.8888 -0.9545
 4289TIP3   OH237061   6.541   3.529   8.814 -0.9319 -0.5696  0.0776
 4289TIP3    H137062   6.470   3.593   8.806 -0.8765 -0.3207  1.4120
 4289TIP3    H237063   6.521   3.482   8.895 -0.1976 -1.2929 -0.1525
 4290TIP3   OH237064   3.048   0.311  10.324  0.3810 -0.2095  0.4848
 4290TIP3    H137065   3.000   0.386  10.360  0.6364 -0.3083  1.0365
 4290TIP3    H237066   3.000   0.234  10.357 -0.2664 -0.2892 -0.6079
 4291TIP3   OH237067   2.261   0.873  11.741 -0.2208 -0.2914 -0.2399
 4291TIP3    H137068   2.234   0.922  11.663 -0.7188 -0.2446 -0.0458
 4291TIP3    H237069   2.326   0.928  11.783 -2.9596  1.7499  1.6451
 4292TIP3   OH237070   1.877   3.014   9.610  0.6261  0.0732 -0.2124
 4292TIP3    H137071   1.947   2.962   9.649  1.3483  0.5897 -0.7974
 4292TIP3    H237072   1.847   2.963   9.535  0.5191 -0.0490 -0.0870
 4293TIP3   OH237073   0.426   4.338  11.017 -0.1029 -0.2255 -0.3182
 4293TIP3    H137074   0.475   4.401  11.070 -1.4524  1.2292 -0.7079
 4293TIP3    H237075   0.392   4.390  10.944  1.4328 -2.0870 -2.4994
 4294TIP3   OH237076   1.255   6.041  11.890  0.4578  0.4069  0.0335
 4294TIP3    H137077   1.296   6.062  11.806  0.3516  0.8829  0.1008
 4294TIP3    H237078   1.321   5.989  11.936  0.1254 -0.7715 -0.7574
 4295TIP3   OH237079   1.664   6.523  11.240 -0.0272 -0.0606 -0.1458
 4295TIP3    H137080   1.686   6.432  11.260  0.7881  0.3191  0.7787
 4295TIP3    H237081   1.745   6.558  11.201 -0.1402  0.4304  0.0649
 4296TIP3   OH237082   0.900   6.359  11.515 -0.0674 -0.0195 -0.5189
 4296TIP3    H137083   0.867   6.360  11.426  0.7475 -0.3666 -0.8355
 4296TIP3    H237084   0.861   6.282  11.555 -1.8917  1.1167  0.0179
 4297TIP3   OH237085   0.650   4.222   9.525  0.9338  0.1574 -0.6639
 4297TIP3    H137086   0.686   4.204   9.439 -0.9214 -0.7783 -1.2891
 4297TIP3    H237087   0.600   4.144   9.548  2.2914 -0.0798  1.7870
 4298TIP3   OH237088   6.427   3.117  11.820 -0.0019 -0.1743 -0.1907
 4298TIP3    H137089   6.352   3.146  11.871 -0.0480 -0.3689 -0.1448
 4298TIP3    H237090   6.433   3.179  11.748 -0.8693 -0.7833 -0.8113
 4299TIP3   OH237091   6.518   5.015  10.284  0.2771 -0.4058  0.2748
 4299TIP3    H137092   6.585   5.064  10.330  0.6181 -0.6817  0.0799
 4299TIP3    H237093   6.541   4.923  10.299 -1.0300 -0.5556  1.6514
 4300TIP3   OH237094   0.841   4.252  11.096  0.1743  0.2191 -1.1239
 4300TIP3    H137095   0.790   4.271  11.017 -1.5981 -0.9520 -0.3038
 4300TIP3    H237096   0.908   4.191  11.066 -0.3701 -0.0786 -1.7658
 4301TIP3   OH237097   6.009   4.345   8.142  0.4443 -0.0741  0.0429
 4301TIP3    H137098   6.075   4.371   8.079  0.2285 -0.7565 -0.4703
 4301TIP3    H237099   5.954   4.423   8.153  0.5709  0.0907 -0.4980
 4302TIP3   OH237100   2.519   5.565  11.437  0.8134 -0.5401 -0.2055
 4302TIP3    H137101   2.595   5.622  11.440 -0.2343  0.9593 -1.1664
 4302TIP3    H237102   2.481   5.572  11.525 -0.0779  1.3790 -0.7035
 4303TIP3   OH237103   4.084   5.872   9.180  0.4016 -0.2042 -0.3252
 4303TIP3    H137104   4.131   5.867   9.264 -1.2737  3.4094  1.0700
 4303TIP3    H237105   3.996   5.840   9.200  0.3050 -0.3933 -1.0354
 4304TIP3   OH237106   0.337   3.391  10.752 -0.3923  0.3003 -0.1721
 4304TIP3    H137107   0.411   3.433  10.796  1.3989 -1.3171 -1.4597
 4304TIP3    H237108   0.347   3.415  10.660 -1.6387  0.2350 -0.3435
 4305TIP3   OH237109   5.345   0.957   9.364  0.4755 -0.3985 -0.1838
 4305TIP3    H137110   5.401   0.925   9.292 -1.0392 -0.3213 -1.4499
 4305TIP3    H237111   5.312   1.041   9.333 -0.0734 -0.2798  0.7011
 4306TIP3   OH237112   2.847   3.177  10.830 -0.3985  0.1175 -0.2782
 4306TIP3    H137113   2.834   3.082  10.825  2.0910 -0.2502 -2.8672
 4306TIP3    H237114   2.760   3.215  10.819 -1.3582 -1.8607  0.1521
 4307TIP3   OH237115   0.578   1.400  10.529 -0.3810 -0.2395 -0.0519
 4307TIP3    H137116   0.590   1.456  10.452  0.3914 -0.5996 -0.2031
 4307TIP3    H237117   0.484   1.385  10.533 -0.4361 -0.1642 -0.8964
 4308TIP3   OH237118   3.212   4.645   9.665  0.8127  0.1319  0.2268
 4308TIP3    H137119   3.236   4.737   9.679  1.1642  0.2530 -1.0950
 4308TIP3    H237120   3.237   4.602   9.747 -0.1581  1.3518  1.2115
 4309TIP3   OH237121   4.586   2.783   9.448  0.4671  0.5035 -0.6282
 4309TIP3    H137122   4.553   2.711   9.394 -1.1646  0.7000  0.0502
 4309TIP3    H237123   4.669   2.751   9.482  0.4324 -0.5042 -1.4495
 4310TIP3   OH237124   0.680   0.472  10.684  1.3412 -0.5197 -0.3079
 4310TIP3    H137125   0.665   0.441  10.773  0.7205  0.2661 -0.1265
 4310TIP3    H237126   0.599   0.451  10.637  0.3893  1.8756  0.1361
 4311TIP3   OH237127   0.964   5.606  10.330  0.0883  0.6465  0.1588
 4311TIP3    H137128   0.951   5.679  10.390  0.3361  0.6599  0.1944
 4311TIP3    H237129   1.014   5.643  10.257 -2.1006  1.2021 -1.1507
 4312TIP3   OH237130   3.012   5.376  11.679 -0.3845 -0.1463  0.2185
 4312TIP3    H137131   3.015   5.317  11.604  0.7676 -0.3086  0.3633
 4312TIP3    H237132   2.941   5.343  11.734 -0.6651 -0.5513 -0.3838
 4313TIP3   OH237133   1.733   6.766   9.007 -0.1923 -0.7110 -0.0277
 4313TIP3    H137134   1.745   6.765   8.912 -2.1881 -1.5811 -0.3260
 4313TIP3    H237135   1.725   6.858   9.029 -3.7239 -0.5466 -1.3704
 4314TIP3   OH237136   5.551   6.254  10.289 -0.4325 -0.2098 -0.2592
 4314TIP3    H137137   5.468   6.211  10.311  0.4761 -2.1386 -0.4188
 4314TIP3    H237138   5.617   6.187  10.305  1.2331  1.5911  0.8305
 4315TIP3   OH237139   3.874   0.532   9.757 -0.1112 -0.4108  0.1133
 4315TIP3    H137140   3.949   0.486   9.719 -0.2827 -0.8926  0.3530
 4315TIP3    H237141   3.907   0.566   9.840  0.1162  0.2071 -0.2227
 4316TIP3   OH237142   5.076   0.997   9.766 -0.9582 -0.4882 -0.5400
 4316TIP3    H137143   5.078   0.912   9.810  1.2664 -0.7204 -0.9373
 4316TIP3    H237144   5.113   0.980   9.679  0.9585  1.0771 -0.1080
 4317TIP3   OH237145   5.906   1.654   9.319  0.3099  0.6622  0.1334
 4317TIP3    H137146   5.946   1.627   9.237  0.6902 -0.4413  0.6588
 4317TIP3    H237147   5.838   1.589   9.335  0.3374  0.7786  0.7657
 4318TIP3   OH237148   6.405   3.529   8.274 -0.3433  0.1445 -0.1082
 4318TIP3    H137149   6.477   3.495   8.222  2.7064 -1.2811  4.4092
 4318TIP3    H237150   6.414   3.624   8.268  1.2063 -0.0060 -0.5941
 4319TIP3   OH237151   0.058   3.128  11.763  0.6985  0.1829  0.2797
 4319TIP3    H137152   0.060   3.065  11.692  2.0452  0.7489 -0.2081
 4319TIP3    H237153  -0.005   3.091  11.826  1.3962 -1.6050 -0.0102
 4320TIP3   OH237154   3.165   6.591  10.630  0.2310  0.3204  0.0517
 4320TIP3    H137155   3.112   6.621  10.704  0.7647 -2.6412  1.8210
 4320TIP3    H237156   3.101   6.564  10.564 -0.7416 -2.9925  2.0648
 4321TIP3   OH237157   0.015   6.738  10.268  0.2121 -0.1245  0.1613
 4321TIP3    H137158   0.079   6.793  10.223 -0.9153  1.3941  0.3352
 4321TIP3    H237159  -0.065   6.746  10.215  0.0546 -1.7598  0.0923
 4322TIP3   OH237160   4.693   0.840  10.814 -0.1118 -0.3123  0.2761
 4322TIP3    H137161   4.739   0.832  10.897 -0.5494  0.3982  0.5972
 4322TIP3    H237162   4.600   0.838  10.838 -0.2401  0.5897 -0.1262
 4323TIP3   OH237163   0.364   0.414  10.934  0.0859 -0.1745  0.2325
 4323TIP3    H137164   0.384   0.343  10.995 -0.6269 -0.6941 -0.1294
 4323TIP3    H237165   0.336   0.370  10.854  0.0573  0.5150 -0.1467
 4324TIP3   OH237166   2.314   3.279   9.397  0.2241  0.4751  0.0543
 4324TIP3    H137167   2.406   3.301   9.412  0.2116  0.8316 -0.3582
 4324TIP3    H237168   2.297   3.306   9.307 -0.2888  0.4171  0.1277
 4325TIP3   OH237169   6.685   6.334  11.553 -0.3284 -0.0323  0.3604
 4325TIP3    H137170   6.688   6.429  11.555 -1.2308 -0.0122  1.4034
 4325TIP3    H237171   6.705   6.307  11.642  2.0029 -0.9374 -0.3361
 4326TIP3   OH237172   4.095   4.692   9.425 -0.0253  0.7751  0.2701
 4326TIP3    H137173   4.110   4.665   9.515  0.2959 -1.0982 -0.3006
 4326TIP3    H237174   4.044   4.773   9.432 -1.0981  0.0064  2.1318
 4327TIP3   OH237175   1.904   5.303  12.271 -0.0435  0.1241  0.4495
 4327TIP3    H137176   1.965   5.236  12.302 -0.3419 -0.4968 -0.2708
 4327TIP3    H237177   1.938   5.330  12.186 -0.3837  0.2749  0.3584
 4328TIP3   OH237178   0.058   3.825  11.190  0.2453  0.1869 -0.2666
 4328TIP3    H137179   0.111   3.818  11.110  0.2282 -0.5284 -0.2160
 4328TIP3    H237180   0.026   3.736  11.206  0.6603  0.2190  0.8236
 4329TIP3   OH237181   5.826   3.579   9.379 -0.1314  0.2452 -0.4608
 4329TIP3    H137182   5.756   3.523   9.413 -0.2978  1.0734  0.6494
 4329TIP3    H237183   5.780   3.653   9.339  0.0751  0.6792  0.0719
 4330TIP3   OH237184   3.005   1.671   9.170  0.4321 -0.2757  0.6237
 4330TIP3    H137185   3.022   1.693   9.079  0.0346 -1.0060  0.3611
 4330TIP3    H237186   3.055   1.735   9.221  1.7204 -0.6790 -0.1051
 4331TIP3   OH237187   2.658   3.592  11.432 -0.3848 -0.2867  0.2499
 4331TIP3    H137188   2.569   3.624  11.436 -0.2357  0.4661 -1.4944
 4331TIP3    H237189   2.694   3.607  11.519 -1.3180  1.3607  0.3840
 4332TIP3   OH237190   3.428   2.312  10.589 -0.4857  0.4865  0.2284
 4332TIP3    H137191   3.334   2.321  10.604 -0.5562 -1.3628  1.1058
 4332TIP3    H237192   3.464   2.285  10.673  0.2856 -2.2475 -0.8678
 4333TIP3   OH237193   0.667   6.664  11.703  0.4246  0.0048 -0.4470
 4333TIP3    H137194   0.760   6.678  11.724  0.4696 -0.0553 -0.6033
 4333TIP3    H237195   0.632   6.752  11.690  0.0490  0.1449  1.3156
 4334TIP3   OH237196   4.870   6.022  10.623 -0.2329  0.4222 -0.2954
 4334TIP3    H137197   4.831   5.971  10.694  2.2173  0.4272  1.2075
 4334TIP3    H237198   4.813   6.098  10.613 -1.2603 -0.1632  0.8941
 4335TIP3   OH237199   5.393   3.553  10.570  0.9271  0.2130  0.0585
 4335TIP3    H137200   5.467   3.533  10.513  0.2179 -0.1763 -0.7544
 4335TIP3    H237201   5.367   3.469  10.606  2.4265  0.6395  2.3750
 4336TIP3   OH237202   2.939   1.587  11.034 -0.2460 -0.1408  0.2454
 4336TIP3    H137203   2.931   1.633  10.950 -0.3395  0.5550  0.6291
 4336TIP3    H237204   2.887   1.639  11.095 -0.0116 -0.5327  0.7879
 4337TIP3   OH237205   3.404   5.118   9.618 -0.4502  0.0901 -0.0425
 4337TIP3    H137206   3.432   5.208   9.604 -1.4634  0.3970 -0.1753
 4337TIP3    H237207   3.455   5.089   9.694 -1.1513  1.2671  0.9145
 4338TIP3   OH237208   2.834   0.596   9.850 -0.1742 -0.3257  0.2769
 4338TIP3    H137209   2.915   0.565   9.892 -0.0544 -1.5878 -0.8115
 4338TIP3    H237210   2.846   0.575   9.757 -0.6296  1.9583 -0.3598
 4339TIP3   OH237211   3.911   2.625  11.645 -0.1371  0.1100  0.3771
 4339TIP3    H137212   3.869   2.585  11.722 -1.1524  0.9002  0.2674
 4339TIP3    H237213   3.971   2.559  11.613  0.3344 -0.2346  1.8761
 4340TIP3   OH237214   1.412   2.710   9.815 -0.5773 -0.1377  0.2414
 4340TIP3    H137215   1.398   2.676   9.904  0.7484 -0.0370  0.4985
 4340TIP3    H237216   1.465   2.644   9.772 -2.0329 -0.6678 -0.8328
 4341TIP3   OH237217   0.683   4.228  11.766  0.2968 -0.2585 -0.0893
 4341TIP3    H137218   0.634   4.153  11.730  0.5599  0.4106 -1.9723
 4341TIP3    H237219   0.775   4.205  11.753  0.3752  0.5530 -1.1080
 4342TIP3   OH237220   2.841   4.754   9.822  0.2547  0.3646 -0.0573
 4342TIP3    H137221   2.790   4.674   9.808 -0.1966  0.2705  1.8041
 4342TIP3    H237222   2.896   4.734   9.898  2.9412  0.5745 -1.8228
 4343TIP3   OH237223   3.890   3.910  11.626  0.1020 -0.1416 -0.5157
 4343TIP3    H137224   3.902   3.905  11.531 -0.6105 -1.8754 -0.5360
 4343TIP3    H237225   3.851   3.826  11.651 -0.4535  0.5750  1.2134
 4344TIP3   OH237226   6.700   0.697   9.480  0.0462  0.1116 -0.1578
 4344TIP3    H137227   6.644   0.641   9.534  0.8444  0.9944  1.6968
 4344TIP3    H237228   6.668   0.684   9.391 -1.9631 -0.7079  0.6127
 4345TIP3   OH237229   2.770   3.607   9.149  0.1165 -0.2583 -0.2410
 4345TIP3    H137230   2.815   3.598   9.233 -0.3616 -0.6481 -0.0219
 4345TIP3    H237231   2.832   3.654   9.093  0.5596 -0.2723  0.2352
 4346TIP3   OH237232   3.752   1.722  10.113 -0.2611  0.3755  0.1166
 4346TIP3    H137233   3.807   1.800  10.113  1.4027 -0.7371  0.6591
 4346TIP3    H237234   3.762   1.687  10.201 -0.0167 -1.0663 -0.4599
 4347TIP3   OH237235   6.205   3.413  10.915 -0.0998  0.4307 -0.1618
 4347TIP3    H137236   6.255   3.366  10.848 -0.0193  1.0123 -0.5165
 4347TIP3    H237237   6.132   3.452  10.867 -0.9059 -0.3869  0.3415
 4348TIP3   OH237238   3.827   3.520   8.891  0.3208  0.2834  0.5967
 4348TIP3    H137239   3.872   3.497   8.973  0.4775  1.9676  1.0246
 4348TIP3    H237240   3.752   3.574   8.920 -0.1468  0.1365 -0.3200
 4349TIP3   OH237241   3.976   3.447  10.309  0.2099  0.5115 -0.1069
 4349TIP3    H137242   3.975   3.539  10.280 -1.0095  0.1926 -1.1623
 4349TIP3    H237243   3.885   3.426  10.328  0.4101 -0.6091 -0.2937
 4350TIP3   OH237244   2.013   2.843   9.945 -0.3364  0.0413 -0.2926
 4350TIP3    H137245   2.052   2.859   9.859 -0.6827  2.3772 -0.0767
 4350TIP3    H237246   1.919   2.849   9.930 -0.4904 -1.4200 -0.0563
 4351TIP3   OH237247   4.649   2.375  11.262 -0.8035  0.2221  0.5000
 4351TIP3    H137248   4.664   2.373  11.357 -0.0256  0.1045  0.3853
 4351TIP3    H237249   4.576   2.315  11.248  2.0086 -3.5653  0.5453
 4352TIP3   OH237250   2.050   4.188  11.505  0.2080  0.3256  0.1280
 4352TIP3    H137251   1.984   4.162  11.569  0.2489 -0.4577 -0.1431
 4352TIP3    H237252   2.070   4.279  11.528  0.7903 -0.1682  1.7081
 4353TIP3   OH237253   5.349   3.631   9.135  0.1819  0.0957  0.1176
 4353TIP3    H137254   5.304   3.553   9.168  0.1319 -0.2261 -0.6855
 4353TIP3    H237255   5.441   3.604   9.127  0.9072  1.2178  3.2569
 4354TIP3   OH237256   2.857   0.581  11.174 -0.5831  0.0896  0.3647
 4354TIP3    H137257   2.884   0.566  11.083  0.5365  1.2424  0.4872
 4354TIP3    H237258   2.828   0.495  11.204  0.3464 -0.6170 -0.6686
 4355TIP3   OH237259   3.956   6.739   9.881  0.8250  0.6617 -0.2117
 4355TIP3    H137260   3.978   6.720   9.972 -2.5088 -1.0850  0.3831
 4355TIP3    H237261   4.032   6.706   9.832  2.1654  0.5060  1.8155
 4356TIP3   OH237262   1.807   2.647   9.772 -0.4829  0.2714 -0.1848
 4356TIP3    H137263   1.736   2.593   9.736 -0.3281  0.1622 -0.3254
 4356TIP3    H237264   1.769   2.735   9.778 -0.9605  0.0189  0.6935
 4357TIP3   OH237265   4.121   1.596  10.829 -0.0237  0.7385  0.7268
 4357TIP3    H137266   4.143   1.534  10.759  1.8538  0.6167  1.3803
 4357TIP3    H237267   4.088   1.540  10.899 -0.9422  0.7644  0.3279
 4358TIP3   OH237268   3.543   4.149  10.877  0.0741 -0.0159  0.0896
 4358TIP3    H137269   3.503   4.229  10.913 -0.0104 -0.2243  0.4653
 4358TIP3    H237270   3.529   4.156  10.783 -1.8468 -0.6113  0.2819
 4359TIP3   OH237271   3.937   3.081  11.377  0.1058  0.3008 -0.0386
 4359TIP3    H137272   4.015   3.117  11.419 -0.0404 -0.9386  1.4012
 4359TIP3    H237273   3.926   2.995  11.417 -1.6579  0.1944 -0.6522
 4360TIP3   OH237274   3.473   6.001  10.873 -0.2523  0.2689 -0.0226
 4360TIP3    H137275   3.414   6.077  10.877 -0.7099  0.0587 -1.6851
 4360TIP3    H237276   3.493   5.981  10.964 -3.9916 -0.5756  0.8013
 4361TIP3   OH237277   1.869   6.229  11.685 -0.2359  0.0526 -0.1033
 4361TIP3    H137278   1.868   6.166  11.612  0.8003 -0.9550  0.7163
 4361TIP3    H237279   1.848   6.313  11.644 -1.4330 -0.7664 -1.2678
 4362TIP3   OH237280   0.681   3.960  11.002 -0.0093  0.1904 -0.2326
 4362TIP3    H137281   0.725   4.009  10.932  1.7778  0.0704  0.7547
 4362TIP3    H237282   0.588   3.969  10.982  0.4341 -0.2445 -2.9041
 4363TIP3   OH237283   0.335   0.533  11.593  0.7126 -0.6876 -0.3279
 4363TIP3    H137284   0.349   0.614  11.642 -0.5445 -0.8442  0.3294
 4363TIP3    H237285   0.423   0.506  11.566  1.1112  1.1379 -0.9832
 4364TIP3   OH237286   4.333   2.965  10.365  0.1906  0.3611  0.2029
 4364TIP3    H137287   4.323   3.017  10.445 -0.8493  1.2303 -0.4703
 4364TIP3    H237288   4.261   2.994  10.309  0.9725 -0.1532 -1.0947
 4365TIP3   OH237289   1.602   4.633  11.713 -0.0971 -0.4644  0.4708
 4365TIP3    H137290   1.569   4.720  11.736 -1.5652 -1.1780  1.2329
 4365TIP3    H237291   1.695   4.646  11.697 -0.4132  1.3651 -0.1309
 4366TIP3   OH237292   3.612   1.403  11.408 -0.3033 -0.3620  0.5485
 4366TIP3    H137293   3.567   1.472  11.360 -1.2341 -0.8678  0.6762
 4366TIP3    H237294   3.563   1.394  11.490  1.1521  0.3636  1.5456
 4367TIP3   OH237295   3.647   0.675   9.354  0.0778 -0.0376 -0.1475
 4367TIP3    H137296   3.604   0.600   9.313 -0.2044  1.0923 -1.9997
 4367TIP3    H237297   3.681   0.727   9.281 -1.0079  2.4038  0.9727
 4368TIP3   OH237298   3.137   4.980   8.571 -0.2103  0.2420 -0.3459
 4368TIP3    H137299   3.062   5.011   8.622  0.8094  1.0150  0.7348
 4368TIP3    H237300   3.174   5.060   8.532  0.4057 -0.0436 -0.3631
 4369TIP3   OH237301   5.701   5.355   8.136 -0.3318  0.7483 -0.2458
 4369TIP3    H137302   5.783   5.363   8.184 -1.1108  0.7935  1.1427
 4369TIP3    H237303   5.642   5.310   8.197 -1.2446  0.4076 -1.3340
 4370TIP3   OH237304   1.274   5.613  10.273 -0.0501 -0.0392 -0.0903
 4370TIP3    H137305   1.336   5.629  10.344 -1.6043  0.6138  1.1709
 4370TIP3    H237306   1.250   5.701  10.242 -2.0040 -0.1760  0.9508
 4371TIP3   OH237307   5.156   2.360  10.626  0.2850  0.1390 -0.1185
 4371TIP3    H137308   5.114   2.444  10.604  0.8095  0.6691  0.7966
 4371TIP3    H237309   5.178   2.321  10.542 -0.4747  0.6559 -0.5739
 4372TIP3   OH237310   6.251   0.300  11.640 -0.0744 -0.5182  0.0417
 4372TIP3    H137311   6.266   0.211  11.672 -1.2208 -0.7836 -0.1216
 4372TIP3    H237312   6.165   0.297  11.597  0.7632  0.1773 -1.8020
 4373TIP3   OH237313   1.198   1.899   8.943 -0.7002 -0.3069  0.2579
 4373TIP3    H137314   1.258   1.855   8.883 -1.8889 -1.3107 -0.2521
 4373TIP3    H237315   1.175   1.981   8.898 -1.1613 -0.8021 -0.4272
 4374TIP3   OH237316   3.652   5.262   9.673  0.6704  0.4108 -0.2549
 4374TIP3    H137317   3.612   5.296   9.753 -1.5774 -2.4705 -0.0013
 4374TIP3    H237318   3.727   5.211   9.704  1.3361  1.3536 -0.2617
 4375TIP3   OH237319   0.685   3.084   9.983 -0.0342  0.1741 -0.3320
 4375TIP3    H137320   0.714   3.168  10.019 -3.1173  1.3554 -0.3402
 4375TIP3    H237321   0.713   3.086   9.892  1.7259  0.2166  0.1646
 4376TIP3   OH237322   4.831   5.376   9.509 -0.1263  0.0791  0.4765
 4376TIP3    H137323   4.919   5.392   9.544 -0.5748 -0.1977  1.8099
 4376TIP3    H237324   4.844   5.364   9.415  1.0539  1.6642  0.3868
 4377TIP3   OH237325   5.564   5.090   9.827 -0.1136 -0.0126  0.1862
 4377TIP3    H137326   5.506   5.059   9.897  1.5989  0.5193  1.9475
 4377TIP3    H237327   5.565   5.185   9.838  1.0522 -0.0103  0.1883
 4378TIP3   OH237328   4.465   0.978  11.193 -0.1697 -0.4798 -0.0458
 4378TIP3    H137329   4.427   1.035  11.260  1.0792 -0.5014  0.7262
 4378TIP3    H237330   4.396   0.915  11.172 -0.4624 -0.7172  1.5150
 4379TIP3   OH237331   6.188   2.094  10.394  0.1544  0.2898  0.1543
 4379TIP3    H137332   6.218   2.184  10.402  1.1297 -0.1591  2.5766
 4379TIP3    H237333   6.266   2.041  10.408 -0.7586 -0.9167  0.9911
 4380TIP3   OH237334   1.958   1.556  11.745 -0.3581 -0.3833  0.2951
 4380TIP3    H137335   1.979   1.648  11.728  0.3893 -0.6667 -0.3387
 4380TIP3    H237336   2.031   1.525  11.798 -0.3399 -0.7550  0.0533
 4381TIP3   OH237337   1.243   3.024   9.112  0.1588  0.7129  0.1297
 4381TIP3    H137338   1.240   3.114   9.145  1.0212  0.9255 -0.3619
 4381TIP3    H237339   1.219   3.032   9.019  1.0840  0.5553 -0.1309
 4382TIP3   OH237340   4.257   4.921   9.277 -1.0241 -0.4104 -0.0345
 4382TIP3    H137341   4.218   5.007   9.290 -2.6646 -1.0327 -0.6588
 4382TIP3    H237342   4.251   4.879   9.363 -1.1900 -0.2888  0.0130
 4383TIP3   OH237343   3.228   5.641  10.199  0.5660 -0.0270 -0.0547
 4383TIP3    H137344   3.230   5.703  10.272 -0.0867 -0.1567  0.0835
 4383TIP3    H237345   3.227   5.696  10.121  0.8693  0.1211  0.0464
 4384TIP3   OH237346   3.707   6.123   9.113  0.1411  0.3575  0.1926
 4384TIP3    H137347   3.733   6.062   9.045  0.3140 -0.0393  0.6117
 4384TIP3    H237348   3.747   6.089   9.193 -1.8029 -0.3918  0.8967
 4385TIP3   OH237349   5.180   3.071  10.659 -0.2414 -0.3936  0.0454
 4385TIP3    H137350   5.105   3.014  10.678 -0.2565 -0.4715 -0.2414
 4385TIP3    H237351   5.210   3.043  10.573 -1.6890  1.5409 -1.1888
 4386TIP3   OH237352   4.762   0.275  10.136 -0.3242 -0.1200  0.0056
 4386TIP3    H137353   4.807   0.190  10.141  1.0202  0.6075  0.9636
 4386TIP3    H237354   4.785   0.310  10.050  0.4153 -0.0610  0.2179
 4387TIP3   OH237355   3.550   4.949   9.807 -0.3947 -0.3965 -0.3311
 4387TIP3    H137356   3.570   5.028   9.858 -2.0527 -0.3928  0.4029
 4387TIP3    H237357   3.531   4.883   9.874  0.6970 -1.3599 -0.9425
 4388TIP3   OH237358   5.632   2.701   9.003 -0.3157  0.4762  0.0759
 4388TIP3    H137359   5.592   2.682   8.918 -2.7024  2.1629  0.7298
 4388TIP3    H237360   5.563   2.686   9.067  0.9225  0.8778  1.5704
 4389TIP3   OH237361   2.145   6.159   9.797 -0.0649  0.5254  0.0636
 4389TIP3    H137362   2.074   6.206   9.753  0.8735  2.6799  0.6983
 4389TIP3    H237363   2.101   6.109   9.865 -1.0408  1.5147  0.2102
 4390TIP3   OH237364   1.050   1.647  10.538  0.2246  0.1690 -0.4231
 4390TIP3    H137365   1.109   1.573  10.551  0.2060  0.1650 -0.3647
 4390TIP3    H237366   0.976   1.610  10.490  1.1160  0.5378 -2.1929
 4391TIP3   OH237367   0.913   4.578  10.454  0.6444 -0.3498 -0.0206
 4391TIP3    H137368   0.842   4.515  10.469  1.5570 -1.4726 -0.3692
 4391TIP3    H237369   0.964   4.542  10.382 -0.0165  1.8555 -1.7108
 4392TIP3   OH237370   2.305   6.186  10.983  0.3379 -0.2095  0.5126
 4392TIP3    H137371   2.358   6.108  10.966 -0.9706 -1.0354  0.0443
 4392TIP3    H237372   2.356   6.237  11.045  1.9946 -0.6180 -0.4663
 4393TIP3   OH237373   5.042   2.893   9.015  0.5844 -0.4854  0.4722
 4393TIP3    H137374   4.999   2.879   9.100  1.7397 -0.0940  1.1482
 4393TIP3    H237375   4.971   2.888   8.951 -0.3097 -0.8256  1.4574
 4394TIP3   OH237376   6.802   5.387  11.035 -0.1347  0.2190  0.0822
 4394TIP3    H137377   6.756   5.374  11.118 -1.2801 -0.0146 -0.5695
 4394TIP3    H237378   6.733   5.402  10.971  0.6023 -1.2513 -1.1453
 4395TIP3   OH237379   1.446   0.929  10.219  0.4316  0.6121 -0.1255
 4395TIP3    H137380   1.515   0.877  10.259  1.1314  2.5455  1.3414
 4395TIP3    H237381   1.364   0.887  10.246  0.9768 -0.4193 -0.0419
 4396TIP3   OH237382   5.802   2.816   9.691  0.0126  0.5490  0.0297
 4396TIP3    H137383   5.796   2.778   9.779  1.2469  3.5487  1.5502
 4396TIP3    H237384   5.866   2.762   9.646  0.0964 -0.4776  1.3233
 4397TIP3   OH237385   4.210   6.486  11.811 -0.3176  0.6339 -0.4969
 4397TIP3    H137386   4.202   6.411  11.871 -0.6236 -0.8067 -2.2677
 4397TIP3    H237387   4.145   6.549  11.844 -0.1383  0.1114  0.9495
 4398TIP3   OH237388   4.393   5.377  10.927 -0.4302 -0.2982 -0.5665
 4398TIP3    H137389   4.425   5.444  10.987 -1.6495 -0.2295  0.0573
 4398TIP3    H237390   4.416   5.409  10.840  3.0492 -1.2952 -0.1368
 4399TIP3   OH237391   3.888   4.187   9.102  0.0729  0.4498  0.1918
 4399TIP3    H137392   3.862   4.273   9.135  1.5056  0.8428  0.3861
 4399TIP3    H237393   3.932   4.146   9.176 -0.0571 -0.2092 -0.0917
 4400TIP3   OH237394   1.822   2.843  10.982 -0.0828  0.0473 -0.0805
 4400TIP3    H137395   1.747   2.803  10.937 -1.0127  1.4212  0.1598
 4400TIP3    H237396   1.800   2.836  11.075  0.5427 -0.3787  0.0373
 4401TIP3   OH237397   3.903   4.824   9.844  0.2096  0.2520 -0.6472
 4401TIP3    H137398   3.852   4.864   9.915 -0.6553 -1.1008 -0.4616
 4401TIP3    H237399   3.986   4.871   9.844 -0.2605  1.1254  0.4266
 4402TIP3   OH237400   6.476   2.420   9.598 -0.3438 -0.1946  0.4736
 4402TIP3    H137401   6.559   2.383   9.569  0.9773  1.0818  2.3617
 4402TIP3    H237402   6.471   2.505   9.556  1.2953  1.4069  3.1783
 4403TIP3   OH237403   1.086   0.029  10.518  0.1558 -0.1652  0.1206
 4403TIP3    H137404   1.031   0.035  10.596  2.1140 -1.2679  1.6702
 4403TIP3    H237405   1.136   0.111  10.517 -0.0023 -0.0672 -0.1265
 4404TIP3   OH237406   5.064   0.102   8.900  0.4989 -0.3377 -0.6728
 4404TIP3    H137407   5.013   0.022   8.916  0.9133 -0.5349 -0.3164
 4404TIP3    H237408   5.002   0.161   8.858 -0.5262  0.0155  1.1953
 4405TIP3   OH237409   4.402   3.626  11.198  0.3096  0.6756 -0.1398
 4405TIP3    H137410   4.361   3.704  11.235  1.9610  1.2897  0.4834
 4405TIP3    H237411   4.496   3.640  11.212  0.6105 -1.7927  0.7218
 4406TIP3   OH237412   3.853   2.366  11.414 -0.1994  0.5184  0.5284
 4406TIP3    H137413   3.913   2.296  11.388  0.4025  1.2419 -0.0698
 4406TIP3    H237414   3.822   2.340  11.500 -0.2700 -0.6666  0.1690
 4407TIP3   OH237415   3.404   6.772  11.390  0.5947  0.1534  0.1425
 4407TIP3    H137416   3.443   6.763  11.477  1.3959 -0.1202 -0.2379
 4407TIP3    H237417   3.311   6.791  11.407  0.7545  0.1532  1.0511
 4408TIP3   OH237418   2.524   0.256   8.556 -0.2515  0.0923  0.0580
 4408TIP3    H137419   2.560   0.170   8.580  0.2864  0.3299  0.1209
 4408TIP3    H237420   2.560   0.274   8.469  0.7001  0.8359  0.5923
 4409TIP3   OH237421   3.324   0.646  11.320 -0.5736  0.1816 -0.0892
 4409TIP3    H137422   3.348   0.738  11.325  0.6448 -0.0777 -0.7264
 4409TIP3    H237423   3.260   0.642  11.249 -2.5277  0.8622  1.5401
 4410TIP3   OH237424   0.086   6.796   9.850 -0.2184  0.3171 -0.4282
 4410TIP3    H137425   0.140   6.795   9.771  2.1861 -1.9009  1.0478
 4410TIP3    H237426   0.013   6.738   9.829 -0.8822  1.5683 -1.7326
 4411TIP3   OH237427   0.784   5.710   9.826  0.1031  0.8529 -0.0015
 4411TIP3    H137428   0.709   5.762   9.853 -0.8462 -1.0828  1.3261
 4411TIP3    H237429   0.747   5.627   9.796  1.6946 -0.6470  1.8411
 4412TIP3   OH237430   6.582   6.781   9.550  0.1900 -0.2356  0.2286
 4412TIP3    H137431   6.551   6.837   9.621 -1.6817  0.5571 -1.1385
 4412TIP3    H237432   6.507   6.727   9.526  1.1363 -1.3348 -0.3638
 4413TIP3   OH237433   0.367   3.187   9.771  0.1603 -0.2242  0.1360
 4413TIP3    H137434   0.416   3.105   9.762 -0.2328 -0.6161  1.3833
 4413TIP3    H237435   0.291   3.175   9.714  0.8623 -0.1063 -0.8535
 4414TIP3   OH237436   6.576   4.823  11.418 -0.2617  0.0748 -0.5180
 4414TIP3    H137437   6.597   4.755  11.482 -0.4205  1.4062  1.0279
 4414TIP3    H237438   6.506   4.786  11.365 -0.1634 -1.0689  0.1167
 4415TIP3   OH237439   4.027   4.656  11.598  0.4465  0.1621  0.3221
 4415TIP3    H137440   3.998   4.566  11.583  1.3204 -0.1436  0.3864
 4415TIP3    H237441   4.115   4.646  11.635  0.6398  1.0479  0.1124
 4416TIP3   OH237442   1.113   0.658   8.927  0.2215 -0.1915  0.3575
 4416TIP3    H137443   1.194   0.709   8.925  1.1122 -1.5513 -1.5932
 4416TIP3    H237444   1.044   0.723   8.934  1.3460  1.2504 -1.0877
 4417TIP3   OH237445   5.877   0.836   9.085 -0.3047  0.4511 -0.7639
 4417TIP3    H137446   5.856   0.849   8.993 -0.7416 -0.2716 -0.7739
 4417TIP3    H237447   5.889   0.742   9.094  0.2135  0.5631 -0.1767
 4418TIP3   OH237448   5.101   4.289   9.723  0.9245  0.8402 -0.1935
 4418TIP3    H137449   5.027   4.327   9.676  0.3517 -0.2846 -0.2070
 4418TIP3    H237450   5.169   4.357   9.718 -0.4994  2.4366  0.9574
 4419TIP3   OH237451   5.776   0.110  10.612  0.0150  0.1481  0.1401
 4419TIP3    H137452   5.857   0.128  10.564  0.5325 -0.9815  0.5452
 4419TIP3    H237453   5.748   0.195  10.645  2.3367  0.2952  1.9707
 4420TIP3   OH237454   4.647   3.394  11.281 -0.4015 -0.5391 -0.7774
 4420TIP3    H137455   4.637   3.485  11.253 -1.0130  0.2610  1.7693
 4420TIP3    H237456   4.737   3.388  11.313  0.2316 -1.3864 -2.5910
 4421TIP3   OH237457   3.669   2.038   9.802  0.5334 -0.0734  0.1619
 4421TIP3    H137458   3.747   1.982   9.797  1.4729  1.1041  1.0566
 4421TIP3    H237459   3.664   2.079   9.715  0.5399 -0.6047 -0.0965
 4422TIP3   OH237460   5.664   1.021  10.081  0.2281  0.4185 -0.3092
 4422TIP3    H137461   5.635   0.969  10.156 -2.7583 -0.9795 -2.2496
 4422TIP3    H237462   5.622   1.106  10.094  0.9772  0.7054  0.3237
 4423TIP3   OH237463   5.186   5.856  10.068  0.1221 -0.4697 -0.2188
 4423TIP3    H137464   5.114   5.797  10.048 -1.7670  2.0300 -1.4001
 4423TIP3    H237465   5.178   5.873  10.162 -2.5716  1.7059 -0.7262
 4424TIP3   OH237466   6.484   2.652   9.467  0.1955  0.4382  0.5767
 4424TIP3    H137467   6.549   2.671   9.400 -0.8163  3.3393  0.2767
 4424TIP3    H237468   6.401   2.645   9.420  0.0478 -2.3899  1.0488
 4425TIP3   OH237469   2.153   4.067  11.145  0.1223  0.2828 -0.3121
 4425TIP3    H137470   2.083   4.059  11.210  1.7293  0.7674  1.5734
 4425TIP3    H237471   2.107   4.074  11.061 -2.0219 -1.9129  0.5410
 4426TIP3   OH237472   1.625   6.127  11.896 -0.1979 -0.1969 -0.6625
 4426TIP3    H137473   1.691   6.162  11.836  0.2190  0.8008  0.3569
 4426TIP3    H237474   1.675   6.085  11.965 -0.6563 -0.2818 -0.3799
 4427TIP3   OH237475   4.817   4.802   8.272 -0.4107 -0.3931  1.1384
 4427TIP3    H137476   4.818   4.881   8.218  0.7456  0.2744  2.0666
 4427TIP3    H237477   4.835   4.731   8.211  0.8679  0.3336  0.6302
 4428TIP3   OH237478   1.695   2.197   8.857 -0.2013 -0.0902 -0.0237
 4428TIP3    H137479   1.612   2.243   8.849 -0.1625 -0.2518 -1.5822
 4428TIP3    H237480   1.739   2.212   8.774  2.4195  2.0034  1.5560
 4429TIP3   OH237481   6.590   3.441  11.209 -0.2989 -0.1918  0.3551
 4429TIP3    H137482   6.590   3.351  11.177 -2.0977 -0.0288 -0.2274
 4429TIP3    H237483   6.499   3.469  11.201 -0.3142  0.8107  3.0098
 4430TIP3   OH237484   0.908   1.930  11.684  0.1566  0.0986 -0.2174
 4430TIP3    H137485   0.956   2.005  11.719  1.2236  0.1983 -1.7846
 4430TIP3    H237486   0.944   1.917  11.596 -1.9245 -0.5378 -1.0474
 4431TIP3   OH237487   6.641   3.009  10.096 -0.3394  0.6434  0.0070
 4431TIP3    H137488   6.618   3.102  10.087 -0.4383  0.6278  0.0969
 4431TIP3    H237489   6.737   3.009  10.096 -0.3388  0.7467  0.0138
 4432TIP3   OH237490   5.071   4.972   8.399 -0.1232  0.0021  0.4750
 4432TIP3    H137491   5.147   4.914   8.402 -1.1964 -1.4252  2.4521
 4432TIP3    H237492   5.019   4.940   8.325  0.0718 -0.5479  0.5690
 4433TIP3   OH237493   5.165   4.706   9.973 -0.5406 -0.1080 -0.5561
 4433TIP3    H137494   5.116   4.787   9.988 -0.5659  0.2065 -2.1394
 4433TIP3    H237495   5.097   4.638   9.968 -0.4043 -0.6546  2.8588
 4434TIP3   OH237496   2.669   0.162  11.614 -0.3087 -0.1138 -0.1207
 4434TIP3    H137497   2.690   0.069  11.627  1.1749  0.3637  1.2048
 4434TIP3    H237498   2.754   0.205  11.607 -0.9634  0.9727 -2.4185
 4435TIP3   OH237499   6.455   6.525   9.434 -0.0946 -0.3099 -0.3765
 4435TIP3    H137500   6.388   6.495   9.373 -0.5776 -1.5166  0.7000
 4435TIP3    H237501   6.407   6.570   9.503 -0.1843 -3.3836  1.7460
 4436TIP3   OH237502   5.667   3.393   8.871 -0.6441  0.6702 -0.1761
 4436TIP3    H137503   5.650   3.416   8.963 -0.7500 -0.1367  0.0157
 4436TIP3    H237504   5.596   3.435   8.823 -1.4246 -0.0895  0.2776
 4437TIP3   OH237505   5.584   5.472  11.786 -0.0035  0.6645  0.5027
 4437TIP3    H137506   5.609   5.397  11.841  2.5234  0.2971 -1.0192
 4437TIP3    H237507   5.542   5.432  11.710  1.7271  0.7084 -0.5111
 4438TIP3   OH237508   0.888   1.904   9.498 -0.4785 -1.2050  0.4756
 4438TIP3    H137509   0.902   1.979   9.440  4.1936 -1.9616  0.2077
 4438TIP3    H237510   0.811   1.860   9.463 -1.9720  2.1157 -0.7808
 4439TIP3   OH237511   3.284   1.116  10.058  0.4944 -0.2663  0.0694
 4439TIP3    H137512   3.225   1.075  10.122 -2.6876  3.5298 -0.1061
 4439TIP3    H237513   3.316   1.194  10.102  2.3330 -0.1654 -1.3150
 4440TIP3   OH237514   4.924   6.003   9.911  0.2805  0.1525 -0.3678
 4440TIP3    H137515   4.871   6.015   9.989 -1.4790  0.7129 -1.6026
 4440TIP3    H237516   4.965   6.089   9.896  0.0766  0.2383 -0.4374
 4441TIP3   OH237517   5.978   4.961   8.208 -0.9553  0.0271 -0.3047
 4441TIP3    H137518   6.048   4.961   8.142 -1.2034  0.4940 -0.5748
 4441TIP3    H237519   6.015   4.914   8.282 -0.6329 -0.4191 -0.7387
 4442TIP3   OH237520   3.951   5.427  10.804 -0.3728  0.2406 -0.0067
 4442TIP3    H137521   4.002   5.347  10.790 -0.3925  0.2426 -0.0897
 4442TIP3    H237522   3.871   5.397  10.846 -0.3625  0.2217 -0.0005
 4443TIP3   OH237523   0.771   6.819   8.708  0.0302  0.0003 -0.4648
 4443TIP3    H137524   0.744   6.864   8.788 -1.4389 -1.0123 -0.3562
 4443TIP3    H237525   0.723   6.864   8.638  1.7545  1.2644 -0.8945
 4444TIP3   OH237526   5.756   5.023  10.419 -0.4191 -0.3209 -0.0121
 4444TIP3    H137527   5.840   5.059  10.390 -0.5749  0.3281  0.3429
 4444TIP3    H237528   5.726   5.082  10.488 -1.4253 -0.2505 -0.4947
 4445TIP3   OH237529   4.582   3.287   9.453  0.3763  0.5102  0.2323
 4445TIP3    H137530   4.676   3.303   9.442  0.5318  0.1861  1.0070
 4445TIP3    H237531   4.544   3.307   9.367  1.3600 -0.7863 -0.5562
 4446TIP3   OH237532   5.258   3.051   8.945 -0.5076 -0.3191 -0.3053
 4446TIP3    H137533   5.172   3.012   8.962  0.2833 -1.8805  0.3518
 4446TIP3    H237534   5.304   2.985   8.892  0.2944  0.4764 -0.6223
 4447TIP3   OH237535   3.759   1.563  11.112 -0.9948  0.4508 -0.2308
 4447TIP3    H137536   3.693   1.570  11.181 -2.0349  0.1142 -1.1665
 4447TIP3    H237537   3.714   1.591  11.033 -0.6049 -1.5665 -1.2314
 4448TIP3   OH237538   1.945   3.399  11.012  0.1889 -0.0513  0.0361
 4448TIP3    H137539   1.952   3.308  11.040  2.0174  0.2132  0.6301
 4448TIP3    H237540   1.875   3.436  11.066 -1.7820 -1.4953 -1.4498
 4449TIP3   OH237541   6.093   4.827   8.403  1.0670  0.1628  0.2298
 4449TIP3    H137542   6.006   4.787   8.411  1.0868 -0.0101 -0.3726
 4449TIP3    H237543   6.129   4.824   8.492  0.2475  0.7266  0.6024
 4450TIP3   OH237544   4.436   0.189   9.657 -0.2288 -0.0682 -0.1978
 4450TIP3    H137545   4.465   0.141   9.580  0.2029 -0.3175  0.1174
 4450TIP3    H237546   4.432   0.280   9.629 -0.3530 -0.1954 -0.5945
 4451TIP3   OH237547   5.307   2.525   9.372 -0.3687 -0.0099  0.3121
 4451TIP3    H137548   5.353   2.566   9.298 -0.4142  2.1431  1.3795
 4451TIP3    H237549   5.355   2.557   9.449 -0.0117 -2.5871  1.2369
 4452TIP3   OH237550   2.770   4.200   9.808 -0.3909  0.0281 -0.4106
 4452TIP3    H137551   2.686   4.217   9.849 -1.1245 -1.6343 -1.1384
 4452TIP3    H237552   2.832   4.254   9.857 -1.6437  0.1561  1.0971
 4453TIP3   OH237553   6.193   0.359  11.291 -0.0538  0.0147  0.1222
 4453TIP3    H137554   6.198   0.448  11.325 -0.7659  0.8089 -1.7213
 4453TIP3    H237555   6.266   0.352  11.229  0.1018 -0.7546  0.3713
 4454TIP3   OH237556   3.653   5.631   8.688  0.1344 -0.3502  0.0270
 4454TIP3    H137557   3.683   5.715   8.653  0.8824 -0.9109 -0.7000
 4454TIP3    H237558   3.652   5.572   8.613 -2.4869 -0.4699  0.0801
 4455TIP3   OH237559   6.197   6.137  10.786 -0.6970 -0.2034 -0.0487
 4455TIP3    H137560   6.175   6.096  10.702 -0.9010  0.2898 -0.2416
 4455TIP3    H237561   6.119   6.188  10.809 -0.9906 -1.0692  0.9025
 4456TIP3   OH237562   1.930   3.496   9.865  0.4061 -0.2096  1.1718
 4456TIP3    H137563   1.936   3.401   9.869  0.8155 -0.2135  0.6183
 4456TIP3    H237564   1.848   3.513   9.819  0.5696 -0.3064  0.8395
 4457TIP3   OH237565   0.555   4.266  10.633 -0.3685  0.9593  0.4318
 4457TIP3    H137566   0.477   4.246  10.580 -1.0336  0.1651  1.6741
 4457TIP3    H237567   0.623   4.283  10.568 -1.0076 -0.5438 -0.6946
 4458TIP3   OH237568   5.825   2.263  10.588  0.2723 -0.1401 -0.4361
 4458TIP3    H137569   5.779   2.318  10.526  0.5366 -0.4025 -0.8734
 4458TIP3    H237570   5.824   2.176  10.548 -0.9992 -0.6733  0.6958
 4459TIP3   OH237571   4.432   5.359  11.523  0.2698 -0.1876 -0.1231
 4459TIP3    H137572   4.364   5.300  11.554  0.3969 -0.5571 -0.5378
 4459TIP3    H237573   4.457   5.324  11.438 -0.1138  0.8295 -0.6762
 4460TIP3   OH237574   0.612   6.566   9.414  0.2124 -0.7956 -0.2779
 4460TIP3    H137575   0.592   6.524   9.498 -0.3960 -3.4290 -1.6296
 4460TIP3    H237576   0.528   6.599   9.383  0.7485  2.1205  0.9813
 4461TIP3   OH237577   6.596   3.261  10.019 -0.0243 -0.5416  0.0263
 4461TIP3    H137578   6.541   3.223   9.949  0.1001  0.1004 -0.4234
 4461TIP3    H237579   6.663   3.310   9.972 -2.0226  2.9751  0.5500
 4462TIP3   OH237580   3.749   0.593   8.281 -1.1322  0.0383 -0.5055
 4462TIP3    H137581   3.713   0.512   8.245 -0.7411  0.3517 -1.6642
 4462TIP3    H237582   3.766   0.647   8.204 -2.7446  1.8130  0.3318
 4463TIP3   OH237583   0.513   4.663   9.324  0.2710  0.7356 -0.1142
 4463TIP3    H137584   0.499   4.647   9.417  2.9378 -0.8230  0.1359
 4463TIP3    H237585   0.493   4.755   9.311  0.9723  1.2697  2.2558
 4464TIP3   OH237586   2.192   3.692   9.002 -0.0167 -0.3087 -0.2399
 4464TIP3    H137587   2.211   3.708   9.095  2.7581 -1.6727 -0.4568
 4464TIP3    H237588   2.135   3.615   9.002  0.5910 -0.7819  0.3777
 4465TIP3   OH237589   4.648   0.040  11.682  0.3315 -0.6912  0.5731
 4465TIP3    H137590   4.738   0.063  11.704  0.6384 -1.5289  0.2245
 4465TIP3    H237591   4.638  -0.050  11.714  0.1946 -1.2612 -0.9898
 4466TIP3   OH237592   6.604   5.741  10.556 -0.0936  0.1360  0.0961
 4466TIP3    H137593   6.516   5.726  10.592 -0.0634 -0.4701 -0.0666
 4466TIP3    H237594   6.598   5.827  10.515 -0.4556  0.3352  0.5532
 4467TIP3   OH237595   6.745   3.610  10.850 -0.6154 -0.4260 -0.7774
 4467TIP3    H137596   6.819   3.550  10.844  1.4188  1.9983 -2.1000
 4467TIP3    H237597   6.759   3.671  10.778 -1.5549  2.6800  1.4881
 4468TIP3   OH237598   6.612   5.461  10.435  0.6021  0.2166  0.3840
 4468TIP3    H137599   6.624   5.485  10.343 -0.2505  2.7128  0.8732
 4468TIP3    H237600   6.627   5.542  10.484 -0.1349 -0.7785  2.3680
 4469TIP3   OH237601   5.052   3.254  11.110 -0.0236 -0.0617  0.2560
 4469TIP3    H137602   5.142   3.234  11.136 -0.0660 -0.2211  0.2770
 4469TIP3    H237603   4.998   3.188  11.153  0.0502 -1.3381 -1.4761
 4470TIP3   OH237604   2.845   1.362   9.652  0.2588 -0.2588 -0.0646
 4470TIP3    H137605   2.918   1.323   9.604 -1.4840 -0.4110 -2.8627
 4470TIP3    H237606   2.831   1.305   9.727  1.0051 -2.0860 -1.2534
 4471TIP3   OH237607   1.391   6.504   9.340  0.3138  0.0605  0.0555
 4471TIP3    H137608   1.425   6.572   9.281  1.0811 -0.2715  0.0993
 4471TIP3    H237609   1.336   6.449   9.285  0.8896 -0.1502 -0.3215
 4472TIP3   OH237610   1.292   0.556  10.560 -0.2130  0.4981  0.3807
 4472TIP3    H137611   1.376   0.566  10.604 -0.6699  0.0050  1.3952
 4472TIP3    H237612   1.238   0.508  10.622 -0.8455 -0.3423 -0.7777
 4473TIP3   OH237613   3.905   1.989  10.071 -0.2442 -1.2212  0.1783
 4473TIP3    H137614   3.971   1.975  10.139 -1.0803 -1.7409  0.9005
 4473TIP3    H237615   3.926   1.924  10.004  0.1457 -1.1979  0.2751
 4474TIP3   OH237616   6.025   3.466  11.968  0.4368  0.1513  0.2868
 4474TIP3    H137617   6.064   3.510  11.893  2.8904 -2.3160 -0.0750
 4474TIP3    H237618   6.051   3.518  12.044 -0.8670  1.8789 -0.3811
 4475TIP3   OH237619   6.014   0.456  10.131 -0.0437 -0.1918  0.8547
 4475TIP3    H137620   5.934   0.508  10.125 -0.2677 -0.5213  0.9494
 4475TIP3    H237621   5.988   0.369  10.101  0.3880 -0.1890  0.4552
 4476TIP3   OH237622   3.901   1.375  11.765  0.3944 -0.4980  0.2175
 4476TIP3    H137623   3.993   1.350  11.755  0.7694  0.5294  0.9096
 4476TIP3    H237624   3.897   1.465  11.735 -0.8515 -1.1912 -1.8883
 4477TIP3   OH237625   5.518   1.345  10.598  0.4949 -0.2194 -0.5200
 4477TIP3    H137626   5.513   1.255  10.566 -0.5783  0.1209 -1.3513
 4477TIP3    H237627   5.433   1.362  10.639  1.3064 -0.1447  1.2677
 4478TIP3   OH237628   0.321   1.483  11.202 -0.4915 -0.2901 -0.0886
 4478TIP3    H137629   0.286   1.441  11.280  2.0114 -1.3545  0.5511
 4478TIP3    H237630   0.315   1.416  11.134  1.0259 -0.7972  0.2498
 4479TIP3   OH237631   3.691   2.637  10.079  0.4477  0.0245  0.0254
 4479TIP3    H137632   3.597   2.639  10.099  0.0644 -0.1670 -1.6206
 4479TIP3    H237633   3.730   2.591  10.153 -1.0263 -1.5974 -0.1332
 4480TIP3   OH237634   2.359   4.482  11.680 -0.0210 -0.3001 -0.1097
 4480TIP3    H137635   2.332   4.427  11.607  0.8779 -0.0702 -0.6290
 4480TIP3    H237636   2.382   4.420  11.749  1.4797 -0.6181 -0.8640
 4481TIP3   OH237637   1.308   4.843   9.233  0.1468  0.1953  0.6129
 4481TIP3    H137638   1.254   4.859   9.310 -1.5244  0.6552 -0.5812
 4481TIP3    H237639   1.255   4.784   9.179  0.7291  0.8404 -0.7189
 4482TIP3   OH237640   6.437   2.180   8.466  0.0773 -0.3686 -0.1805
 4482TIP3    H137641   6.430   2.088   8.492  2.4720 -0.4300  0.5188
 4482TIP3    H237642   6.396   2.184   8.380 -1.5722 -1.7143  0.4925
 4483TIP3   OH237643   2.294   6.558   9.096  0.5826  0.3658 -0.1545
 4483TIP3    H137644   2.223   6.530   9.153  0.5276  1.1853  0.1952
 4483TIP3    H237645   2.250   6.583   9.014  0.7482 -1.6513 -0.9002
 4484TIP3   OH237646   4.529   0.879   9.692  0.2359 -0.5241  0.0768
 4484TIP3    H137647   4.507   0.946   9.628 -0.2998  0.6382  1.4273
 4484TIP3    H237648   4.481   0.904   9.771 -2.8318 -4.3535 -0.2393
 4485TIP3   OH237649   2.459   3.783   8.991  0.2393 -0.0041 -0.4632
 4485TIP3    H137650   2.449   3.859   9.048  0.0425 -0.1528 -0.2982
 4485TIP3    H237651   2.370   3.751   8.977  0.4197 -1.3478  1.0450
 4486TIP3   OH237652   5.773   5.499   9.200  0.7853  0.2126  0.4885
 4486TIP3    H137653   5.791   5.419   9.249  0.9356  0.0232  0.1237
 4486TIP3    H237654   5.731   5.469   9.119 -2.1852  0.6889  1.7474
 4487TIP3   OH237655   5.032   1.683   8.857 -0.0865 -0.4267 -0.4734
 4487TIP3    H137656   5.094   1.689   8.784 -1.1769  2.1374 -1.2995
 4487TIP3    H237657   4.960   1.629   8.823  0.3383 -0.9592 -0.5410
 4488TIP3   OH237658   2.735   0.305  10.120  0.3472 -0.1319 -0.1235
 4488TIP3    H137659   2.779   0.220  10.121  0.1885 -0.2192  1.0080
 4488TIP3    H237660   2.795   0.364  10.166  0.0884  0.1707 -0.1673
 4489TIP3   OH237661   6.152   3.195  10.522 -0.0213 -0.3399 -0.0024
 4489TIP3    H137662   6.164   3.290  10.515  0.8120 -0.5043 -1.2537
 4489TIP3    H237663   6.238   3.159  10.500 -0.4394 -1.3943  0.0445
 4490TIP3   OH237664   2.850   2.178  11.619 -0.0596  0.0529  0.5342
 4490TIP3    H137665   2.762   2.201  11.592  0.1405  0.3664  0.1473
 4490TIP3    H237666   2.850   2.082  11.624 -0.2724  0.0267  0.0230
 4491TIP3   OH237667   0.111   3.462   9.303  0.9891  0.7445 -0.1974
 4491TIP3    H137668   0.140   3.450   9.213  1.1789  3.2546 -0.5486
 4491TIP3    H237669   0.028   3.414   9.308  0.8701  0.7360 -1.7854
 4492TIP3   OH237670   5.840   3.215  10.907  0.1478 -0.1202  0.0931
 4492TIP3    H137671   5.807   3.265  10.832 -1.6361  0.5632  1.2477
 4492TIP3    H237672   5.853   3.127  10.874  0.0840  0.3202 -1.1772
 4493TIP3   OH237673   4.658   3.559   8.521 -0.2585 -0.2397 -0.0068
 4493TIP3    H137674   4.748   3.586   8.508  0.0430 -1.1596  0.0726
 4493TIP3    H237675   4.621   3.553   8.433 -0.0715 -0.4005 -0.0750
 4494TIP3   OH237676   1.735   3.638  10.105  0.7018 -0.4505  0.0651
 4494TIP3    H137677   1.698   3.700  10.041  0.7111 -0.6651 -0.1493
 4494TIP3    H237678   1.830   3.643  10.091  0.7227 -0.2664  0.2760
 4495TIP3   OH237679   3.301   1.673  10.487  0.0186  0.2798  0.2257
 4495TIP3    H137680   3.366   1.630  10.430  0.2389  2.1206 -1.0036
 4495TIP3    H237681   3.353   1.716  10.555 -0.1795 -1.0155  1.2411
 4496TIP3   OH237682   4.327   2.271  11.820 -0.1728  0.2706 -0.3178
 4496TIP3    H137683   4.330   2.352  11.871  0.8883  0.2217 -0.2747
 4496TIP3    H237684   4.398   2.281  11.757 -1.3714  0.2712 -1.7148
 4497TIP3   OH237685   4.346   1.434  10.370 -1.1276 -0.0858  0.3251
 4497TIP3    H137686   4.378   1.523  10.362 -0.2789 -0.5350 -2.1475
 4497TIP3    H237687   4.266   1.432  10.317 -2.7483 -0.1623  2.6312
 4498TIP3   OH237688   1.862   3.544  11.652 -0.0299  0.0262 -0.0251
 4498TIP3    H137689   1.900   3.483  11.589 -0.6357  0.1890 -0.5630
 4498TIP3    H237690   1.855   3.495  11.733  1.2861 -0.0183  0.0818
 4499TIP3   OH237691   0.420   6.825  11.168 -0.2299  0.2208  0.1126
 4499TIP3    H137692   0.430   6.913  11.131 -3.7261  0.7098  0.0125
 4499TIP3    H237693   0.455   6.833  11.257  3.2248  0.4905 -1.1175
 4500TIP3   OH237694   2.562   1.516  10.523  0.0062 -0.8464 -0.0674
 4500TIP3    H137695   2.523   1.595  10.487  0.4797 -0.7984 -0.4847
 4500TIP3    H237696   2.573   1.534  10.616  1.4285  0.1184 -0.4086
 4501TIP3   OH237697   6.478   5.074  11.529 -0.1754  0.2756  0.4613
 4501TIP3    H137698   6.498   4.998  11.475  2.1114  1.9788 -1.3490
 4501TIP3    H237699   6.394   5.106  11.496 -0.7121 -0.9283  0.6357
 4502TIP3   OH237700   4.524   5.943   8.367 -0.3854  1.2240 -0.2810
 4502TIP3    H137701   4.582   6.011   8.400  1.1599 -0.1826  0.0319
 4502TIP3    H237702   4.547   5.935   8.274 -0.6898  1.2500 -0.3595
 4503TIP3   OH237703   0.524   2.816  10.842  0.0725 -0.0090 -0.3258
 4503TIP3    H137704   0.614   2.818  10.808  0.0295 -0.7294 -0.5098
 4503TIP3    H237705   0.498   2.907  10.846  0.9244  0.2313  0.0180
 4504TIP3   OH237706   0.224   2.664  11.591  0.1346 -0.1241  0.7361
 4504TIP3    H137707   0.275   2.678  11.511  0.2785 -0.3282  0.7924
 4504TIP3    H237708   0.169   2.589  11.571 -1.0578  0.8507  0.2268
 4505TIP3   OH237709   1.616   6.076   9.093  0.2576 -0.4104  0.1731
 4505TIP3    H137710   1.582   6.166   9.093 -2.2530 -1.2616  1.1654
 4505TIP3    H237711   1.650   6.063   9.005 -1.3011  0.8643 -0.6758
 4506TIP3   OH237712   3.991   2.193   9.684  0.6787  0.0674 -0.2174
 4506TIP3    H137713   3.946   2.140   9.750  2.1877  0.9037  1.5975
 4506TIP3    H237714   4.062   2.138   9.653  2.4284  0.9970  1.8852
 4507TIP3   OH237715   2.533   4.487   8.385  0.3450  0.8267  0.1782
 4507TIP3    H137716   2.565   4.546   8.453  2.4137 -2.1545  2.0335
 4507TIP3    H237717   2.445   4.462   8.413  1.0897 -0.1854  1.7665
 4508TIP3   OH237718   2.040   5.759   9.344 -0.2528 -0.0020  0.3108
 4508TIP3    H137719   1.995   5.816   9.281  0.2992 -0.3321 -0.4014
 4508TIP3    H237720   1.979   5.749   9.416 -0.4463  1.3329  0.3546
 4509TIP3   OH237721   1.337   2.411  11.322 -0.2427 -0.3328  0.3194
 4509TIP3    H137722   1.255   2.449  11.289  0.4235 -0.2057 -1.2705
 4509TIP3    H237723   1.390   2.487  11.347 -0.6468 -0.4203  1.5022
 4510TIP3   OH237724   6.643   5.091  11.783 -0.5671  0.1564  0.3942
 4510TIP3    H137725   6.571   5.081  11.721 -0.4606  1.2454  0.0738
 4510TIP3    H237726   6.667   5.002  11.807 -0.5174 -0.2985 -1.2558
 4511TIP3   OH237727   5.500   2.566   9.541 -0.1987 -0.0235  0.5706
 4511TIP3    H137728   5.476   2.613   9.621  0.4694  0.7290  0.3488
 4511TIP3    H237729   5.574   2.616   9.505  0.0393 -0.8150 -0.0852
 4512TIP3   OH237730   3.752   4.956   9.052  0.0784 -0.5329  0.0809
 4512TIP3    H137731   3.832   4.935   9.004 -0.8120  1.3259 -2.3607
 4512TIP3    H237732   3.771   4.927   9.142  2.1740 -3.2578 -1.0866
 4513TIP3   OH237733   5.213   1.612   9.813  0.2444  0.1784  0.1021
 4513TIP3    H137734   5.256   1.578   9.891 -0.3166  1.7232  1.1239
 4513TIP3    H237735   5.286   1.640   9.756  0.6350 -0.0924  0.4612
 4514TIP3   OH237736   1.018   5.535  10.660 -0.1943 -0.3303  0.1348
 4514TIP3    H137737   1.061   5.621  10.653 -1.6938  0.5071  0.7180
 4514TIP3    H237738   1.015   5.518  10.754 -1.8248  0.0331  0.1820
 4515TIP3   OH237739   1.309   3.299  11.376 -0.0298  0.0051 -0.1787
 4515TIP3    H137740   1.252   3.228  11.348  0.4570 -0.5290  0.1508
 4515TIP3    H237741   1.254   3.354  11.432  0.0851 -1.1580  1.1171
 4516TIP3   OH237742   6.180   6.408  10.035 -0.2153 -0.6341  0.2482
 4516TIP3    H137743   6.261   6.437  10.076 -0.9035 -0.8806  1.8725
 4516TIP3    H237744   6.167   6.468   9.962  1.4554 -0.6547 -0.1016
 4517TIP3   OH237745   4.948   0.263   9.593  0.4069  0.2395  0.4352
 4517TIP3    H137746   4.948   0.353   9.560  0.8022  0.5285  1.1917
 4517TIP3    H237747   4.904   0.213   9.525  0.9640  0.8589 -0.4029
 4518TIP3   OH237748   6.150   4.411  11.160  0.2436 -0.8433  0.2126
 4518TIP3    H137749   6.055   4.417  11.165  0.2775 -0.3915  0.3979
 4518TIP3    H237750   6.176   4.372  11.244  0.4182  1.7424  1.4745
 4519TIP3   OH237751   1.572   6.086  10.962 -0.0592 -0.0216 -0.0893
 4519TIP3    H137752   1.655   6.039  10.953  0.1285  0.3011 -0.0665
 4519TIP3    H237753   1.553   6.117  10.873 -0.8054 -1.1682 -0.3500
 4520TIP3   OH237754   6.099   5.547   9.129  0.1184 -0.7606 -0.2418
 4520TIP3    H137755   6.117   5.628   9.177  0.9165 -1.4478  0.6579
 4520TIP3    H237756   6.031   5.503   9.180 -1.7315  0.1733 -1.7461
 4521TIP3   OH237757   2.947   0.305  11.376 -0.8817 -0.3583  0.6095
 4521TIP3    H137758   3.026   0.344  11.411  0.3179 -0.0235 -2.1958
 4521TIP3    H237759   2.961   0.211  11.384  0.0228 -0.3094 -0.2281
 4522TIP3   OH237760   5.773   4.647  10.503 -0.2793 -0.2292 -0.7664
 4522TIP3    H137761   5.700   4.646  10.564 -0.0550  0.8225 -0.4676
 4522TIP3    H237762   5.734   4.622  10.419 -0.9278  0.0344 -0.5481
 4523TIP3   OH237763   4.028   5.958  10.078  0.5294 -0.2828  0.1130
 4523TIP3    H137764   3.989   6.027  10.132  1.1855 -1.0064  1.5902
 4523TIP3    H237765   3.994   5.877  10.115  1.2289 -0.8167 -0.3832
 4524TIP3   OH237766   1.661   3.262  10.370 -0.3659  0.0506  0.6799
 4524TIP3    H137767   1.749   3.229  10.390  0.1258  0.9421  0.0740
 4524TIP3    H237768   1.636   3.312  10.447  0.2168  0.8802  0.3496
 4525TIP3   OH237769   3.220   1.501  10.168  0.3922 -0.0513  0.5894
 4525TIP3    H137770   3.253   1.461  10.088 -0.0734 -0.5366  0.6377
 4525TIP3    H237771   3.174   1.580  10.138  0.4925 -0.0606  0.4077
 4526TIP3   OH237772   5.580   0.643   9.200  0.1258  0.6829 -0.2215
 4526TIP3    H137773   5.577   0.566   9.144  0.2175  0.1791  0.4598
 4526TIP3    H237774   5.519   0.624   9.271 -0.3624  1.5215 -0.4003
 4527TIP3   OH237775   1.662   2.229  10.966  0.2305 -0.4465  0.6454
 4527TIP3    H137776   1.705   2.312  10.987  0.1886  0.0096 -0.9197
 4527TIP3    H237777   1.621   2.202  11.048  2.5430 -0.3435  1.9190
 4528TIP3   OH237778   2.394   1.300  10.812 -0.1311  0.5361  0.3798
 4528TIP3    H137779   2.445   1.259  10.742 -0.9648 -1.9765  1.1572
 4528TIP3    H237780   2.337   1.230  10.844 -2.7666  2.7131  0.7889
 4529TIP3   OH237781   3.677   3.278   8.960 -0.2612  0.4244  0.5409
 4529TIP3    H137782   3.737   3.345   8.994 -0.7625  0.5273  1.2373
 4529TIP3    H237783   3.626   3.323   8.893  2.0834 -0.2697 -1.8805
 4530TIP3   OH237784   1.497   4.008  10.783 -0.0173  0.2117  0.3464
 4530TIP3    H137785   1.543   4.029  10.701 -0.4118 -0.0862  0.0412
 4530TIP3    H237786   1.567   3.986  10.844  0.2063 -2.7371 -0.8111
 4531TIP3   OH237787   3.268   3.043  11.732 -0.0041 -0.5882 -0.1136
 4531TIP3    H137788   3.207   2.979  11.695 -1.5090 -0.5039  2.0298
 4531TIP3    H237789   3.298   3.094  11.657 -1.4368 -1.6043 -1.4362
 4532TIP3   OH237790   1.947   6.758  11.910  0.0409 -0.1638  0.0832
 4532TIP3    H137791   1.975   6.777  11.999 -2.1565  2.4760  0.3440
 4532TIP3    H237792   1.876   6.695  11.920 -1.1526  1.1798  0.3948
 4533TIP3   OH237793   1.753   0.568   9.996  0.0149  0.2197 -0.5936
 4533TIP3    H137794   1.822   0.508  10.024  0.4231  1.6600  1.7815
 4533TIP3    H237795   1.672   0.526  10.024  0.0341 -0.6474 -1.7846
 4534TIP3   OH237796   4.922   2.573   8.538  0.6444 -0.6824  0.6636
 4534TIP3    H137797   4.862   2.503   8.511 -1.9590  0.7239  2.3465
 4534TIP3    H237798   4.956   2.543   8.623 -2.1077  0.7831  2.4513
 4535TIP3   OH237799   3.505   4.269   8.339  0.3484  0.2706 -0.2095
 4535TIP3    H137800   3.553   4.301   8.262  0.0906  1.3726  0.0717
 4535TIP3    H237801   3.530   4.177   8.345  1.7152  0.5773 -0.6187
 4536TIP3   OH237802   6.550   0.765   8.984  0.4725  0.8042 -0.1513
 4536TIP3    H137803   6.624   0.711   9.013  0.7359  0.5783 -1.1784
 4536TIP3    H237804   6.542   0.744   8.891 -0.5335  1.2514 -0.1686
 4537TIP3   OH237805   3.136   4.551  10.860 -0.0753  0.1170 -0.4404
 4537TIP3    H137806   3.101   4.604  10.789 -0.1387  1.5244  0.5859
 4537TIP3    H237807   3.070   4.556  10.929  0.0971 -1.0003 -0.1721
 4538TIP3   OH237808   5.478   1.190   8.560  0.7042  0.6334 -0.3666
 4538TIP3    H137809   5.549   1.132   8.587 -1.5171 -1.4555  1.4129
 4538TIP3    H237810   5.479   1.187   8.464  0.8762 -2.1976 -0.3442
 4539TIP3   OH237811   5.948   5.367  10.171 -0.6924 -0.4341  0.2691
 4539TIP3    H137812   5.944   5.281  10.129 -2.0596  0.3957 -1.4416
 4539TIP3    H237813   5.859   5.384  10.201 -0.6330  0.7285 -0.1477
 4540TIP3   OH237814   0.010   5.792   9.195  0.0464  0.1579  0.8508
 4540TIP3    H137815   0.093   5.838   9.212  0.4890 -0.6565  0.9534
 4540TIP3    H237816   0.028   5.740   9.117 -0.3739 -0.0276  0.8791
 4541TIP3   OH237817   5.297   0.084  11.652 -0.4576  0.2243  0.2677
 4541TIP3    H137818   5.254   0.134  11.720 -0.2115 -0.0792  0.6528
 4541TIP3    H237819   5.334   0.149  11.593  0.0774  0.5025  0.8996
 4542TIP3   OH237820   6.343   6.417   8.880 -0.0199  0.4018 -0.2247
 4542TIP3    H137821   6.390   6.334   8.885  2.8230  1.8526 -0.5931
 4542TIP3    H237822   6.314   6.422   8.789  1.3474  0.5276 -0.6792
 4543TIP3   OH237823   2.340   2.491  11.594 -0.2030 -0.3947  0.2943
 4543TIP3    H137824   2.409   2.511  11.657 -0.6311  1.5576  0.1942
 4543TIP3    H237825   2.386   2.483  11.510 -0.0881  1.0861  0.1971
 4544TIP3   OH237826   3.370   0.316  10.688 -0.2177  0.4273 -0.4267
 4544TIP3    H137827   3.367   0.301  10.594 -0.0064  1.7612 -0.6751
 4544TIP3    H237828   3.388   0.230  10.726  1.9782  0.2096 -1.7568
 4545TIP3   OH237829   3.229   2.976  10.308 -0.2534 -0.3603  0.3024
 4545TIP3    H137830   3.320   2.949  10.312  0.8137  3.0319  2.8003
 4545TIP3    H237831   3.232   3.071  10.296 -3.3351  0.2010  2.7534
 4546TIP3   OH237832   1.248   3.290   9.172  0.0920 -0.0061 -0.2530
 4546TIP3    H137833   1.341   3.314   9.178 -0.1189  0.5560  1.8294
 4546TIP3    H237834   1.203   3.374   9.158 -0.1759 -0.0606  0.2360
 4547TIP3   OH237835   2.704   4.600  10.894 -0.6662 -0.3181 -0.1281
 4547TIP3    H137836   2.732   4.537  10.829 -1.2099 -0.3286 -0.3572
 4547TIP3    H237837   2.643   4.552  10.950 -0.7772 -0.1103 -0.0673
 4548TIP3   OH237838   0.208   3.494  11.589  0.6464  0.1291  0.8418
 4548TIP3    H137839   0.235   3.554  11.519 -0.1161  0.5320  0.8805
 4548TIP3    H237840   0.220   3.407  11.552  0.4758  0.3347  0.2888
 4549TIP3   OH237841   4.305   3.089   9.990  0.1652  0.3115  0.0038
 4549TIP3    H137842   4.344   3.001   9.988 -0.0743  0.1977  0.2359
 4549TIP3    H237843   4.287   3.110   9.898  1.0109  0.4735 -0.1272
 4550TIP3   OH237844   6.076   3.553  11.702  0.6161 -0.1088 -0.5219
 4550TIP3    H137845   6.150   3.494  11.714  0.1502 -1.5181 -3.5841
 4550TIP3    H237846   6.107   3.619  11.641 -0.3452 -0.1465 -1.0697
 4551TIP3   OH237847   1.443   3.172   9.649  0.5282 -0.4269 -0.1331
 4551TIP3    H137848   1.504   3.098   9.657  1.4124  0.3338  0.4497
 4551TIP3    H237849   1.500   3.247   9.632 -0.4376 -0.0247 -1.7778
 4552TIP3   OH237850   1.219   5.182  11.111 -0.1148 -0.0230 -0.1437
 4552TIP3    H137851   1.193   5.102  11.066 -0.0429 -0.5395  0.7012
 4552TIP3    H237852   1.261   5.151  11.192  0.3660  0.8560 -0.0437
 4553TIP3   OH237853   5.912   5.002   9.169  0.5035 -0.0548 -0.4361
 4553TIP3    H137854   5.820   5.010   9.145  0.7481  0.7432 -1.1700
 4553TIP3    H237855   5.944   4.927   9.119 -0.0698 -1.2460  0.9148
 4554TIP3   OH237856   4.790   1.192   8.959  0.2116  0.4341  0.0584
 4554TIP3    H137857   4.726   1.260   8.940  0.7271  0.4742 -1.7246
 4554TIP3    H237858   4.862   1.209   8.898  1.0561 -0.7602  0.6774
 4555TIP3   OH237859   3.558   0.113  11.830  0.2074 -0.1693 -0.1849
 4555TIP3    H137860   3.612   0.162  11.767 -1.3909 -1.1468 -2.4646
 4555TIP3    H237861   3.548   0.173  11.904 -0.7542  2.6190 -2.3607
 4556TIP3   OH237862   0.080   0.119  11.675  0.5278 -0.2037 -0.1543
 4556TIP3    H137863   0.088   0.050  11.741 -0.2999 -1.0262 -0.8823
 4556TIP3    H237864   0.089   0.073  11.592  0.7445  0.6982 -0.6345
 4557TIP3   OH237865   3.781   1.201  11.065  0.1228  0.4680 -0.0269
 4557TIP3    H137866   3.821   1.266  11.124  1.9486 -1.0601  0.5110
 4557TIP3    H237867   3.842   1.195  10.992 -1.3144  1.1495 -1.3389
 4558TIP3   OH237868   3.252   1.055   9.178 -0.1005  0.0550 -0.2008
 4558TIP3    H137869   3.266   0.999   9.254 -1.1231 -0.1915 -0.1920
 4558TIP3    H237870   3.341   1.077   9.148  0.4256  2.2424  2.5640
 4559TIP3   OH237871   6.318   3.486  10.123 -0.3088 -0.1809 -0.0752
 4559TIP3    H137872   6.324   3.448  10.035 -0.9056 -1.7806  0.5282
 4559TIP3    H237873   6.392   3.547  10.128 -1.3959  1.4825 -2.3536
 4560TIP3   OH237874   1.723   6.466  10.788  0.0009  0.0674  0.0729
 4560TIP3    H137875   1.699   6.374  10.775  1.7387 -0.6358  1.5494
 4560TIP3    H237876   1.708   6.482  10.881  0.3062  1.1263 -0.0465
 4561TIP3   OH237877   3.418   0.848   9.715  0.3805  0.2686 -0.7758
 4561TIP3    H137878   3.484   0.894   9.664 -0.5155  0.0898 -2.1474
 4561TIP3    H237879   3.465   0.773   9.752  1.2472  0.8762 -0.6211
 4562TIP3   OH237880   6.693   1.066  10.693 -0.4653  0.0087 -0.1605
 4562TIP3    H137881   6.689   1.150  10.647 -1.9330  1.2679  2.0876
 4562TIP3    H237882   6.662   1.002  10.629  2.5110  0.7648 -2.5873
 4563TIP3   OH237883   1.942   6.299  10.197  0.3088 -0.9225 -0.7306
 4563TIP3    H137884   1.917   6.381  10.240  1.0681 -0.5188 -1.0500
 4563TIP3    H237885   2.016   6.322  10.141  1.6710 -2.1570  0.4646
 4564TIP3   OH237886   0.089   0.382  11.687  0.2593  0.3137  0.1867
 4564TIP3    H137887   0.098   0.287  11.692 -0.7411 -0.0236 -2.6986
 4564TIP3    H237888   0.175   0.413  11.659  2.1615  0.9674  5.5746
 4565TIP3   OH237889   5.152   5.003   9.159 -0.0900  0.6689  0.1002
 4565TIP3    H137890   5.136   5.075   9.220  1.6590  1.3152 -0.1319
 4565TIP3    H237891   5.068   4.958   9.152 -0.9955  2.1375  0.9679
 4566TIP3   OH237892   1.860   0.665   9.458  0.0486  0.0101 -0.1108
 4566TIP3    H137893   1.840   0.663   9.552 -0.6626  2.6013 -0.1376
 4566TIP3    H237894   1.859   0.573   9.431 -1.2021 -0.6936  2.1122
 4567TIP3   OH237895   3.299   3.399   9.615  0.3481  0.5758  0.1534
 4567TIP3    H137896   3.299   3.329   9.680  0.8329  1.7513  1.4773
 4567TIP3    H237897   3.343   3.472   9.658 -2.4939  2.6479 -0.1251
 4568TIP3   OH237898   5.266   1.800  10.676 -0.0160  0.3417  0.1697
 4568TIP3    H137899   5.351   1.769  10.707  0.1250  0.5973  0.0436
 4568TIP3    H237900   5.204   1.772  10.743 -0.0220 -0.9452 -0.3448
 4569TIP3   OH237901   5.450   6.014  11.483 -0.0914 -0.5036  0.3220
 4569TIP3    H137902   5.400   5.985  11.407  1.0231 -1.8466  0.0653
 4569TIP3    H237903   5.535   5.972  11.473  1.5404  2.5154  0.1601
 4570TIP3   OH237904   1.538   0.808   9.591 -0.1713 -1.1664 -0.1150
 4570TIP3    H137905   1.567   0.751   9.662  2.0483 -0.3459 -0.2641
 4570TIP3    H237906   1.580   0.892   9.609 -0.8920 -0.4597 -1.5164
 4571TIP3   OH237907   3.245   3.548   9.167  0.0990 -1.1984  0.6353
 4571TIP3    H137908   3.233   3.465   9.120 -1.7744 -2.3379  2.8923
 4571TIP3    H237909   3.309   3.528   9.235  1.7000  0.0274 -0.4482
 4572TIP3   OH237910   5.347   1.058  10.688 -0.1650 -0.2515  0.0880
 4572TIP3    H137911   5.275   1.097  10.738  0.6669 -0.4125  1.4761
 4572TIP3    H237912   5.324   0.966  10.680  0.7646 -0.7237  2.2616
 4573TIP3   OH237913   4.953   0.602   8.555  0.2022 -0.7612  0.5526
 4573TIP3    H137914   4.935   0.656   8.632  0.7585 -0.2921  0.3596
 4573TIP3    H237915   4.952   0.663   8.481 -1.6070 -1.4040 -0.0019
 4574TIP3   OH237916   2.284   2.260  11.878  0.2463 -0.0493  0.0884
 4574TIP3    H137917   2.194   2.247  11.910 -0.1241 -0.7579 -1.1463
 4574TIP3    H237918   2.314   2.339  11.922 -0.6339 -0.3450  1.2744
 4575TIP3   OH237919   1.541   1.072  11.058  0.1181  0.3616 -0.8589
 4575TIP3    H137920   1.555   1.139  10.991  1.6419  0.6063 -0.3375
 4575TIP3    H237921   1.464   1.102  11.106 -1.0464  0.1489 -2.5044
 4576TIP3   OH237922   4.750   6.433   9.853  0.5350  0.7212 -0.2735
 4576TIP3    H137923   4.784   6.372   9.918  0.2426 -0.0467 -0.8172
 4576TIP3    H237924   4.816   6.502   9.848  1.3014  0.0140 -0.2540
 4577TIP3   OH237925   0.393   1.888   9.807  0.1345 -0.1945 -0.0623
 4577TIP3    H137926   0.361   1.882   9.717 -0.2893  2.5478 -0.1608
 4577TIP3    H237927   0.459   1.819   9.813 -2.5600 -3.1169 -1.1981
 4578TIP3   OH237928   0.841   2.696   8.178 -0.2815  0.0007 -0.0812
 4578TIP3    H137929   0.781   2.765   8.148  0.6139  0.6883 -0.3094
 4578TIP3    H237930   0.882   2.664   8.098 -0.3448 -0.4892  0.0770
 4579TIP3   OH237931   6.051   2.664  10.018 -0.3017 -0.3744  0.2044
 4579TIP3    H137932   5.962   2.685   9.991 -0.4441 -0.4307  0.6177
 4579TIP3    H237933   6.106   2.728   9.973 -0.5655 -0.2440  0.0663
 4580TIP3   OH237934   2.074   3.322  10.613  0.1786 -0.3510 -0.5441
 4580TIP3    H137935   2.138   3.250  10.611  0.5254 -0.2485  2.2881
 4580TIP3    H237936   2.105   3.384  10.547  0.1885 -2.4657 -2.6673
 4581TIP3   OH237937   1.341   6.362   9.772  0.3845 -0.4005 -0.0838
 4581TIP3    H137938   1.373   6.344   9.861 -1.0705 -0.2974  0.4939
 4581TIP3    H237939   1.409   6.327   9.714  1.6902  0.1319  1.0628
 4582TIP3   OH237940   5.006   4.820   8.942 -0.0227 -0.1973 -0.2234
 4582TIP3    H137941   4.965   4.780   9.018 -0.3811  0.7165  0.0763
 4582TIP3    H237942   4.941   4.882   8.909  1.2394  1.6523  0.5514
 4583TIP3   OH237943   0.927   3.893  11.716 -0.5396 -0.0717  0.4366
 4583TIP3    H137944   0.835   3.919  11.726 -0.0718  1.7250  0.3497
 4583TIP3    H237945   0.976   3.960  11.763  0.9617  1.3210 -2.8088
 4584TIP3   OH237946   6.252   0.449  10.879 -0.1650  0.3305  0.4355
 4584TIP3    H137947   6.289   0.506  10.945  1.2085  0.3360 -0.3107
 4584TIP3    H237948   6.262   0.360  10.914  0.1232  0.3683  0.4486
 4585TIP3   OH237949   6.535   2.174  11.478 -0.0506  0.2567  0.4848
 4585TIP3    H137950   6.483   2.211  11.407 -1.3089  0.2603  1.3759
 4585TIP3    H237951   6.479   2.107  11.517  1.0924 -0.6054  0.7049
 4586TIP3   OH237952   5.798   2.790  10.903 -0.2783  0.3251 -0.1081
 4586TIP3    H137953   5.828   2.849  10.973 -0.9800 -0.4529  0.8676
 4586TIP3    H237954   5.705   2.779  10.919  0.0158 -1.8434  0.3378
 4587TIP3   OH237955   3.606   1.133   9.828  0.1095 -0.2438  0.1827
 4587TIP3    H137956   3.536   1.153   9.766  1.4234  2.0297 -0.6951
 4587TIP3    H237957   3.610   1.211   9.884  2.8143  0.3704 -0.7232
 4588TIP3   OH237958   0.940   4.146  10.316  0.0086 -0.4805 -0.4873
 4588TIP3    H137959   0.991   4.071  10.289  1.0468  0.2754 -0.6909
 4588TIP3    H237960   1.004   4.217  10.325 -1.0346  0.5636 -1.0066
 4589TIP3   OH237961   4.426   6.087   8.589  0.3713 -0.7102 -0.6918
 4589TIP3    H137962   4.429   6.001   8.546  0.6148 -1.1722  0.2298
 4589TIP3    H237963   4.362   6.137   8.538  1.0571 -1.0547 -1.9216
 4590TIP3   OH237964   4.346   2.850  11.006  0.1970  0.2403 -0.5353
 4590TIP3    H137965   4.343   2.939  11.041  1.2263  0.8886 -1.9841
 4590TIP3    H237966   4.383   2.797  11.076 -1.7156  0.6400  0.8614
 4591TIP3   OH237967   4.936   4.456   8.567  0.4343 -0.1474 -0.0726
 4591TIP3    H137968   4.944   4.525   8.633  0.6689 -0.8440  0.6423
 4591TIP3    H237969   4.991   4.485   8.495  0.1285  0.6558  0.0085
 4592TIP3   OH237970   5.977   1.595   8.251 -0.6805 -0.0751  0.5266
 4592TIP3    H137971   6.045   1.528   8.250 -0.0618  0.5107  1.4026
 4592TIP3    H237972   5.935   1.586   8.337 -0.6896  0.5471  0.5976
 4593TIP3   OH237973   5.966   5.210  11.477  0.1020 -0.3988  0.2528
 4593TIP3    H137974   5.888   5.168  11.439 -0.1526  0.1608  0.1459
 4593TIP3    H237975   5.931   5.286  11.524  0.4517 -0.8732  1.3011
 4594TIP3   OH237976   3.080   2.526   8.878 -0.0668 -0.0026 -0.0570
 4594TIP3    H137977   3.106   2.539   8.787  2.7760  0.2298  0.6957
 4594TIP3    H237978   3.030   2.605   8.900  0.6986  0.7493 -0.9455
 4595TIP3   OH237979   4.927   2.445   9.579  0.2693  0.3113 -0.3855
 4595TIP3    H137980   4.944   2.490   9.496 -1.3591  2.0893  0.1657
 4595TIP3    H237981   5.012   2.412   9.607  1.2755  1.7903 -1.5922
 4596TIP3   OH237982   2.756   4.015  11.591 -0.3147  0.0920  0.2234
 4596TIP3    H137983   2.690   3.993  11.525  0.1962 -0.3466 -0.1507
 4596TIP3    H237984   2.741   4.108  11.610  0.0231  0.4447 -1.0984
 4597TIP3   OH237985   5.781   4.318   9.863 -0.7587  0.1275  0.5080
 4597TIP3    H137986   5.827   4.375   9.924  1.5309  0.3307 -1.2438
 4597TIP3    H237987   5.726   4.377   9.812  0.3951  0.5960 -0.2411
 4598TIP3   OH237988   2.575   5.046  10.756  0.4632 -0.0280 -0.1533
 4598TIP3    H137989   2.650   5.097  10.726 -0.9546  2.7198  0.6283
 4598TIP3    H237990   2.508   5.061  10.689 -0.5242  0.6017  0.9410
 4599TIP3   OH237991   0.853   5.131   8.936 -0.0638 -0.3360 -0.0192
 4599TIP3    H137992   0.859   5.183   8.856  0.9799 -0.1308  0.1770
 4599TIP3    H237993   0.838   5.196   9.005  1.1507 -0.2796  0.2142
 4600TIP3   OH237994   5.969   2.476   9.786 -0.2100  0.1284  0.6337
 4600TIP3    H137995   6.040   2.534   9.813 -0.4959  0.4192  0.7698
 4600TIP3    H237996   5.943   2.509   9.700 -1.3811  1.1727  1.3419
 4601TIP3   OH237997   2.779   6.769  10.406 -0.5713 -0.0450  0.4546
 4601TIP3    H137998   2.685   6.752  10.408 -0.7450  0.5405 -1.0747
 4601TIP3    H237999   2.797   6.793  10.315  1.2239 -1.0475  0.4911
 4602TIP3   OH238000   3.511   2.274   9.247  0.2179  0.2545  0.0050
 4602TIP3    H138001   3.582   2.305   9.192  0.1843 -0.2117 -0.3152
 4602TIP3    H238002   3.513   2.330   9.325  1.0675  0.1101  0.0949
 4603TIP3   OH238003   3.131   3.385   9.954 -0.3813 -0.3545  0.2771
 4603TIP3    H138004   3.060   3.405   9.893  0.9508  3.2382 -0.3548
 4603TIP3    H238005   3.100   3.417  10.039 -0.1824 -0.3191  0.3375
 4604TIP3   OH238006   1.522   4.346  11.657  0.5039 -0.3613 -0.1796
 4604TIP3    H138007   1.450   4.326  11.598  0.4088  1.9669 -0.9478
 4604TIP3    H238008   1.501   4.432  11.693  0.3458 -1.8193  3.6560
 4605TIP3   OH238009   0.664   3.948  11.622  0.0713  0.1001  0.1652
 4605TIP3    H138010   0.657   3.905  11.537 -0.0095  1.6135 -0.6168
 4605TIP3    H238011   0.576   3.943  11.659 -0.1977  0.5543 -0.4055
 4606TIP3   OH238012   6.074   3.194   8.874 -0.1663  0.8003 -0.2048
 4606TIP3    H138013   6.134   3.162   8.941  1.0468  2.6001 -0.3573
 4606TIP3    H238014   6.087   3.136   8.799 -0.1127 -0.0358  0.4360
 4607TIP3   OH238015   4.895   4.472  11.495 -1.1811 -0.1652 -0.1374
 4607TIP3    H138016   4.879   4.563  11.517 -0.4451 -0.2791  1.0011
 4607TIP3    H238017   4.810   4.429  11.506 -0.8586 -0.2718  3.0818
 4608TIP3   OH238018   1.273   1.003   9.565 -0.0387  0.4856  0.6584
 4608TIP3    H138019   1.305   1.038   9.482 -1.1106  0.4314  0.2099
 4608TIP3    H238020   1.339   1.030   9.629 -0.0617  2.0399  0.0817
 4609TIP3   OH238021   2.239   6.780  10.798  0.1563  0.2973  0.2688
 4609TIP3    H138022   2.261   6.768  10.705  0.0435 -0.2478  0.3097
 4609TIP3    H238023   2.188   6.861  10.800  0.4267  0.4809 -0.1034
 4610TIP3   OH238024   1.500   3.005  10.386 -0.0947  0.6570  0.0795
 4610TIP3    H138025   1.506   2.963  10.300  0.2101 -0.5759  0.6719
 4610TIP3    H238026   1.543   3.089  10.375  1.5367 -0.2147 -0.5690
 4611TIP3   OH238027   0.089   2.802   9.260 -0.2953  0.1468 -0.1437
 4611TIP3    H138028   0.091   2.813   9.165 -0.5889 -1.2857 -0.3534
 4611TIP3    H238029   0.096   2.707   9.273 -1.8218  0.1699  1.1912
 4612TIP3   OH238030   2.067   4.156   9.001 -0.4145  0.0933  0.3393
 4612TIP3    H138031   2.137   4.211   8.965 -0.7778  1.0187  1.0064
 4612TIP3    H238032   2.084   4.069   8.965  1.0931  0.2927  0.4896
 4613TIP3   OH238033   0.915   2.188  11.885  0.0896 -0.3537  0.3736
 4613TIP3    H138034   0.975   2.227  11.822 -0.9311 -0.3367 -0.6034
 4613TIP3    H238035   0.957   2.105  11.910  1.3293  0.4439  1.0110
 4614TIP3   OH238036   5.633   0.158  11.492 -0.0986  0.2926  0.4409
 4614TIP3    H138037   5.620   0.222  11.562 -1.1551 -0.8717  1.3682
 4614TIP3    H238038   5.726   0.135  11.498  0.7583  2.9721 -1.0838
 4615TIP3   OH238039   4.053   0.194  10.519  0.3944 -0.2671 -0.2588
 4615TIP3    H138040   4.020   0.159  10.437  0.6563 -1.8603  0.2880
 4615TIP3    H238041   4.146   0.208  10.505  0.9103 -2.6337  0.3869
 4616TIP3   OH238042   6.740   4.498   9.532 -0.4159 -0.1813 -0.7370
 4616TIP3    H138043   6.658   4.452   9.514 -0.5865  0.4049 -1.5415
 4616TIP3    H238044   6.718   4.591   9.521  0.0121  0.0785  0.4648
 4617TIP3   OH238045   1.573   4.927  10.198  0.4917 -0.3907  0.3005
 4617TIP3    H138046   1.616   4.973  10.270 -1.8887  0.7177  1.1039
 4617TIP3    H238047   1.617   4.958  10.119  1.0894  0.7690  1.0714
 4618TIP3   OH238048   1.636   4.259  10.404  0.0281  0.2498  0.0091
 4618TIP3    H138049   1.624   4.293  10.316  0.7499 -0.1133 -0.2331
 4618TIP3    H238050   1.725   4.282  10.428  0.2085 -0.6150  0.2117
 4619TIP3   OH238051   3.162   5.138  10.194 -0.2243 -0.1998 -0.0939
 4619TIP3    H138052   3.204   5.221  10.217  1.1672 -1.2298  1.2692
 4619TIP3    H238053   3.225   5.071  10.221 -1.5705 -1.7291 -0.5970
 4620TIP3   OH238054   6.208   3.259   9.672 -0.4421 -0.3834  0.0514
 4620TIP3    H138055   6.232   3.216   9.590 -1.8363  0.3925 -0.7948
 4620TIP3    H238056   6.135   3.206   9.706 -1.1233  0.3701 -0.1998
 4621TIP3   OH238057   1.056   4.083  10.978  0.3513  0.0300  0.4535
 4621TIP3    H138058   1.120   4.148  11.009 -0.5365  1.5358 -0.6908
 4621TIP3    H238059   1.102   4.038  10.907  0.0306  1.4878 -0.7447
 4622TIP3   OH238060   0.274   5.957  11.191 -0.2792 -0.2420  0.1651
 4622TIP3    H138061   0.280   6.040  11.143 -0.2857  0.5423  1.4721
 4622TIP3    H238062   0.279   5.890  11.123 -0.2443  0.8233 -0.9234
 4623TIP3   OH238063   6.535   6.784  11.153  0.6161 -0.2910  0.2749
 4623TIP3    H138064   6.556   6.690  11.153  1.3579 -0.1418 -0.4725
 4623TIP3    H238065   6.584   6.819  11.079 -0.9581  0.4088 -0.4808
 4624TIP3   OH238066   2.173   2.492   9.393  0.2852  0.6202 -0.3299
 4624TIP3    H138067   2.143   2.412   9.436  1.1970 -0.6775 -1.9879
 4624TIP3    H238068   2.107   2.557   9.417 -1.0537 -0.8592  0.2509
 4625TIP3   OH238069   0.952   2.414  11.048  0.1305  0.7271  0.4671
 4625TIP3    H138070   0.946   2.330  11.003  2.1629  0.8319 -0.0774
 4625TIP3    H238071   1.023   2.403  11.111  2.1568  2.7076 -1.2892
 4626TIP3   OH238072   2.839   2.365  11.020 -0.0323  0.1384  0.4469
 4626TIP3    H138073   2.871   2.315  11.095 -2.5767 -1.0698  0.8406
 4626TIP3    H238074   2.867   2.314  10.944 -0.7339 -0.7704  0.7694
 4627TIP3   OH238075   4.347   0.457   9.408 -0.5408 -0.4081  0.4064
 4627TIP3    H138076   4.414   0.524   9.420 -0.0484 -0.6242 -0.9343
 4627TIP3    H238077   4.387   0.393   9.349 -1.5738 -1.0663  0.3858
 4628TIP3   OH238078   3.990   4.381  11.013  0.5050  1.0111 -0.1749
 4628TIP3    H138079   3.909   4.346  11.050 -0.2892  1.9293 -1.0027
 4628TIP3    H238080   4.038   4.304  10.984 -0.1062  0.4578  0.2430
 4629TIP3   OH238081   3.840   2.211   9.317  0.3612  0.2028  0.1542
 4629TIP3    H138082   3.805   2.249   9.236  2.6651  1.0480 -0.5440
 4629TIP3    H238083   3.924   2.174   9.291  1.3245  0.7825  2.2235
 4630TIP3   OH238084   1.966   6.339  10.908 -0.1282 -0.4714  0.1901
 4630TIP3    H138085   1.927   6.418  10.870 -0.3836  0.0766  1.5085
 4630TIP3    H238086   2.056   6.339  10.876 -0.1522  0.3152  0.0858
 4631TIP3   OH238087   0.559   6.108  10.059 -0.9487  0.4167  0.2981
 4631TIP3    H138088   0.568   6.139   9.969 -1.7116 -0.0465  0.0557
 4631TIP3    H238089   0.648   6.112  10.095 -0.3169 -0.9831 -0.9961
 4632TIP3   OH238090   3.938   3.213  10.151 -0.1216  0.5124  1.0865
 4632TIP3    H138091   3.866   3.223  10.089 -0.5148 -0.1623  1.4203
 4632TIP3    H238092   3.946   3.299  10.193  0.0557  0.9267  0.2092
 4633TIP3   OH238093   5.335   5.813   9.183  0.6330  0.2038  0.3097
 4633TIP3    H138094   5.294   5.847   9.103  0.9512 -0.5410 -0.1781
 4633TIP3    H238095   5.307   5.874   9.251  0.5515  0.9907 -0.4062
 4634TIP3   OH238096   2.644   6.677   8.437 -0.6251  0.7542 -0.1970
 4634TIP3    H138097   2.609   6.712   8.519 -0.8941 -0.4326  0.2149
 4634TIP3    H238098   2.738   6.670   8.452 -0.8746 -1.2915  0.7724
 4635TIP3   OH238099   5.358   0.814  10.082 -0.0282 -0.5156 -0.3900
 4635TIP3    H138100   5.401   0.813  10.167 -0.6026  1.1723 -0.0410
 4635TIP3    H238101   5.290   0.881  10.090 -2.0224 -2.3019 -1.2638
 4636TIP3   OH238102   2.649   0.899   9.584  0.5319 -0.7060 -0.3109
 4636TIP3    H138103   2.566   0.856   9.603 -0.0625  0.3092 -0.5081
 4636TIP3    H238104   2.677   0.862   9.501 -0.1562 -0.4679 -0.6589
 4637TIP3   OH238105   1.630   5.647  11.794 -0.2086  0.3565 -0.2659
 4637TIP3    H138106   1.721   5.670  11.776 -0.1079  0.2965  0.1682
 4637TIP3    H238107   1.603   5.596  11.717  0.1553  0.2822 -0.3471
 4638TIP3   OH238108   0.650   5.436  11.792 -0.2093  0.2845 -1.0373
 4638TIP3    H138109   0.695   5.521  11.787 -0.2021  0.3712  0.2721
 4638TIP3    H238110   0.569   5.455  11.839  0.2084 -0.5957  0.0530
 4639TIP3   OH238111   3.571   2.971  11.180  0.1063 -0.2556  0.1712
 4639TIP3    H138112   3.514   2.962  11.104 -0.4134  1.8475  0.2721
 4639TIP3    H238113   3.652   2.928  11.154  0.1789  1.0030 -1.8637
 4640TIP3   OH238114   0.685   4.197   9.238 -0.0742  0.0330 -0.3447
 4640TIP3    H138115   0.638   4.115   9.251  0.0133 -0.1474 -1.1476
 4640TIP3    H238116   0.618   4.265   9.243 -0.0290 -0.0040  1.1917
 4641TIP3   OH238117   5.044   0.712  11.106 -0.3861 -0.3725  0.1046
 4641TIP3    H138118   5.072   0.663  11.183  1.3906 -1.0206 -0.8723
 4641TIP3    H238119   5.025   0.645  11.041 -1.7573  0.1654 -0.0855
 4642TIP3   OH238120   6.301   5.656  10.989  0.4577  0.1448 -0.5499
 4642TIP3    H138121   6.369   5.720  11.009  0.2788  0.1285  0.1441
 4642TIP3    H238122   6.218   5.703  11.004  0.3241 -0.4453  0.6843
 4643TIP3   OH238123   2.188   1.001  11.515  0.6794  0.4490  0.3548
 4643TIP3    H138124   2.164   1.093  11.520 -1.1193  0.1527 -1.3491
 4643TIP3    H238125   2.277   1.000  11.481 -0.2947  1.6139 -2.5466
 4644TIP3   OH238126   1.466   1.671   8.580  0.1812  0.4274  0.3174
 4644TIP3    H138127   1.478   1.585   8.618  0.2013  0.3218  0.0716
 4644TIP3    H238128   1.554   1.698   8.553 -0.0998 -0.3493 -1.4892
 4645TIP3   OH238129   4.186   3.222  11.465 -0.7083  0.0399 -0.4783
 4645TIP3    H138130   4.251   3.287  11.436 -0.7903  0.1366 -0.4446
 4645TIP3    H238131   4.215   3.140  11.425 -1.0303  0.2446 -1.1328
 4646TIP3   OH238132   5.581   1.257  10.142 -0.0315  0.2221 -0.4184
 4646TIP3    H138133   5.501   1.252  10.195  0.9633  1.5767  1.3404
 4646TIP3    H238134   5.651   1.269  10.207  1.2694  1.9318 -2.0419
 4647TIP3   OH238135   5.982   0.444  10.787  0.3653 -0.1700  0.2427
 4647TIP3    H138136   6.073   0.418  10.797  0.0468 -0.9600  1.3595
 4647TIP3    H238137   5.952   0.463  10.877  0.2943  3.2874 -0.3638
 4648TIP3   OH238138   1.666   1.510   9.716 -0.2025  0.0480  0.6226
 4648TIP3    H138139   1.719   1.585   9.742  0.1809 -0.0676  0.1843
 4648TIP3    H238140   1.587   1.516   9.771 -0.3577  1.0000  0.3080
 4649TIP3   OH238141   3.622   5.262  10.371  0.8997  0.4455  0.5216
 4649TIP3    H138142   3.608   5.290  10.280  0.1495  1.6369  0.9822
 4649TIP3    H238143   3.534   5.262  10.410  1.3451  1.0787  1.5619
 4650TIP3   OH238144   2.835   6.052  10.213  0.1292 -0.3474  0.7033
 4650TIP3    H138145   2.878   6.084  10.134  0.9258 -2.5732  0.1752
 4650TIP3    H238146   2.742   6.048  10.190 -0.2132  2.5924  1.1993
 4651TIP3   OH238147   6.662   6.628  11.568  0.4878  0.2836 -0.0974
 4651TIP3    H138148   6.686   6.611  11.659  1.4921 -1.5706 -0.6771
 4651TIP3    H238149   6.656   6.724  11.562 -0.9803  0.4120  2.2287
 4652TIP3   OH238150   1.264   1.794   9.683  0.4329  0.5744  0.1205
 4652TIP3    H138151   1.314   1.730   9.733 -0.2723  0.6498  0.9674
 4652TIP3    H238152   1.173   1.779   9.710 -0.0655  0.1943 -1.6377
 4653TIP3   OH238153   0.470   6.597  10.666  0.3113  0.2260  0.2640
 4653TIP3    H138154   0.410   6.537  10.709 -1.2852  1.3771 -0.2352
 4653TIP3    H238155   0.549   6.595  10.719 -0.1607 -1.3556  0.9471
 4654TIP3   OH238156   4.892   4.893   9.209  0.8265 -0.0904  0.4479
 4654TIP3    H138157   4.898   4.875   9.303  0.3160 -3.2161 -0.0124
 4654TIP3    H238158   4.801   4.918   9.195 -0.0422 -2.8973  0.4337
 4655TIP3   OH238159   4.297   2.832   9.359 -0.4244 -0.0483  0.6010
 4655TIP3    H138160   4.333   2.869   9.439  0.1353 -1.0484  0.8382
 4655TIP3    H238161   4.355   2.758   9.339  0.8606  1.4784 -1.9797
 4656TIP3   OH238162   4.305   2.505  11.954  0.3186  0.6498 -0.1433
 4656TIP3    H138163   4.307   2.546  12.040 -1.2175 -1.4696  0.9805
 4656TIP3    H238164   4.278   2.574  11.894 -0.7449  1.6488  1.4320
 4657TIP3   OH238165   6.015   4.616  10.366  0.0615 -0.0453  0.7544
 4657TIP3    H138166   6.019   4.540  10.309  1.1756 -0.5139  1.4210
 4657TIP3    H238167   5.924   4.620  10.395 -0.2660 -0.4322 -0.2023
 4658TIP3   OH238168   2.406   3.252  10.021  0.0936  0.6128 -0.5338
 4658TIP3    H138169   2.466   3.182   9.995 -0.3153  0.1521 -0.2582
 4658TIP3    H238170   2.427   3.270  10.113 -1.6679 -1.1311  0.2741
 4659TIP3   OH238171   2.129   0.543   9.995 -0.4742  0.2146  0.0119
 4659TIP3    H138172   2.076   0.601   9.940 -0.4765  0.3990  0.2062
 4659TIP3    H238173   2.106   0.568  10.084 -0.9421 -0.5123  0.1052
 4660TIP3   OH238174   1.112   3.423  11.551 -0.2659  0.2769  0.1322
 4660TIP3    H138175   1.032   3.390  11.592  0.6940  0.0546  1.9170
 4660TIP3    H238176   1.100   3.518  11.548 -0.8443  0.2026 -0.2113
 4661TIP3   OH238177   2.481   0.148  11.415 -0.0704 -0.2588  0.4149
 4661TIP3    H138178   2.558   0.164  11.469  0.0290 -1.8836  0.8056
 4661TIP3    H238179   2.417   0.109  11.475 -0.6958 -0.2084 -0.2002
 4662TIP3   OH238180   6.325   1.867   9.269  0.4943 -0.2552 -0.5192
 4662TIP3    H138181   6.399   1.922   9.246 -0.9579  1.6461 -0.9123
 4662TIP3    H238182   6.283   1.847   9.185 -0.6228  0.4737 -0.1539
 4663TIP3   OH238183   3.956   0.066   8.348  0.1080 -0.1239 -0.5170
 4663TIP3    H138184   3.929   0.137   8.289  0.4935  0.4378 -0.0380
 4663TIP3    H238185   3.987   0.112   8.426  0.9863 -0.8039 -0.4552
 4664TIP3   OH238186   4.312   1.863  10.350  0.1499 -0.5477  0.3917
 4664TIP3    H138187   4.317   1.800  10.422  0.3714 -0.7620  0.1884
 4664TIP3    H238188   4.365   1.937  10.379 -1.1069  0.0790  1.1633
 4665TIP3   OH238189   2.598   1.207   8.959  0.0173  0.8437  0.1703
 4665TIP3    H138190   2.646   1.274   8.910  0.7111 -1.2926 -2.3101
 4665TIP3    H238191   2.610   1.127   8.907 -1.0230 -1.1483  2.8080
 4666TIP3   OH238192   1.357   5.539  10.023 -0.1660  0.7455 -0.3126
 4666TIP3    H138193   1.319   5.504   9.942  1.2781 -1.7609  0.0011
 4666TIP3    H238194   1.313   5.492  10.093  1.0619  0.3377  0.1947
 4667TIP3   OH238195   3.222   2.700  10.480  0.4492 -0.0188  0.1903
 4667TIP3    H138196   3.311   2.728  10.502  0.2184  0.7366  0.1898
 4667TIP3    H238197   3.169   2.727  10.555 -0.0305  0.9165 -0.4556
 4668TIP3   OH238198   5.420   4.182   9.809  0.0379 -0.3468  0.1240
 4668TIP3    H138199   5.423   4.252   9.743 -0.9696  0.0615  0.4769
 4668TIP3    H238200   5.355   4.120   9.775  0.9676 -1.1655 -0.2154
 4669TIP3   OH238201   5.824   2.006  10.487  0.2374  0.1316  0.8040
 4669TIP3    H138202   5.896   1.975  10.433  0.0476  0.2483  0.4788
 4669TIP3    H238203   5.784   1.927  10.523  2.4520  0.1222  3.5828
 4670TIP3   OH238204   1.067   4.750  10.020 -0.3459 -0.0060  0.2639
 4670TIP3    H138205   1.022   4.835  10.022  0.5053  0.4428  0.6427
 4670TIP3    H238206   1.146   4.766   9.969 -1.0089 -1.0089 -1.1606
 4671TIP3   OH238207   3.777   3.618  10.139 -0.1158  0.0865  0.3467
 4671TIP3    H138208   3.775   3.654  10.050  0.5891 -2.3632 -0.7500
 4671TIP3    H238209   3.860   3.648  10.175  1.5121 -2.0315 -1.3508
 4672TIP3   OH238210   4.413   6.433  10.816 -0.0174 -0.3120 -0.5421
 4672TIP3    H138211   4.398   6.524  10.789  0.8083 -0.6521 -2.3193
 4672TIP3    H238212   4.390   6.431  10.909 -2.2451  1.1719 -0.9835
 4673TIP3   OH238213   4.308   1.506  11.213  0.2587 -0.2190 -0.2727
 4673TIP3    H138214   4.398   1.488  11.241 -0.1974  0.6388  1.9560
 4673TIP3    H238215   4.255   1.491  11.291 -1.3144  1.1728 -1.0074
 4674TIP3   OH238216   2.899   3.526  10.823 -0.2295 -0.6170 -0.1190
 4674TIP3    H138217   2.816   3.573  10.819 -0.0179 -0.2435 -0.1763
 4674TIP3    H238218   2.963   3.588  10.788  0.1487 -0.7273  0.3754
 4675TIP3   OH238219   5.977   5.519  11.273  0.3047  0.3566 -1.1092
 4675TIP3    H138220   5.914   5.448  11.263  0.0593  0.2288  0.9145
 4675TIP3    H238221   6.061   5.475  11.289  0.0137  0.4277  0.9670
 4676TIP3   OH238222   1.549   6.658  10.600 -0.5491 -0.2577  0.1489
 4676TIP3    H138223   1.578   6.589  10.660 -0.8031  0.1949  0.8006
 4676TIP3    H238224   1.611   6.730  10.614 -1.3027  0.2941  0.7474
 4677TIP3   OH238225   1.006   1.255  11.168 -0.9882 -0.1638  0.2616
 4677TIP3    H138226   0.980   1.219  11.252 -1.7621  1.1655  0.6181
 4677TIP3    H238227   0.961   1.200  11.103 -2.7581  0.5933  0.8063
 4678TIP3   OH238228   4.308   1.126  11.382 -0.0879  0.4504 -0.4476
 4678TIP3    H138229   4.366   1.145  11.456  1.0734  1.3696 -1.5378
 4678TIP3    H238230   4.220   1.128  11.419  0.4545  1.0615  0.8741
 4679TIP3   OH238231   3.228   6.089  11.875  0.1760 -0.2576 -0.1649
 4679TIP3    H138232   3.309   6.066  11.921  0.4666  1.7107  0.3927
 4679TIP3    H238233   3.228   6.033  11.797  1.4034 -1.2088  0.4736
 4680TIP3   OH238234   3.189   4.314  10.732 -0.1711  0.1522 -0.3541
 4680TIP3    H138235   3.148   4.388  10.776  0.5954  0.3607  0.0316
 4680TIP3    H238236   3.235   4.268  10.802  0.3103 -0.0296 -0.7843
 4681TIP3   OH238237   2.716   3.178  10.316 -0.0511  0.1500 -0.4885
 4681TIP3    H138238   2.811   3.194  10.319  0.1031 -0.7679  0.0417
 4681TIP3    H238239   2.708   3.083  10.309 -0.9380  0.1571  0.1741
 4682TIP3   OH238240   0.657   4.298   8.370  0.2186 -0.2063  0.5419
 4682TIP3    H138241   0.700   4.224   8.326  1.1877  0.5388  0.1702
 4682TIP3    H238242   0.617   4.260   8.448  0.3647 -1.1880  0.1604
 4683TIP3   OH238243   3.826   3.698   9.860  0.0444  0.4680 -0.7184
 4683TIP3    H138244   3.792   3.779   9.822  0.3471  0.4509 -1.0318
 4683TIP3    H238245   3.921   3.711   9.861 -0.0136  0.9821  1.1978
 4684TIP3   OH238246   1.714   2.926  11.786 -0.0795 -0.2654 -0.3501
 4684TIP3    H138247   1.670   2.970  11.713  0.7102  0.3470 -0.4716
 4684TIP3    H238248   1.779   2.989  11.817 -0.0052 -0.7441  0.5119
 4685TIP3   OH238249   5.721   4.567  11.596  0.5944 -0.4283 -0.4404
 4685TIP3    H138250   5.781   4.544  11.525  2.0619 -0.1179  0.6479
 4685TIP3    H238251   5.764   4.533  11.675 -0.5257  0.0770  0.4032
 4686TIP3   OH238252   1.772   6.267   9.389  0.6909  0.0087  0.4548
 4686TIP3    H138253   1.866   6.259   9.405  0.9975  0.5376 -0.9693
 4686TIP3    H238254   1.755   6.211   9.314  0.1954  1.2046 -0.3587
 4687TIP3   OH238255   5.326   0.657   9.871  0.0893 -0.6917 -0.1942
 4687TIP3    H138256   5.242   0.615   9.888  0.7414 -1.6943  0.6435
 4687TIP3    H238257   5.344   0.707   9.951  1.4470 -2.5004  0.7065
 4688TIP3   OH238258   3.879   5.469   9.078 -0.0623 -0.3608  0.4238
 4688TIP3    H138259   3.948   5.523   9.040 -0.4585 -0.2106 -0.0915
 4688TIP3    H238260   3.906   5.379   9.061 -1.1293 -0.3117 -1.9188
 4689TIP3   OH238261   5.309   1.320  11.046 -0.5084 -0.1714 -0.0573
 4689TIP3    H138262   5.402   1.309  11.027 -0.6988 -1.0379 -0.5159
 4689TIP3    H238263   5.297   1.278  11.131 -0.4119  0.3158  0.2065
 4690TIP3   OH238264   1.968   3.118  10.051  0.2482  0.0864 -0.1267
 4690TIP3    H138265   2.004   3.176  10.118 -0.3769 -2.2980  2.4350
 4690TIP3    H238266   1.874   3.136  10.053  0.2732  0.3102 -0.7224
 4691TIP3   OH238267   1.754   0.103   8.800 -0.4908  0.3688 -0.3384
 4691TIP3    H138268   1.802   0.147   8.870 -1.3324 -0.4113  0.7708
 4691TIP3    H238269   1.816   0.041   8.762 -0.1832  0.4163  0.0858
 4692TIP3   OH238270   0.219   1.485  10.777  0.2524  0.3352 -0.4965
 4692TIP3    H138271   0.161   1.541  10.827 -0.9034  0.6616 -2.1090
 4692TIP3    H238272   0.295   1.540  10.757 -0.4265  1.0286 -1.2257
 4693TIP3   OH238273   1.321   1.881  11.436 -0.7587  0.6233  0.0951
 4693TIP3    H138274   1.302   1.974  11.422 -1.0884  0.7952  1.4950
 4693TIP3    H238275   1.408   1.869  11.398 -0.9000  1.4039 -0.4989
 4694TIP3   OH238276   5.805   0.127  10.040 -0.3399 -0.7812 -0.2398
 4694TIP3    H138277   5.724   0.167  10.007 -0.7261 -0.4474  1.0475
 4694TIP3    H238278   5.815   0.164  10.128  2.1177  0.4715 -0.9641
 4695TIP3   OH238279   6.342   2.205   8.216 -0.0794  0.7387 -0.5321
 4695TIP3    H138280   6.303   2.146   8.152  0.4277  0.7230 -0.8316
 4695TIP3    H238281   6.268   2.251   8.255 -0.4418  0.2443 -0.6321
 4696TIP3   OH238282   2.250   0.762   9.330  0.2681  0.0038 -0.2132
 4696TIP3    H138283   2.157   0.775   9.347  0.2671  0.6554 -0.6749
 4696TIP3    H238284   2.255   0.685   9.274 -0.0052  0.0769 -0.3367
 4697TIP3   OH238285   6.320   5.160   9.717 -0.2234  0.1771  0.0709
 4697TIP3    H138286   6.278   5.236   9.758  1.2085  1.2914 -0.4133
 4697TIP3    H238287   6.355   5.194   9.635 -0.6656 -1.3497 -0.7750
 4698TIP3   OH238288   1.104   4.318  10.409  0.1829 -0.5695  0.3407
 4698TIP3    H138289   1.198   4.319  10.427 -0.1254  1.4179  2.3112
 4698TIP3    H238290   1.064   4.299  10.494 -1.2229  1.4419  0.2045
 4699TIP3   OH238291   0.016   0.999   8.950  0.0530 -0.0329 -0.4089
 4699TIP3    H138292  -0.014   1.086   8.978 -0.3376  0.2527 -1.6475
 4699TIP3    H238293   0.070   1.016   8.873  1.6203 -0.7496  0.4786
 4700TIP3   OH238294   2.680   6.632  10.710  0.1445 -0.2119 -0.1099
 4700TIP3    H138295   2.702   6.717  10.749  1.2700 -0.6536  0.2532
 4700TIP3    H238296   2.613   6.596  10.769 -0.3798  0.4428 -0.2999
 4701TIP3   OH238297   6.124   5.803   9.956 -0.0424  1.0389 -0.6961
 4701TIP3    H138298   6.215   5.790   9.932  0.3112  0.9470  0.6160
 4701TIP3    H238299   6.077   5.809   9.873  1.1808  1.2757 -1.3760
 4702TIP3   OH238300   1.243   0.705   9.287  0.0519 -0.3666  0.5094
 4702TIP3    H138301   1.293   0.780   9.256  0.0726 -0.8825 -0.7810
 4702TIP3    H238302   1.160   0.743   9.317 -0.3135  0.1090 -0.9932
 4703TIP3   OH238303   2.942   1.196   8.288  0.2602  0.1643 -0.0184
 4703TIP3    H138304   3.000   1.135   8.333 -0.2528  0.3194  0.8798
 4703TIP3    H238305   3.000   1.259   8.246  0.7417  0.1455  0.6153
 4704TIP3   OH238306   6.189   2.464  10.833 -0.2540 -0.1841  0.0821
 4704TIP3    H138307   6.280   2.473  10.803  0.0598 -0.0424  1.0251
 4704TIP3    H238308   6.195   2.405  10.909 -1.0111 -0.5346 -0.1229
 4705TIP3   OH238309   1.276   5.941  11.380  0.6294  0.4977  0.1695
 4705TIP3    H138310   1.252   5.855  11.346 -1.8618  0.5266  1.6125
 4705TIP3    H238311   1.292   5.994  11.302  0.8797 -0.9089 -0.7694
 4706TIP3   OH238312   2.813   6.053  11.838 -0.0470  0.4667 -0.0816
 4706TIP3    H138313   2.810   6.106  11.758  1.0797 -0.7763 -0.9966
 4706TIP3    H238314   2.811   5.963  11.806  0.0396 -0.0566  1.3356
 4707TIP3   OH238315   2.888   5.134  10.052 -0.0081  0.0172 -0.4266
 4707TIP3    H138316   2.845   5.049  10.063  1.5547 -0.7919 -0.1462
 4707TIP3    H238317   2.957   5.134  10.119 -0.1852  1.6663 -0.2005
 4708TIP3   OH238318   3.025   2.218   9.321 -0.3859  0.0684  0.1706
 4708TIP3    H138319   3.004   2.138   9.369 -0.7703  1.3013  2.1811
 4708TIP3    H238320   2.970   2.214   9.243  1.6255 -2.9067 -1.3047
 4709TIP3   OH238321   1.985   5.221   8.941 -0.8742 -0.2651  0.0571
 4709TIP3    H138322   1.939   5.271   9.007 -0.7361 -0.4035  0.2594
 4709TIP3    H238323   1.928   5.223   8.864 -0.8075  0.3166  0.0164
 4710TIP3   OH238324   4.196   0.259  10.114  0.0718 -0.0038  0.4202
 4710TIP3    H138325   4.109   0.279  10.080 -0.1751 -1.3094  0.2399
 4710TIP3    H238326   4.255   0.314  10.063 -0.5618  0.1907 -0.1172
 4711TIP3   OH238327   1.330   5.307  11.603 -0.4357 -0.3601  0.0679
 4711TIP3    H138328   1.347   5.235  11.543 -0.8816 -0.7292  0.3761
 4711TIP3    H238329   1.260   5.357  11.562 -0.7305 -0.6043  0.2671
 4712TIP3   OH238330   2.079   6.197  11.143  0.3104  0.0525  0.3098
 4712TIP3    H138331   2.026   6.219  11.066  0.2274 -0.7070  0.1444
 4712TIP3    H238332   2.160   6.160  11.107 -0.4239 -1.9165  0.5782
 4713TIP3   OH238333   3.412   4.300   9.788  0.6679 -0.5033  0.2120
 4713TIP3    H138334   3.378   4.313   9.699  1.4162  0.1912  0.0187
 4713TIP3    H238335   3.503   4.329   9.783  0.4040  0.5863  1.4698
 4714TIP3   OH238336   4.194   5.502  11.137  0.5166 -0.3353  0.5572
 4714TIP3    H138337   4.184   5.555  11.217  1.8353 -0.0892  0.5735
 4714TIP3    H238338   4.135   5.545  11.074  1.7991  1.4035  0.4654
 4715TIP3   OH238339   4.795   3.849  11.435  0.2399 -0.1336 -0.1988
 4715TIP3    H138340   4.832   3.822  11.519 -0.5239  0.7896  0.4567
 4715TIP3    H238341   4.853   3.919  11.404 -0.9684  1.4530  0.9243
 4716TIP3   OH238342   5.300   6.420  11.592  0.2255 -0.5751 -0.2846
 4716TIP3    H138343   5.362   6.486  11.561  1.4296 -1.5865 -0.1105
 4716TIP3    H238344   5.324   6.340  11.545  0.3398 -1.4597  1.2190
 4717TIP3   OH238345   5.765   2.491  10.416 -0.3372 -0.3992  0.0214
 4717TIP3    H138346   5.844   2.493  10.362  0.3997  0.3041  1.0772
 4717TIP3    H238347   5.789   2.539  10.495 -1.2005 -1.8058  1.1993
 4718TIP3   OH238348   3.054   3.857   9.787  0.3425  0.0606 -0.4911
 4718TIP3    H138349   3.113   3.878   9.715  0.6998  2.6989  0.4593
 4718TIP3    H238350   2.966   3.870   9.751  0.4833  0.2688 -0.7606
 4719TIP3   OH238351   1.704   3.061   9.304  0.3378  0.1086 -0.0561
 4719TIP3    H138352   1.727   2.973   9.332  0.3962 -0.2697 -1.2091
 4719TIP3    H238353   1.608   3.062   9.306  0.3607  0.5403  1.4330
 4720TIP3   OH238354   4.183   5.121   8.685 -0.6100  1.1450 -0.1849
 4720TIP3    H138355   4.181   5.059   8.612  0.4308  0.7061  0.1449
 4720TIP3    H238356   4.155   5.070   8.761  2.7741  0.2222  0.6450
 4721TIP3   OH238357   1.155   3.631  11.241 -0.3186 -0.0959 -0.3505
 4721TIP3    H138358   1.176   3.631  11.335 -0.3461 -2.2847 -0.2789
 4721TIP3    H238359   1.060   3.637  11.238 -0.2570  0.9980 -0.2914
 4722TIP3   OH238360   6.681   6.760  10.068 -0.0266  0.4039  0.3816
 4722TIP3    H138361   6.596   6.786  10.105  0.6065  1.3625  1.2105
 4722TIP3    H238362   6.668   6.669  10.041 -1.3457  0.5637  0.3999
 4723TIP3   OH238363   3.733   1.164  11.781 -0.4453  0.4024 -0.6928
 4723TIP3    H138364   3.727   1.147  11.875 -1.8940 -0.0906 -0.8468
 4723TIP3    H238365   3.790   1.241  11.773 -1.1212  1.0582  0.6477
 4724TIP3   OH238366   5.564   2.682  10.542 -0.7083 -0.3312  0.3270
 4724TIP3    H138367   5.512   2.645  10.471  0.3304  0.7239 -1.0489
 4724TIP3    H238368   5.528   2.770  10.553 -1.2166 -0.6768  1.5027
 4725TIP3   OH238369   1.182   5.465   8.858  0.0116 -0.3873 -0.1120
 4725TIP3    H138370   1.101   5.457   8.807 -0.7009  1.1216  0.6769
 4725TIP3    H238371   1.250   5.427   8.803 -1.0445 -0.5608 -1.3414
 4726TIP3   OH238372   2.302   2.521   9.810 -0.1773 -0.1104  0.6637
 4726TIP3    H138373   2.207   2.510   9.805 -0.2261  0.3565  0.4559
 4726TIP3    H238374   2.335   2.483   9.729 -0.4341  2.0830 -0.5468
 4727TIP3   OH238375   3.389   3.839  10.445  0.1931  0.3033  0.5276
 4727TIP3    H138376   3.415   3.931  10.448  1.5753 -0.0734  0.8297
 4727TIP3    H238377   3.313   3.833  10.503  0.5401  1.1177  1.0816
 4728TIP3   OH238378   6.446   0.502  10.624 -0.0439 -0.3823  0.3672
 4728TIP3    H138379   6.458   0.448  10.702  1.9749  1.2214  1.2489
 4728TIP3    H238380   6.379   0.566  10.648 -0.2555 -0.6020  0.3662
 4729TIP3   OH238381   5.783   0.767  10.849 -0.0536  0.3569  0.1177
 4729TIP3    H138382   5.730   0.688  10.842  0.0420  0.1092  1.7245
 4729TIP3    H238383   5.864   0.747  10.804 -0.9913  0.4598 -1.6915
 4730TIP3   OH238384   0.395   4.884   9.971  0.2597  0.3740  0.0519
 4730TIP3    H138385   0.486   4.914   9.968  0.1452  1.2667  2.5667
 4730TIP3    H238386   0.388   4.839  10.056 -1.1836 -1.4022 -0.9463
 4731TIP3   OH238387   0.830   6.659  10.798  0.0729 -0.5790  0.1967
 4731TIP3    H138388   0.813   6.570  10.766  2.0849 -1.0866  0.3792
 4731TIP3    H238389   0.842   6.711  10.719 -1.5446 -0.3203  0.0754
 4732TIP3   OH238390   1.200   4.788  10.766  0.8564 -0.4131  0.1756
 4732TIP3    H138391   1.289   4.768  10.736  1.6750 -1.1770  2.8278
 4732TIP3    H238392   1.161   4.702  10.784  0.7151 -0.0207  1.9126
 4733TIP3   OH238393   4.398   4.882  10.108  0.2934  0.2267  0.0980
 4733TIP3    H138394   4.473   4.903  10.052  0.4690  0.6493  0.4932
 4733TIP3    H238395   4.406   4.941  10.183 -2.7086  3.3776 -1.7575
 4734TIP3   OH238396   4.386   4.402  10.072 -0.2956  0.2389 -0.3030
 4734TIP3    H138397   4.456   4.466  10.063  0.0443 -0.0258  0.3687
 4734TIP3    H238398   4.328   4.438  10.139 -0.6678  0.3397 -0.6786
 4735TIP3   OH238399   1.882   1.282  10.022 -0.1860 -0.0673 -0.1582
 4735TIP3    H138400   1.849   1.369  10.044  0.1637  0.0422 -0.0596
 4735TIP3    H238401   1.856   1.269   9.931  0.4557  0.4753 -0.4315
 4736TIP3   OH238402   1.584   5.445   9.192 -0.0084 -0.5709  0.4012
 4736TIP3    H138403   1.495   5.411   9.187 -0.3920  0.5034 -0.9036
 4736TIP3    H238404   1.574   5.534   9.226  0.5028 -0.2968 -0.1311
 4737TIP3   OH238405   3.892   1.336   9.613 -0.4895  0.1638  0.2352
 4737TIP3    H138406   3.883   1.246   9.583 -0.5897 -0.2327  1.4079
 4737TIP3    H238407   3.818   1.350   9.673  1.5157 -0.2447  3.0182
 4738TIP3   OH238408   2.964   3.001   9.427  0.2409  0.1472  0.2979
 4738TIP3    H138409   2.931   2.984   9.516  0.1115  2.0952  0.6578
 4738TIP3    H238410   2.920   2.935   9.373 -1.2195  0.1753  1.3812
 4739TIP3   OH238411   5.182   6.680   8.626  0.4890  0.1318 -0.0377
 4739TIP3    H138412   5.106   6.624   8.610  0.9259 -0.4752 -0.0258
 4739TIP3    H238413   5.247   6.652   8.561 -0.3731  2.7952 -2.2412
 4740TIP3   OH238414   3.661   1.765   8.577 -0.0706 -0.2977 -0.5559
 4740TIP3    H138415   3.679   1.671   8.572  0.5221 -0.2763  0.7937
 4740TIP3    H238416   3.731   1.806   8.526  0.8237 -0.5026  0.4639
 4741TIP3   OH238417   0.224   1.640  11.826  0.0675 -0.0769  0.2849
 4741TIP3    H138418   0.192   1.715  11.877  0.2334  1.7408 -2.0964
 4741TIP3    H238419   0.171   1.641  11.746  0.0084 -2.6315  0.2160
 4742TIP3   OH238420   5.270   1.968  10.080  0.2383 -0.3519  0.2525
 4742TIP3    H138421   5.316   2.043  10.118 -0.7451  1.2678 -1.4970
 4742TIP3    H238422   5.325   1.941  10.006  0.7382 -1.5996  1.0531
 4743TIP3   OH238423   2.483   1.796   8.364 -0.1254 -0.4134 -1.1116
 4743TIP3    H138424   2.416   1.743   8.321 -0.8165 -0.7507  0.3137
 4743TIP3    H238425   2.435   1.871   8.399  0.2523 -0.5840 -0.2069
 4744TIP3   OH238426   0.117   2.124  10.988 -0.5663  0.9222 -0.4380
 4744TIP3    H138427   0.205   2.101  10.958 -0.5907 -1.2979  1.0015
 4744TIP3    H238428   0.084   2.184  10.921  1.0570 -0.2501 -2.3936
 4745TIP3   OH238429   6.630   5.043   9.365  0.6112  0.1031  0.3554
 4745TIP3    H138430   6.711   5.092   9.380  0.3455  0.0886  2.0042
 4745TIP3    H238431   6.594   5.030   9.453 -1.2732  0.2608 -0.3647
 4746TIP3   OH238432   6.647   0.231  10.219 -0.2606 -1.0031 -0.0668
 4746TIP3    H138433   6.662   0.166  10.288  2.9961  0.8855  1.2291
 4746TIP3    H238434   6.700   0.306  10.245 -1.9944  1.3349 -2.6910
 4747TIP3   OH238435   4.530   1.072   8.691  0.4388 -0.0514  0.3914
 4747TIP3    H138436   4.557   1.105   8.606 -0.1733  1.1355  0.6232
 4747TIP3    H238437   4.472   1.140   8.725  1.2616 -0.1419  2.0748
 4748TIP3   OH238438   4.492   1.495  10.957  0.2036  0.5906 -0.2524
 4748TIP3    H138439   4.569   1.468  11.006  0.3464 -0.5152 -1.0305
 4748TIP3    H238440   4.430   1.525  11.023  1.1600  1.1373  0.4103
 4749TIP3   OH238441   1.283   2.377  11.033  0.0619 -0.6832  0.1734
 4749TIP3    H138442   1.282   2.457  11.086 -1.3840 -0.3279 -0.3500
 4749TIP3    H238443   1.331   2.400  10.954 -0.7854 -0.1528 -0.2044
 4750TIP3   OH238444   6.098   1.790  10.535 -0.2639 -0.4478 -0.3464
 4750TIP3    H138445   6.179   1.789  10.484  0.2043 -2.0915  0.3933
 4750TIP3    H238446   6.116   1.852  10.606 -0.8401  1.6825 -1.9460
 4751TIP3   OH238447   4.293   2.315  10.003 -0.2321 -0.3435  1.2987
 4751TIP3    H138448   4.294   2.340   9.910  0.4105  0.9563  1.6436
 4751TIP3    H238449   4.203   2.330  10.031 -0.5376 -1.1474  0.7985
 4752TIP3   OH238450   4.667   1.513  10.285  0.4298 -0.0919  0.4616
 4752TIP3    H138451   4.637   1.565  10.210 -0.1309  0.8677  1.3175
 4752TIP3    H238452   4.610   1.437  10.286  0.0904  0.1553  0.2209
 4753TIP3   OH238453   5.477   4.205   8.214 -0.1083  0.1622 -0.2097
 4753TIP3    H138454   5.531   4.136   8.253 -0.3889  0.7772  1.3233
 4753TIP3    H238455   5.432   4.162   8.141  2.3239 -0.4068 -1.4917
 4754TIP3   OH238456   6.584   5.902  10.156 -0.4347  0.5233 -0.5162
 4754TIP3    H138457   6.649   5.846  10.198 -1.4543  0.1613  0.6271
 4754TIP3    H238458   6.624   5.927  10.073  0.5952 -0.7889 -0.4432
 4755TIP3   OH238459   0.521   3.545  11.347  0.2098 -0.0743 -0.1116
 4755TIP3    H138460   0.521   3.451  11.366  1.0861  0.0135  0.3326
 4755TIP3    H238461   0.438   3.576  11.383  0.3424 -0.5082  0.5959
 4756TIP3   OH238462   1.041   3.443   8.610  0.0637  0.7559 -0.1925
 4756TIP3    H138463   0.984   3.383   8.562  1.5006  1.3266 -2.7836
 4756TIP3    H238464   0.993   3.526   8.610  0.0780  0.7644 -0.6713
 4757TIP3   OH238465   5.572   1.408   9.921 -0.1817 -0.1520  0.4054
 4757TIP3    H138466   5.569   1.325   9.969  0.2488  0.1444  0.9507
 4757TIP3    H238467   5.645   1.456   9.961 -0.2496  0.3741 -0.0966
 4758TIP3   OH238468   4.253   5.946  10.313  0.1885  0.1913  0.0172
 4758TIP3    H138469   4.272   5.982  10.226  0.6750  1.9402  0.7983
 4758TIP3    H238470   4.296   5.861  10.314  2.0878  1.0806 -0.7350
 4759TIP3   OH238471   6.587   2.010  11.153  0.2901 -0.1034  0.6699
 4759TIP3    H138472   6.525   2.062  11.101  0.4937  0.4070  0.9324
 4759TIP3    H238473   6.599   1.930  11.102 -1.3358 -0.6528  1.0800
 4760TIP3   OH238474   2.902   5.640  11.073 -0.0615 -0.1426 -0.4215
 4760TIP3    H138475   2.808   5.653  11.089 -0.2440 -1.1169 -0.6656
 4760TIP3    H238476   2.942   5.722  11.103 -1.0812  0.6667 -1.1556
 4761TIP3   OH238477   5.246   4.139  10.977 -0.0481  0.3571 -0.3021
 4761TIP3    H138478   5.254   4.168  11.068 -0.8915  0.5619 -0.2848
 4761TIP3    H238479   5.269   4.217  10.926  0.3367  0.2680 -0.2673
 4762TIP3   OH238480   4.269   0.022  11.212  0.0343 -0.1686  0.1042
 4762TIP3    H138481   4.201   0.087  11.195 -2.1595 -2.8095 -2.1150
 4762TIP3    H238482   4.340   0.045  11.152 -0.2817  0.6829  0.0360
 4763TIP3   OH238483   2.554   3.466  10.399  0.2440 -0.0874  0.1625
 4763TIP3    H138484   2.635   3.517  10.393  0.4580 -0.3051  0.9701
 4763TIP3    H238485   2.491   3.526  10.439  0.0105  0.0702 -0.4319
 4764TIP3   OH238486   1.605   4.547   9.697  0.3361  0.1215  0.2478
 4764TIP3    H138487   1.539   4.606   9.660 -0.1723 -0.9156 -0.5526
 4764TIP3    H238488   1.637   4.593   9.774 -1.3379  0.6616  0.6722
 4765TIP3   OH238489   5.268   1.402  10.695  0.0471 -0.0929 -1.0826
 4765TIP3    H138490   5.180   1.440  10.691  0.3543  0.9387  0.6515
 4765TIP3    H238491   5.266   1.344  10.771  0.4668 -1.2433 -1.9195
 4766TIP3   OH238492   1.052   2.131   9.086 -0.2493  0.4244  0.3250
 4766TIP3    H138493   1.115   2.139   9.158  0.4668  0.0942 -0.2440
 4766TIP3    H238494   1.105   2.148   9.008 -1.0783  1.0841 -0.1040
 4767TIP3   OH238495   5.317   3.449  11.226 -0.7741  0.0096 -0.1070
 4767TIP3    H138496   5.228   3.454  11.191 -0.4002  1.5093 -0.9549
 4767TIP3    H238497   5.359   3.530  11.195  0.9651 -0.7920  0.0374
 4768TIP3   OH238498   1.037   2.214  11.302 -0.7944 -0.4946 -0.1642
 4768TIP3    H138499   0.996   2.274  11.364  1.3573 -0.3725  1.2321
 4768TIP3    H238500   0.999   2.128  11.322  0.7415 -0.6943  2.2678
 4769TIP3   OH238501   3.602   1.894  11.164  0.0333  0.5692 -0.2249
 4769TIP3    H138502   3.528   1.835  11.176 -0.0679  0.5677 -0.8305
 4769TIP3    H238503   3.665   1.868  11.232 -0.2196  0.1001 -0.1695
 4770TIP3   OH238504   1.149   6.068  11.605 -0.4954 -0.3186  0.3130
 4770TIP3    H138505   1.215   6.022  11.553 -0.7784 -1.3834  0.8647
 4770TIP3    H238506   1.195   6.144  11.641  0.8115 -1.6942  1.6998
 4771TIP3   OH238507   6.246   2.350  10.030  0.0479 -0.0066  0.6662
 4771TIP3    H138508   6.171   2.319  10.081 -0.9267  1.1847  0.0186
 4771TIP3    H238509   6.221   2.333   9.939  0.9175 -0.3322  0.4869
 4772TIP3   OH238510   2.431   2.116   9.862  0.6031 -0.5474  0.2924
 4772TIP3    H138511   2.411   2.035   9.909  0.3944  0.2774  1.6551
 4772TIP3    H238512   2.475   2.172   9.926  0.9550  0.3360 -0.6942
 4773TIP3   OH238513   4.091   4.417   9.349  0.0522  0.3240 -0.9061
 4773TIP3    H138514   4.085   4.513   9.356  1.1595  0.6469 -3.3647
 4773TIP3    H238515   4.149   4.392   9.421 -0.4919  1.4300 -0.0391
 4774TIP3   OH238516   5.974   5.449  10.603 -0.2411  0.0253  0.4761
 4774TIP3    H138517   5.883   5.420  10.608 -1.1134  2.5199  0.2210
 4774TIP3    H238518   5.972   5.526  10.547  2.3576 -0.8999 -1.0678
 4775TIP3   OH238519   3.708   1.633  10.850 -0.1270 -0.5966 -0.0295
 4775TIP3    H138520   3.616   1.613  10.869  0.6127 -2.2276  2.2666
 4775TIP3    H238521   3.740   1.555  10.805  0.2418 -0.1522 -0.5570
 4776TIP3   OH238522   1.650   6.241  10.047  0.4560 -0.2551 -0.1417
 4776TIP3    H138523   1.708   6.306  10.086  0.7223  0.1699 -1.2189
 4776TIP3    H238524   1.562   6.269  10.072  0.5943  0.3086 -0.2750
 4777TIP3   OH238525   4.602   0.216  11.427  0.0116  0.3092  0.3949
 4777TIP3    H138526   4.549   0.142  11.457 -0.0270 -0.5974 -1.7360
 4777TIP3    H238527   4.692   0.190  11.447  0.1792 -1.2562 -1.9856
 4778TIP3   OH238528   1.008   1.103  10.628 -0.1599 -0.1265  0.3693
 4778TIP3    H138529   0.924   1.075  10.667 -0.3038  1.5736  1.3879
 4778TIP3    H238530   1.064   1.027  10.637 -1.2359 -0.9009  0.8171
 4779TIP3   OH238531   1.176   4.927  10.986 -0.3282  0.0798  0.0511
 4779TIP3    H138532   1.202   4.857  11.046 -0.2474  0.1468  0.0936
 4779TIP3    H238533   1.196   4.892  10.899 -0.2564  0.0625  0.0743
 4780TIP3   OH238534   1.493   1.664  11.027  0.0365  0.1281  0.0596
 4780TIP3    H138535   1.505   1.758  11.015  1.1619  0.0644  0.5670
 4780TIP3    H238536   1.503   1.650  11.121 -0.3909 -0.4728  0.0273
 4781TIP3   OH238537   6.599   3.343  10.274 -0.2540  0.6293  0.0406
 4781TIP3    H138538   6.602   3.306  10.186  0.5250  0.0168  0.3147
 4781TIP3    H238539   6.598   3.438  10.260  0.3902  0.5439 -0.6141
 4782TIP3   OH238540   3.790   5.971  10.289 -0.3179  0.0836 -0.4826
 4782TIP3    H138541   3.795   5.920  10.369  0.7284 -2.0675 -1.8425
 4782TIP3    H238542   3.770   5.907  10.221 -0.6016  1.7554 -2.0380
 4783TIP3   OH238543   4.961   2.036  10.133 -0.3992 -0.4568  0.2214
 4783TIP3    H138544   4.963   2.066  10.042  2.4711 -1.8985 -0.3169
 4783TIP3    H238545   4.917   2.106  10.180 -2.4824  0.1115 -2.2965
 4784TIP3   OH238546   1.683   5.493   9.501 -0.5699  0.6316 -0.2699
 4784TIP3    H138547   1.668   5.556   9.431 -2.7780 -0.2827 -0.6924
 4784TIP3    H238548   1.758   5.441   9.472  0.8192  2.5415 -0.2418
 4785TIP3   OH238549   2.105   3.917   8.893  0.1841  0.1927  0.1753
 4785TIP3    H138550   2.160   3.921   8.816  2.7135  1.4280  1.9110
 4785TIP3    H238551   2.131   3.836   8.937  0.0895  0.4135  0.6500
 4786TIP3   OH238552   1.532   3.396  10.873  0.4581 -0.1457  0.4833
 4786TIP3    H138553   1.456   3.452  10.884  0.2345 -0.5342  0.9579
 4786TIP3    H238554   1.603   3.442  10.917 -0.0529 -0.9072  2.1708
 4787TIP3   OH238555   5.573   0.235  10.985 -0.2487 -0.8660  0.7473
 4787TIP3    H138556   5.536   0.147  10.987  1.0534 -1.4277  2.0226
 4787TIP3    H238557   5.574   0.264  11.076  3.2692 -1.3238  0.9941
 4788TIP3   OH238558   1.912   6.553   9.864  0.6146 -0.3468 -0.7327
 4788TIP3    H138559   1.854   6.539   9.940  1.2041 -1.5919 -0.4768
 4788TIP3    H238560   1.884   6.636   9.827  0.3709  0.3385  0.9147
 4789TIP3   OH238561   2.444   1.536  11.401  0.4329 -0.4462  0.0897
 4789TIP3    H138562   2.368   1.492  11.439 -0.7260  1.1920 -0.1885
 4789TIP3    H238563   2.503   1.465  11.376 -0.4091 -1.7119  1.5271
 4790TIP3   OH238564   0.380   2.727   8.894  0.1393 -0.2660 -0.0044
 4790TIP3    H138565   0.387   2.756   8.802  0.3435  0.8362  0.3399
 4790TIP3    H238566   0.469   2.733   8.928 -0.2936  1.7072  0.9214
 4791TIP3   OH238567   3.500   5.866  10.451  0.9557 -0.5893  0.0199
 4791TIP3    H138568   3.405   5.858  10.441  0.7565  0.9996  0.3904
 4791TIP3    H238569   3.536   5.810  10.382 -0.2840  0.1175 -1.2521
 4792TIP3   OH238570   2.224   3.781  11.667 -0.3113 -0.4960  0.1475
 4792TIP3    H138571   2.132   3.776  11.638  0.1223 -1.4295 -1.1996
 4792TIP3    H238572   2.246   3.874  11.661 -1.0810 -0.3007  0.1938
 4793TIP3   OH238573   0.124   1.895  11.700 -0.1691 -0.2733  0.2621
 4793TIP3    H138574   0.061   1.953  11.658 -0.0253 -0.0667  0.3325
 4793TIP3    H238575   0.143   1.828  11.635  0.3356  0.2539 -0.1386
 4794TIP3   OH238576   0.209   0.791  10.072 -0.0137 -0.1386  0.5881
 4794TIP3    H138577   0.182   0.741  10.148  1.5465 -0.3573  1.0277
 4794TIP3    H238578   0.178   0.880  10.090 -2.2947 -0.7588  0.0587
 4795TIP3   OH238579   3.763   6.533  11.251  0.4948 -0.6374 -0.1573
 4795TIP3    H138580   3.827   6.535  11.323  0.7017 -1.5696 -0.3014
 4795TIP3    H238581   3.795   6.465  11.192 -1.0610 -1.7171  0.1740
 4796TIP3   OH238582   4.043   0.795  11.337  0.1221  0.2479 -0.0207
 4796TIP3    H138583   3.973   0.847  11.297  0.7700  1.1320 -0.0266
 4796TIP3    H238584   4.014   0.783  11.427 -0.0568  0.5905 -0.0282
 4797TIP3   OH238585   1.420   6.365  10.120  0.7794  0.6399  0.3742
 4797TIP3    H138586   1.459   6.452  10.116  0.1776  0.9719  1.3600
 4797TIP3    H238587   1.394   6.355  10.211 -0.3847 -0.0430 -0.0205
 4798TIP3   OH238588   1.531   1.944   8.892 -0.3240 -0.4745 -0.0922
 4798TIP3    H138589   1.557   2.036   8.896  1.8030 -1.0836  2.6353
 4798TIP3    H238590   1.492   1.935   8.805 -0.3963  2.9116 -0.5737
 4799TIP3   OH238591   0.608   0.261   9.660 -0.0424  0.0769  0.6599
 4799TIP3    H138592   0.545   0.318   9.704 -0.0450  0.1758  0.5294
 4799TIP3    H238593   0.589   0.271   9.566 -2.1456 -2.5143  0.6825
 4800TIP3   OH238594   6.419   5.049  11.008  0.5503  0.2174 -0.2757
 4800TIP3    H138595   6.414   5.086  10.920 -0.3343 -1.2839 -0.8961
 4800TIP3    H238596   6.501   5.084  11.044  2.9697 -1.9726 -3.0987
 4801TIP3   OH238597   3.309   5.386  10.242 -0.6038 -0.1588 -0.2972
 4801TIP3    H138598   3.275   5.476  10.241  0.5756  0.4047  2.3691
 4801TIP3    H238599   3.347   5.375  10.329  1.5714 -2.4283 -1.4044
 4802TIP3   OH238600   0.651   5.899  11.655  0.0785  0.4252  0.5505
 4802TIP3    H138601   0.583   5.965  11.665  0.7098  0.9025  1.9735
 4802TIP3    H238602   0.732   5.949  11.646  0.2885 -0.1348 -1.0456
 4803TIP3   OH238603   3.638   2.080  10.236 -0.1410 -0.3968  0.6066
 4803TIP3    H138604   3.721   2.047  10.200 -0.5949 -3.0187  1.7410
 4803TIP3    H238605   3.661   2.114  10.322 -0.0523  0.1794  0.3632
 4804TIP3   OH238606   0.556   1.575   8.830  0.2386 -0.6066 -0.0096
 4804TIP3    H138607   0.527   1.502   8.884  1.1603 -1.7323 -0.9680
 4804TIP3    H238608   0.643   1.598   8.865  1.0047 -1.5869 -1.1830
 4805TIP3   OH238609   5.131   3.704  10.064  0.2393  0.0017  0.6387
 4805TIP3    H138610   5.101   3.679  10.151 -2.8543  0.7105 -0.1165
 4805TIP3    H238611   5.083   3.647  10.004 -0.3160  1.7896 -0.6996
 4806TIP3   OH238612   3.844   2.942   9.933 -0.1996  0.0355 -0.4338
 4806TIP3    H138613   3.828   2.963  10.025 -0.9368 -1.3935 -0.2016
 4806TIP3    H238614   3.760   2.909   9.900  0.3090 -0.4195 -1.3280
 4807TIP3   OH238615   4.387   2.054  10.700  0.2169  0.0851 -0.3686
 4807TIP3    H138616   4.475   2.016  10.706 -0.4018 -1.2326  2.5054
 4807TIP3    H238617   4.329   1.983  10.728 -1.5814  1.4643 -0.4398
 4808TIP3   OH238618   5.046   6.550  11.633 -0.2242  0.0922 -0.4933
 4808TIP3    H138619   5.005   6.498  11.702 -0.3808 -0.1691 -0.7754
 4808TIP3    H238620   5.135   6.515  11.626  0.2663  1.0686  0.5377
 4809TIP3   OH238621   3.784   4.159  11.652 -0.4544  0.3037 -0.1493
 4809TIP3    H138622   3.790   4.070  11.618 -0.3281  0.3364 -0.2137
 4809TIP3    H238623   3.849   4.162  11.723 -0.6610  0.2588  0.0427
 4810TIP3   OH238624   6.448   4.480   8.859  0.1280  0.1005 -0.2014
 4810TIP3    H138625   6.431   4.495   8.766 -1.5083  0.1713  0.0832
 4810TIP3    H238626   6.363   4.457   8.896  0.2424  2.4030  1.7235
 4811TIP3   OH238627   4.934   3.902   9.127 -0.6150 -0.8996  0.0125
 4811TIP3    H138628   4.867   3.892   9.195 -0.3087 -0.5402  0.3728
 4811TIP3    H238629   4.983   3.820   9.130 -1.0975 -1.2021 -0.3174
 4812TIP3   OH238630   2.175   4.844   8.383 -0.3046 -0.2024 -0.5958
 4812TIP3    H138631   2.178   4.758   8.341 -3.6031 -0.5538 -0.4102
 4812TIP3    H238632   2.138   4.902   8.316  2.6909  1.4032 -1.0282
 4813TIP3   OH238633   5.460   1.281   9.715  0.4021  0.8888  0.6433
 4813TIP3    H138634   5.440   1.203   9.767  0.9512  0.3075 -0.0006
 4813TIP3    H238635   5.455   1.353   9.778  0.7591  0.2370  1.4372
 4814TIP3   OH238636   4.928   2.559  10.758  0.3635 -0.0786  0.0212
 4814TIP3    H138637   4.946   2.608  10.677  0.9131  0.4584  0.4560
 4814TIP3    H238638   4.982   2.602  10.824 -1.3881  0.6324  1.0643
 4815TIP3   OH238639   1.635   3.958  11.237 -0.8502  0.0785  0.3519
 4815TIP3    H138640   1.551   3.925  11.269 -0.9166  1.5906  1.8392
 4815TIP3    H238641   1.641   4.047  11.271  0.5440  0.6585 -1.2622
 4816TIP3   OH238642   4.684   5.090  11.563  0.1611 -0.5357  0.5190
 4816TIP3    H138643   4.657   5.135  11.483 -1.3765 -1.1554  0.6410
 4816TIP3    H238644   4.768   5.050  11.542 -0.6426 -1.4701 -1.1264
 4817TIP3   OH238645   3.467   3.441  10.406  0.2859 -0.5849  0.4532
 4817TIP3    H138646   3.449   3.434  10.500  2.8093 -1.6651  0.9595
 4817TIP3    H238647   3.541   3.501  10.401  0.9646 -1.4844 -0.6941
 4818TIP3   OH238648   1.496   1.107   9.695  0.3960  0.1381  0.5107
 4818TIP3    H138649   1.540   1.079   9.775 -0.1679 -3.5122 -0.2778
 4818TIP3    H238650   1.564   1.105   9.628  0.0829 -0.9102  0.1894
 4819TIP3   OH238651   3.580   1.215   9.084 -0.2499  0.0345  0.2189
 4819TIP3    H138652   3.529   1.143   9.046 -0.4256 -0.0220  0.5567
 4819TIP3    H238653   3.671   1.193   9.065 -0.3681  0.3138 -0.7022
 4820TIP3   OH238654   6.095   3.706   9.510  0.1385 -0.4925  0.4770
 4820TIP3    H138655   6.145   3.709   9.429  0.7567 -1.9713  0.7661
 4820TIP3    H238656   6.069   3.797   9.526  1.0474  0.0049 -0.7174
 4821TIP3   OH238657   6.615   5.983   9.601 -0.0756 -0.2193  0.1212
 4821TIP3    H138658   6.525   6.003   9.575  0.3106 -0.8244 -1.8617
 4821TIP3    H238659   6.652   5.938   9.525  1.8360 -0.1919  0.9875
 4822TIP3   OH238660   1.011   6.583  11.205  0.0484 -0.0426 -0.1497
 4822TIP3    H138661   0.983   6.656  11.150 -0.9880 -0.0807  0.3117
 4822TIP3    H238662   0.958   6.509  11.174  0.2304 -0.3153  0.1857
 4823TIP3   OH238663   1.425   6.204  10.684 -0.2285 -0.2262  0.2545
 4823TIP3    H138664   1.508   6.184  10.643 -0.5908 -0.5155 -0.3495
 4823TIP3    H238665   1.364   6.219  10.611 -0.3372  1.6076  0.6575
 4824TIP3   OH238666   2.206   0.543   9.649  0.4969  0.1281  0.7640
 4824TIP3    H138667   2.181   0.453   9.669  1.4877 -0.2173  0.5331
 4824TIP3    H238668   2.176   0.594   9.724 -0.8982 -0.2370  0.4722
 4825TIP3   OH238669   4.931   1.301   8.476 -0.0880 -0.4163 -0.3437
 4825TIP3    H138670   5.015   1.316   8.433  0.8966  0.8737  1.8227
 4825TIP3    H238671   4.878   1.377   8.451 -1.2240 -1.9198 -2.8625
 4826TIP3   OH238672   6.620   0.116  11.640 -0.1768  0.3059  0.5308
 4826TIP3    H138673   6.615   0.154  11.552 -0.9849 -0.8984  0.0433
 4826TIP3    H238674   6.713   0.120  11.662  0.1508 -0.1129 -0.7094
 4827TIP3   OH238675   2.555   4.342   9.546 -0.0549  0.5395 -0.2062
 4827TIP3    H138676   2.541   4.254   9.512 -1.1400  0.6495 -0.0797
 4827TIP3    H238677   2.505   4.344   9.627  2.4076  0.3083  1.4170
 4828TIP3   OH238678   2.201   0.713  11.383 -0.3555  0.0214  0.1303
 4828TIP3    H138679   2.188   0.655  11.458 -2.0089 -0.0324 -0.1730
 4828TIP3    H238680   2.229   0.796  11.421  1.3338 -0.7312  0.6150
 4829TIP3   OH238681   2.591   0.505  11.439  0.4424 -0.0530  0.0914
 4829TIP3    H138682   2.562   0.425  11.482 -0.1044  0.5086  0.8017
 4829TIP3    H238683   2.531   0.517  11.366  1.2281 -0.8864 -0.7083
 4830TIP3   OH238684   4.178   3.046   9.211  0.3726  0.2004 -0.6362
 4830TIP3    H138685   4.213   2.970   9.258  0.9037  0.1357 -1.1235
 4830TIP3    H238686   4.123   3.091   9.275 -1.1209 -1.3742 -0.7422
 4831TIP3   OH238687   2.640   0.404   9.153 -0.2612 -0.4897  0.5589
 4831TIP3    H138688   2.580   0.359   9.213  1.1442 -0.5233  2.0020
 4831TIP3    H238689   2.602   0.491   9.144 -0.6763 -0.5833  1.2648
 4832TIP3   OH238690   5.751   3.990  10.228  0.2809 -0.0702  0.4558
 4832TIP3    H138691   5.725   3.995  10.136  0.8943 -0.1568  0.2693
 4832TIP3    H238692   5.821   3.925  10.230  0.6426  0.3180  0.8914
 4833TIP3   OH238693   5.464   1.635  10.759  0.5319 -0.1787 -0.2939
 4833TIP3    H138694   5.502   1.602  10.840 -0.0575 -0.3718 -0.0850
 4833TIP3    H238695   5.394   1.573  10.738  0.0344  0.4060 -0.4177
 4834TIP3   OH238696   2.856   2.462  11.696 -0.1161  0.5046 -0.1476
 4834TIP3    H138697   2.865   2.392  11.631 -1.6033  1.7565 -1.8209
 4834TIP3    H238698   2.940   2.508  11.694 -0.3850  0.9960 -1.8481
 4835TIP3   OH238699   3.237   2.959   9.757  0.5783 -0.0524 -0.3787
 4835TIP3    H138700   3.199   2.882   9.800 -0.3019 -0.4571 -1.8302
 4835TIP3    H238701   3.236   2.937   9.664  2.2445  0.8952 -0.6528
 4836TIP3   OH238702   0.393   4.271  11.812  0.1087 -0.4057  0.1556
 4836TIP3    H138703   0.373   4.365  11.817 -1.3031 -0.7292  1.2361
 4836TIP3    H238704   0.488   4.266  11.822  0.1506  0.8764  0.6441
 4837TIP3   OH238705   3.795   5.118   8.323 -0.6033  0.1261 -0.7610
 4837TIP3    H138706   3.825   5.208   8.331 -0.9207  0.0722  1.9247
 4837TIP3    H238707   3.870   5.065   8.352 -1.1987 -0.3425 -0.0559
 4838TIP3   OH238708   3.162   0.653   8.997  0.2516 -0.0081  0.0339
 4838TIP3    H138709   3.126   0.705   8.925 -0.3138 -0.0901  0.2455
 4838TIP3    H238710   3.244   0.697   9.020  0.1867  0.3097 -0.3278
 4839TIP3   OH238711   0.358   4.525   9.933  0.2573 -0.5388  0.3688
 4839TIP3    H138712   0.435   4.553   9.884 -0.8226 -1.1576 -1.8224
 4839TIP3    H238713   0.306   4.605   9.944 -0.5965 -0.7504 -1.6809
 4840TIP3   OH238714   4.343   2.620  10.175  0.1318 -0.7219  0.3639
 4840TIP3    H138715   4.280   2.637  10.245 -0.5719  1.3802 -0.6976
 4840TIP3    H238716   4.295   2.566  10.112  0.6281 -2.2345  1.2011
 4841TIP3   OH238717   2.534   0.107  10.584 -0.3558  0.2833  0.1748
 4841TIP3    H138718   2.466   0.051  10.623 -0.3581 -0.7086 -1.1578
 4841TIP3    H238719   2.596   0.122  10.655 -0.0747 -1.8991  0.4672
 4842TIP3   OH238720   2.252   1.380   8.574 -0.1112  0.3891  0.4589
 4842TIP3    H138721   2.331   1.336   8.543 -0.1712 -0.1576  1.0486
 4842TIP3    H238722   2.233   1.338   8.658 -1.8590 -0.5347 -0.3410
 4843TIP3   OH238723   1.579   6.373   9.107  0.1741  0.0443  0.5859
 4843TIP3    H138724   1.674   6.386   9.115  0.2458 -0.7379  1.1700
 4843TIP3    H238725   1.542   6.461   9.114  0.9879  0.7052 -2.2202
 4844TIP3   OH238726   1.183   5.516  11.466 -0.7702  0.1985  0.2560
 4844TIP3    H138727   1.127   5.576  11.517  1.6201  0.9939  2.1818
 4844TIP3    H238728   1.207   5.566  11.388 -1.2994  0.5412  0.3109
 4845TIP3   OH238729   4.184   4.198   9.222  0.2830 -0.3556  0.1305
 4845TIP3    H138730   4.138   4.279   9.245 -1.5152 -1.5506  0.9366
 4845TIP3    H238731   4.211   4.212   9.131 -3.7230 -0.3655 -1.2561
 4846TIP3   OH238732   5.694   5.446  10.662  0.1660  0.1624  0.0288
 4846TIP3    H138733   5.713   5.430  10.755 -1.3508 -1.8488  0.0500
 4846TIP3    H238734   5.617   5.502  10.662  0.6763  0.8840 -0.0503
 4847TIP3   OH238735   5.359   2.793   8.870 -0.3407 -0.2704  0.0443
 4847TIP3    H138736   5.444   2.771   8.831 -0.8252  0.8668 -1.7491
 4847TIP3    H238737   5.314   2.709   8.878  0.9208 -0.8895  1.0345
 4848TIP3   OH238738   1.379   0.778   8.990  0.3445  0.6677  0.4618
 4848TIP3    H138739   1.353   0.835   8.918 -0.2859 -0.7078 -0.4372
 4848TIP3    H238740   1.366   0.832   9.069 -1.2356  1.4251 -0.2632
 4849TIP3   OH238741   3.268   4.491   8.879  0.0796  0.3906  0.2216
 4849TIP3    H138742   3.308   4.451   8.956 -0.3123  0.2385  0.3516
 4849TIP3    H238743   3.202   4.428   8.851 -1.2453  1.3602  1.0245
 4850TIP3   OH238744   6.784   3.275   9.430  0.2972  0.1137 -0.2395
 4850TIP3    H138745   6.699   3.265   9.386  0.4527  0.8124 -0.7204
 4850TIP3    H238746   6.806   3.187   9.460 -1.9177  0.3572  2.4331
 4851TIP3   OH238747   2.907   2.036   8.756 -0.4092  0.2477  0.2163
 4851TIP3    H138748   2.936   2.123   8.731  0.1384  0.4547  1.5130
 4851TIP3    H238749   2.987   1.986   8.771 -0.7193 -0.3436 -0.0261
 4852TIP3   OH238750   2.198   5.130  10.740 -0.3007  0.5656  0.1476
 4852TIP3    H138751   2.158   5.056  10.695 -0.8488  1.1716 -0.3878
 4852TIP3    H238752   2.195   5.107  10.833 -0.4740 -0.0700 -0.0140
 4853TIP3   OH238753   6.747   3.144  11.231  0.3069 -0.5085 -0.8709
 4853TIP3    H138754   6.675   3.171  11.173 -1.1908  0.9100  1.4664
 4853TIP3    H238755   6.707   3.082  11.292  1.2558 -0.2671  0.0220
 4854TIP3   OH238756   3.030   4.692   9.201 -0.6012  0.1593  0.6923
 4854TIP3    H138757   3.083   4.645   9.265  0.4887  0.0471 -0.2550
 4854TIP3    H238758   3.001   4.771   9.247 -0.0754 -0.0495  1.4014
 4855TIP3   OH238759   4.643   5.902  10.385 -0.8022 -0.4403 -0.0732
 4855TIP3    H138760   4.583   5.940  10.450 -0.8165  1.4669 -1.1278
 4855TIP3    H238761   4.666   5.976  10.328  1.3521 -1.4622 -0.6174
 4856TIP3   OH238762   6.164   4.482   8.903 -0.0221  0.0221  0.8105
 4856TIP3    H138763   6.187   4.417   8.970 -1.3322 -2.6439 -1.1320
 4856TIP3    H238764   6.074   4.506   8.923 -0.1271 -0.1115  0.4983
 4857TIP3   OH238765   4.365   5.733   8.007  0.0434 -0.2714  0.2460
 4857TIP3    H138766   4.288   5.788   7.996  0.2366 -0.2588 -1.3455
 4857TIP3    H238767   4.352   5.688   8.090 -1.0403  0.7191  0.6279
 4858TIP3   OH238768   2.971   0.192  10.720  0.2200  0.1075 -0.2382
 4858TIP3    H138769   3.003   0.279  10.743 -2.6055  1.1404  0.1629
 4858TIP3    H238770   2.997   0.181  10.629 -1.4516  2.5063 -1.1176
 4859TIP3   OH238771   3.154   1.454   9.173  0.2650 -0.6427 -0.2004
 4859TIP3    H138772   3.099   1.527   9.198 -0.4268 -1.5749  1.1006
 4859TIP3    H238773   3.106   1.376   9.202  2.6484 -1.4671  1.8663
 4860TIP3   OH238774   5.469   6.187   9.516 -0.1822 -0.0103 -0.2037
 4860TIP3    H138775   5.498   6.183   9.425  1.8394  0.2582  0.3644
 4860TIP3    H238776   5.499   6.104   9.555  3.5204  1.7792  1.3179
 4861TIP3   OH238777   0.896   1.864  10.273 -0.2969 -0.3701  0.0125
 4861TIP3    H138778   0.845   1.797  10.227 -0.7915 -1.6156  2.2049
 4861TIP3    H238779   0.835   1.936  10.287 -0.3609 -0.3064 -0.5531
 4862TIP3   OH238780   5.284   6.791   9.836 -0.6623  0.3476  0.2060
 4862TIP3    H138781   5.217   6.789   9.769  0.2958  1.3107 -0.8241
 4862TIP3    H238782   5.237   6.808   9.917 -1.7957 -0.4675 -0.2529
 4863TIP3   OH238783   1.983   2.572  11.101  0.1210 -0.3645 -0.1926
 4863TIP3    H138784   2.039   2.634  11.148  0.3279 -0.7364  0.0555
 4863TIP3    H238785   2.042   2.527  11.041 -0.0040 -0.4086 -0.2829
 4864TIP3   OH238786   3.006   1.517   9.808  0.1819 -0.6479  0.0048
 4864TIP3    H138787   2.955   1.457   9.754 -1.4143 -0.0386  0.7570
 4864TIP3    H238788   2.941   1.565   9.859  1.4024  1.5833 -0.3994
 4865TIP3   OH238789   4.294   6.698  10.995  0.5254  0.1022 -0.4180
 4865TIP3    H138790   4.251   6.613  10.999  1.4174 -0.3351  0.3373
 4865TIP3    H238791   4.257   6.747  11.068 -0.3309  0.5392 -1.1365
 4866TIP3   OH238792   2.318   1.756  11.061 -0.0251  0.6462 -0.4058
 4866TIP3    H138793   2.410   1.775  11.042  0.0002  1.0227  0.0766
 4866TIP3    H238794   2.315   1.661  11.075  0.3580  0.6836 -0.0643
 4867TIP3   OH238795   5.098   5.571   9.233  0.2793 -0.1089 -0.1729
 4867TIP3    H138796   5.013   5.529   9.218  0.9312 -1.9385  0.9065
 4867TIP3    H238797   5.077   5.648   9.286 -0.6931 -0.6721  0.3000
 4868TIP3   OH238798   4.769   6.501  11.507  0.0134 -0.3790 -0.0302
 4868TIP3    H138799   4.730   6.478  11.591 -1.2067  0.1861 -0.4257
 4868TIP3    H238800   4.853   6.455  11.507 -0.0213 -0.4920  1.4344
 4869TIP3   OH238801   3.919   4.934  11.497 -0.0665  0.2367  0.1657
 4869TIP3    H138802   3.979   4.879  11.548 -0.4479  1.4390  2.0321
 4869TIP3    H238803   3.832   4.899  11.517 -0.1145 -0.5242 -1.2878
 4870TIP3   OH238804   0.506   2.116  10.473  0.3180  0.3971  1.0877
 4870TIP3    H138805   0.525   2.167  10.552  0.2282 -0.0554  1.4033
 4870TIP3    H238806   0.419   2.079  10.489  0.1140  0.6522  0.5924
 4871TIP3   OH238807   2.953   5.516   9.671  0.2944  0.1257 -0.1924
 4871TIP3    H138808   3.020   5.522   9.738 -1.0785  1.5511  1.1504
 4871TIP3    H238809   2.884   5.463   9.712  0.6939 -1.6395 -1.6833
 4872TIP3   OH238810   2.832   2.266   9.946  0.1793 -0.1727 -0.4093
 4872TIP3    H138811   2.870   2.179   9.936 -1.2107 -0.7376 -1.0406
 4872TIP3    H238812   2.798   2.268  10.036 -2.6556 -1.5549 -1.3192
 4873TIP3   OH238813   5.147   5.947  11.013  0.0949 -0.1576 -0.2024
 4873TIP3    H138814   5.176   6.025  11.061  2.1449 -0.1336 -1.3951
 4873TIP3    H238815   5.054   5.940  11.035  0.6165  0.5989  2.6684
 4874TIP3   OH238816   6.401   6.531  10.153  0.1690  0.5041  0.4257
 4874TIP3    H138817   6.493   6.506  10.141 -0.1228 -0.5366  0.2621
 4874TIP3    H238818   6.399   6.624  10.131  1.2514  0.6307  0.7932
 4875TIP3   OH238819   2.074   0.081   9.063  0.1372 -0.4125 -0.5048
 4875TIP3    H138820   2.164   0.115   9.065  0.1105 -0.3600  0.1230
 4875TIP3    H238821   2.028   0.137   9.001  0.8094 -1.1350 -1.6815
 4876TIP3   OH238822   5.051   1.761   9.974  0.1256  0.4478 -0.0868
 4876TIP3    H138823   5.122   1.728   9.920  0.7799  0.2366  0.8729
 4876TIP3    H238824   4.982   1.784   9.912 -0.7025 -3.3380 -0.8549
 4877TIP3   OH238825   2.618   2.807  11.319 -0.2787  0.1072 -0.1071
 4877TIP3    H138826   2.563   2.876  11.282 -0.3206  0.2581  0.2372
 4877TIP3    H238827   2.645   2.755  11.243 -3.8106 -2.1674 -0.0612
 4878TIP3   OH238828   4.177   1.431  10.638  0.2053 -0.2298  0.4909
 4878TIP3    H138829   4.115   1.389  10.579 -0.6958 -3.7590  3.5421
 4878TIP3    H238830   4.259   1.382  10.626  0.6477  0.4495  0.6563
 4879TIP3   OH238831   5.082   3.693   9.026 -0.3351  0.1976  0.3625
 4879TIP3    H138832   5.173   3.693   9.057 -0.1230  0.4838 -0.2452
 4879TIP3    H238833   5.080   3.626   8.958 -0.5160  0.3748  0.1932
 4880TIP3   OH238834   1.330   5.914  10.032  0.2406 -0.0958 -0.1625
 4880TIP3    H138835   1.321   5.939  10.124 -2.0131 -0.9767 -0.0909
 4880TIP3    H238836   1.291   5.986   9.984  1.6473  0.4832 -0.4966
 4881TIP3   OH238837   6.168   2.059  10.705 -0.2768 -0.4213  0.0991
 4881TIP3    H138838   6.166   2.134  10.646 -0.6562 -0.6871 -0.2365
 4881TIP3    H238839   6.259   2.052  10.734 -0.5791  1.3530  1.6865
 4882TIP3   OH238840   3.509   3.234  11.778  0.8807 -0.2588  0.5685
 4882TIP3    H138841   3.461   3.231  11.695 -0.0619 -0.0822  1.0910
 4882TIP3    H238842   3.502   3.325  11.807  0.6628 -0.4526  1.1414
 4883TIP3   OH238843   0.153   0.237   8.891  0.4346 -0.1256  0.5552
 4883TIP3    H138844   0.082   0.245   8.955  1.3231 -0.0213  1.5618
 4883TIP3    H238845   0.173   0.326   8.865 -1.2828 -0.2477 -1.4789
 4884TIP3   OH238846   4.753   4.352  10.135 -0.0466 -0.1873 -1.0230
 4884TIP3    H138847   4.753   4.325  10.227 -1.3000  0.3592 -0.8365
 4884TIP3    H238848   4.793   4.279  10.088 -0.7373 -1.1099 -0.2083
 4885TIP3   OH238849   3.937   0.076  11.514 -0.4759 -0.1686  0.0697
 4885TIP3    H138850   3.920   0.038  11.428  0.8888 -0.4395 -0.0993
 4885TIP3    H238851   3.996   0.013  11.557  0.1079  0.7218  0.5990
 4886TIP3   OH238852   1.204   1.206  11.502 -0.4257 -0.1850  0.0142
 4886TIP3    H138853   1.198   1.136  11.568 -0.3019  0.1172  0.3491
 4886TIP3    H238854   1.116   1.213  11.466 -0.9507  0.8357  1.3853
 4887TIP3   OH238855   2.147   0.398   9.388 -0.0379  0.2557  0.0818
 4887TIP3    H138856   2.152   0.442   9.473  0.1374 -0.9285  0.7012
 4887TIP3    H238857   2.216   0.439   9.336 -1.0027  1.9146  0.0487
 4888TIP3   OH238858   3.024   1.621  10.465 -0.7312 -0.0557  0.4996
 4888TIP3    H138859   3.030   1.629  10.370  0.4517 -1.1004  0.4442
 4888TIP3    H238860   3.104   1.662  10.498 -1.0400  0.1325  1.0345
 4889TIP3   OH238861   6.415   1.754  10.627  0.9658 -0.3126  0.2778
 4889TIP3    H138862   6.356   1.775  10.700 -0.5114 -2.1317 -0.3188
 4889TIP3    H238863   6.474   1.687  10.663  0.2483 -1.1966 -0.1520
 4890TIP3   OH238864   6.104   3.647   8.903 -0.1395  0.3962 -0.5093
 4890TIP3    H138865   6.025   3.652   8.956 -1.5932 -2.0225 -2.2094
 4890TIP3    H238866   6.084   3.580   8.838  3.7985 -1.2398 -0.2746
 4891TIP3   OH238867   5.942   1.117  10.047  0.7593 -0.1585  0.2734
 4891TIP3    H138868   5.993   1.064  10.109  1.8152  1.1530  0.5612
 4891TIP3    H238869   5.859   1.070  10.038  2.6817 -3.5912 -1.8478
 4892TIP3   OH238870   2.455   2.247  10.805 -0.3053 -0.0179 -0.5326
 4892TIP3    H138871   2.377   2.292  10.840 -0.5516 -1.6414  1.1239
 4892TIP3    H238872   2.528   2.304  10.829 -0.8069  0.5817 -0.3983
 4893TIP3   OH238873   1.095   5.043   9.761 -0.4508  0.2277 -0.9698
 4893TIP3    H138874   1.024   5.026   9.700 -0.6308 -0.4024 -0.6050
 4893TIP3    H238875   1.150   4.965   9.756  0.1604  0.6615 -1.1660
 4894TIP3   OH238876   4.579   0.208  10.336 -0.1328  0.0814 -0.0162
 4894TIP3    H138877   4.635   0.156  10.394 -0.2103 -0.7113 -0.6382
 4894TIP3    H238878   4.638   0.243  10.269 -0.4712 -1.3826 -1.1141
 4895TIP3   OH238879   5.931   4.175  10.379  0.1486 -0.0402  0.0250
 4895TIP3    H138880   5.855   4.156  10.323  1.0665 -0.4721 -1.1125
 4895TIP3    H238881   5.893   4.188  10.466 -1.3288  0.6989 -0.6789
 4896TIP3   OH238882   4.902   4.010  10.172  0.6264  0.0983  0.0553
 4896TIP3    H138883   4.911   4.103  10.151 -0.6622  0.0078 -1.0306
 4896TIP3    H238884   4.827   4.007  10.232  1.8469 -0.0609  1.6116
 4897TIP3   OH238885   6.648   0.218   9.948  0.1976 -0.0119  0.1621
 4897TIP3    H138886   6.611   0.212  10.036  2.0968  1.1336  1.1140
 4897TIP3    H238887   6.737   0.250   9.962  0.9600 -0.9209 -2.1096
 4898TIP3   OH238888   5.258   1.446  10.417  0.0442  0.2865  0.0065
 4898TIP3    H138889   5.260   1.357  10.383 -1.9013 -0.1218  0.8173
 4898TIP3    H238890   5.277   1.436  10.511 -1.1488  0.5837  0.2942
 4899TIP3   OH238891   2.178   5.409   9.013 -0.0211  0.1698  0.0355
 4899TIP3    H138892   2.207   5.349   9.082  1.1601  0.2497 -0.3725
 4899TIP3    H238893   2.118   5.356   8.961 -3.0731  0.8440  2.5538
 4900TIP3   OH238894   2.300   3.774   9.280  0.6790 -0.2084  0.1329
 4900TIP3    H138895   2.210   3.778   9.313  1.1136 -1.0063  1.5061
 4900TIP3    H238896   2.320   3.864   9.255 -0.4217  0.0197  0.0235
 4901TIP3   OH238897   5.972   1.453  11.496  0.6343  0.3023  0.1837
 4901TIP3    H138898   5.944   1.509  11.424  1.7429 -0.1271 -0.6097
 4901TIP3    H238899   5.897   1.396  11.513 -0.2623  1.5715  0.5655
 4902TIP3   OH238900   1.153   0.283   9.707  0.1917  0.2134 -0.2338
 4902TIP3    H138901   1.170   0.213   9.769 -0.4377 -1.0724 -1.4585
 4902TIP3    H238902   1.058   0.297   9.710  0.4084  1.7236  0.6999
 4903TIP3   OH238903   0.727   2.219   9.729 -0.3889  0.3978 -0.2998
 4903TIP3    H138904   0.764   2.266   9.803 -2.2435  0.8030  0.4101
 4903TIP3    H238905   0.803   2.183   9.683  0.8136  0.2365  1.7077
 4904TIP3   OH238906   6.447   6.034  10.815  0.5671  0.7290 -0.0693
 4904TIP3    H138907   6.351   6.030  10.809  0.4554  0.0641  1.6153
 4904TIP3    H238908   6.467   6.126  10.831  0.2242  0.8821 -0.5049
 4905TIP3   OH238909   2.717   0.035   8.895 -0.5432 -0.0343 -0.1617
 4905TIP3    H138910   2.711   0.014   8.988 -1.2711  0.2474 -0.1457
 4905TIP3    H238911   2.811   0.049   8.880 -0.5274  0.8997  0.7404
 4906TIP3   OH238912   3.512   5.872   9.068  0.1621 -0.0444  0.5737
 4906TIP3    H138913   3.438   5.827   9.108 -0.2044 -0.5342 -0.6147
 4906TIP3    H238914   3.560   5.804   9.021  1.0229  0.3791  0.8158
 4907TIP3   OH238915   4.728   3.431   9.211 -0.0436 -0.2352  0.0572
 4907TIP3    H138916   4.787   3.411   9.138  1.4603  0.2410  1.1043
 4907TIP3    H238917   4.640   3.412   9.177  0.6516 -0.3802 -1.7386
 4908TIP3   OH238918   6.368   1.390   9.437  0.0603 -0.2488  0.5374
 4908TIP3    H138919   6.428   1.362   9.368 -0.5247  0.3529 -0.2365
 4908TIP3    H238920   6.292   1.424   9.390 -0.2265  0.4504  1.4763
 4909TIP3   OH238921   3.554   2.859  10.809  0.7969 -0.0308  0.2905
 4909TIP3    H138922   3.488   2.816  10.864  0.3372  1.3323  0.8434
 4909TIP3    H238923   3.627   2.877  10.869  0.7737  0.4117  0.1894
 4910TIP3   OH238924   0.766   5.247   9.192  0.0422 -0.1230  0.2568
 4910TIP3    H138925   0.690   5.304   9.200 -0.1648 -0.4834  1.0456
 4910TIP3    H238926   0.841   5.305   9.203 -0.1694 -0.0149  1.2558
 4911TIP3   OH238927   3.845   5.606  11.514  0.0500 -0.3222 -0.1056
 4911TIP3    H138928   3.917   5.552  11.545  0.9654 -0.1433 -1.8303
 4911TIP3    H238929   3.792   5.547  11.460  0.2007  0.1169 -0.7387
 4912TIP3   OH238930   4.746   4.665   8.967 -0.2875  0.0036 -0.0579
 4912TIP3    H138931   4.690   4.660   9.044 -0.3816  0.1290 -0.1185
 4912TIP3    H238932   4.712   4.738   8.916  0.4747  0.6390  0.3257
 4913TIP3   OH238933   6.683   6.573   9.284 -0.4721 -0.2294 -0.0173
 4913TIP3    H138934   6.754   6.523   9.324 -1.5008 -1.7796 -0.0452
 4913TIP3    H238935   6.605   6.551   9.336 -1.3538 -0.3359 -1.3193
 4914TIP3   OH238936   5.351   1.575  11.571  0.1036 -0.3643  0.7476
 4914TIP3    H138937   5.437   1.545  11.601  0.4585  2.0943  2.4518
 4914TIP3    H238938   5.370   1.633  11.497 -0.3451 -1.7522 -0.5122
 4915TIP3   OH238939   2.714   5.699   8.869 -0.0256  0.4890  0.4532
 4915TIP3    H138940   2.688   5.779   8.915 -4.0123 -0.3371 -0.0313
 4915TIP3    H238941   2.697   5.717   8.777  2.7944  0.3029 -0.1846
 4916TIP3   OH238942   5.788   5.260   8.731 -0.0107  0.3379  0.6816
 4916TIP3    H138943   5.830   5.282   8.815  0.5306 -0.8031  0.7339
 4916TIP3    H238944   5.861   5.240   8.672 -0.3705  1.5978 -0.2198
 4917TIP3   OH238945   4.273   5.685   9.815 -0.0443  0.3142 -0.0188
 4917TIP3    H138946   4.368   5.697   9.808  0.1714 -1.0647  0.1650
 4917TIP3    H238947   4.241   5.694   9.725  0.2668  0.6942 -0.0961
 4918TIP3   OH238948   5.291   3.716   8.744  0.0076 -0.2477  0.2261
 4918TIP3    H138949   5.360   3.650   8.751  0.0745 -0.0202  2.6714
 4918TIP3    H238950   5.215   3.676   8.786 -0.4091  0.6659  0.3626
 4919TIP3   OH238951   2.006   2.504   8.876  0.6023  0.1408 -0.5490
 4919TIP3    H138952   2.006   2.437   8.808 -2.2180 -1.2833  0.7368
 4919TIP3    H238953   2.070   2.474   8.940 -0.0594 -0.9286 -0.3751
 4920TIP3   OH238954   0.097   1.662  11.496 -0.1229  0.2852  0.6192
 4920TIP3    H138955   0.181   1.625  11.469  0.9795  1.0616  2.8005
 4920TIP3    H238956   0.061   1.701  11.416  1.0741 -0.9727 -0.5842
 4921TIP3   OH238957   4.977   2.260   9.847  0.1005  0.4508  0.6260
 4921TIP3    H138958   4.973   2.311   9.928 -0.8123  1.4620 -0.0315
 4921TIP3    H238959   4.979   2.325   9.777  3.2719 -0.3268 -0.1683
 4922TIP3   OH238960   0.821   5.174  10.885  0.4828  0.2246 -0.7299
 4922TIP3    H138961   0.728   5.192  10.900  0.8724  2.1322 -0.3729
 4922TIP3    H238962   0.821   5.099  10.825 -1.2329 -0.7742  0.4187
 4923TIP3   OH238963   3.273   2.432  11.578 -0.4488  0.4108 -0.1974
 4923TIP3    H138964   3.210   2.473  11.638  0.7743 -1.2691  2.4005
 4923TIP3    H238965   3.269   2.339  11.599  1.6890  0.0553 -1.1313
 4924TIP3   OH238966   6.403   5.672  10.719 -0.4078  1.1574 -0.3541
 4924TIP3    H138967   6.479   5.705  10.767 -0.5177 -0.9911  1.4708
 4924TIP3    H238968   6.327   5.706  10.767 -0.5198 -1.1854  1.2990
 4925TIP3   OH238969   4.291   5.318   8.991 -0.3352  0.1909  0.9998
 4925TIP3    H138970   4.350   5.283   9.058 -0.1408 -0.5473  0.4560
 4925TIP3    H238971   4.345   5.324   8.912  0.0166  2.9969  1.3593
 4926TIP3   OH238972   5.448   4.642   9.228  0.4346 -0.8247 -0.2319
 4926TIP3    H138973   5.501   4.672   9.302 -0.5766  0.9891 -0.1893
 4926TIP3    H238974   5.385   4.582   9.267  0.8385 -1.0188  0.1330
 4927TIP3   OH238975   5.737   1.406   9.686 -0.5622  0.4006  0.5878
 4927TIP3    H138976   5.800   1.334   9.677 -0.0508  0.7373  1.4316
 4927TIP3    H238977   5.658   1.364   9.721 -1.4330 -0.3241 -1.9465
 4928TIP3   OH238978   1.352   0.115  11.883  0.0242 -0.6094 -0.3277
 4928TIP3    H138979   1.409   0.054  11.836  0.1281 -0.6797 -0.1076
 4928TIP3    H238980   1.336   0.074  11.967  1.5673  0.4573  0.5476
 4929TIP3   OH238981   4.681   3.036  10.454 -0.3930  0.0369  0.0465
 4929TIP3    H138982   4.643   3.008  10.371 -2.2654 -1.9115  1.4699
 4929TIP3    H238983   4.723   2.958  10.490 -0.7143  0.5003  1.5074
 4930TIP3   OH238984   4.818   2.369  10.520 -0.2100  0.2002  0.4587
 4930TIP3    H138985   4.744   2.428  10.533 -0.5996  0.0410 -0.9159
 4930TIP3    H238986   4.893   2.418  10.554 -0.4802  1.6307 -0.8931
 4931TIP3   OH238987   0.391   5.758  10.711 -0.0684  0.2735  0.1723
 4931TIP3    H138988   0.418   5.672  10.681 -0.4798 -0.7394  2.4805
 4931TIP3    H238989   0.343   5.796  10.637 -2.0793 -2.5176 -0.1098
 4932TIP3   OH238990   6.753   2.324   9.115 -0.0204 -0.0405 -0.7015
 4932TIP3    H138991   6.781   2.260   9.050  1.4426 -0.5470  0.3813
 4932TIP3    H238992   6.662   2.301   9.133 -0.1403 -0.5069 -1.8161
 4933TIP3   OH238993   1.424   1.586   9.832  0.4772  0.4044 -0.5589
 4933TIP3    H138994   1.384   1.500   9.848  0.5253  0.3349 -0.8162
 4933TIP3    H238995   1.447   1.618   9.920  0.9178 -0.0691 -0.4972
 4934TIP3   OH238996   0.130   2.837   8.992  0.4924 -0.6619 -0.1944
 4934TIP3    H138997   0.138   2.751   8.952  0.0159 -0.4107 -0.8530
 4934TIP3    H238998   0.176   2.896   8.932 -0.9147 -0.1571 -0.8050
 4935TIP3   OH238999   3.136   4.998   9.972 -0.1853  0.5736  0.6967
 4935TIP3    H139000   3.092   5.058   9.911 -2.2161 -0.1928  1.3326
 4935TIP3    H239001   3.121   5.037  10.058  2.1949  1.3613  0.8204
 4936TIP3   OH239002   0.671   2.250  10.092  0.0437 -0.0918  0.8033
 4936TIP3    H139003   0.613   2.324  10.075  2.9694  2.0374 -0.7852
 4936TIP3    H239004   0.630   2.176  10.047 -1.8555  1.0790  0.5203
 4937TIP3   OH239005   3.875   4.281   9.532  1.0333  0.0291 -0.3547
 4937TIP3    H139006   3.924   4.267   9.613  1.5016 -0.1123 -0.6606
 4937TIP3    H239007   3.930   4.339   9.480  2.2636 -2.3442 -1.8974
 4938TIP3   OH239008   1.636   6.461  12.105  0.0218  0.5319  0.0727
 4938TIP3    H139009   1.569   6.426  12.046 -0.5137  1.9942 -0.2352
 4938TIP3    H239010   1.597   6.454  12.192  0.2697 -0.3958  0.1198
 4939TIP3   OH239011   3.453   6.596  10.931  0.4728  0.0725 -0.2271
 4939TIP3    H139012   3.499   6.679  10.918 -0.3056  1.2189  3.3284
 4939TIP3    H239013   3.459   6.580  11.025 -3.7473 -1.2327  0.0187
 4940TIP3   OH239014   5.432   2.601  11.411 -0.2661  0.4951  0.2353
 4940TIP3    H139015   5.505   2.601  11.350 -0.3583  0.6577  0.1227
 4940TIP3    H239016   5.466   2.643  11.490 -0.5443  1.5533 -0.1949
 4941TIP3   OH239017   4.547   6.273   9.298 -0.2155  0.2923  0.4126
 4941TIP3    H139018   4.629   6.225   9.301  0.2808  1.0593 -0.4640
 4941TIP3    H239019   4.552   6.335   9.370  0.8857  1.7280 -0.8399
 4942TIP3   OH239020   6.616   2.804  11.638 -0.1594 -0.0809  0.0136
 4942TIP3    H139021   6.600   2.734  11.575 -1.9687 -2.5103  2.8984
 4942TIP3    H239022   6.704   2.836  11.618 -0.0429 -1.7966 -2.6410
 4943TIP3   OH239023   5.828   2.386  10.003  0.6168 -0.0870  0.0594
 4943TIP3    H139024   5.892   2.421   9.941  0.0865  2.1035  0.6947
 4943TIP3    H239025   5.882   2.347  10.073  1.2092 -1.3281 -1.0328
 4944TIP3   OH239026   6.129   5.708  10.687 -0.5146  0.0834 -0.2641
 4944TIP3    H139027   6.143   5.789  10.638 -0.5544  0.4363  0.2948
 4944TIP3    H239028   6.049   5.725  10.738 -0.2861 -0.1483  0.1731
 4945TIP3   OH239029   6.473   6.722  10.778  0.1310 -0.1537 -0.0072
 4945TIP3    H139030   6.493   6.681  10.694  0.5443  1.8725 -0.9452
 4945TIP3    H239031   6.458   6.814  10.758  0.6893  0.4992  2.1993
 4946TIP3   OH239032   4.949   4.506  10.004 -0.0984  0.3321  0.7723
 4946TIP3    H139033   4.888   4.516  10.077 -2.0315  2.1486 -0.9586
 4946TIP3    H239034   4.947   4.412   9.985 -0.5543  0.0132  2.2168
 4947TIP3   OH239035   5.964   2.081  11.365  0.0054 -0.2577  0.1290
 4947TIP3    H139036   5.902   2.069  11.437  0.1280  2.0159  0.7116
 4947TIP3    H239037   5.939   2.165  11.326  1.1096 -0.5547 -1.3005
 4948TIP3   OH239038   2.956   5.759  10.102  0.1003  0.0899 -0.4361
 4948TIP3    H139039   3.047   5.787  10.094  0.2594 -0.8779 -2.4246
 4948TIP3    H239040   2.913   5.833  10.145  1.7499  0.6561  0.3537
 4949TIP3   OH239041   0.444   1.249  11.078 -0.7387  0.4499 -0.3960
 4949TIP3    H139042   0.443   1.213  10.989  0.3460  1.5863 -0.8977
 4949TIP3    H239043   0.532   1.288  11.087 -1.5420  2.1708  0.4257
 4950TIP3   OH239044   1.865   3.443  10.736  0.2682  0.5016  0.3038
 4950TIP3    H139045   1.872   3.434  10.831 -0.4917  0.9373  0.4130
 4950TIP3    H239046   1.946   3.405  10.702 -0.5085 -1.9826  0.9867
 4951TIP3   OH239047   3.047   3.968   9.364 -0.1095  0.1884  0.3246
 4951TIP3    H139048   3.058   3.887   9.314 -0.1491  0.9076 -0.8872
 4951TIP3    H239049   2.953   3.988   9.356 -0.1487  0.2111  0.8430
 4952TIP3   OH239050   1.444   2.700   9.427  0.6266 -0.5759 -0.4104
 4952TIP3    H139051   1.405   2.623   9.386  1.2808 -1.3159  0.3037
 4952TIP3    H239052   1.373   2.738   9.479  0.6691 -1.5557  0.3939
 4953TIP3   OH239053   1.254   2.112  11.120  0.7353  0.2992  0.0862
 4953TIP3    H139054   1.170   2.117  11.166  1.2743 -1.9237  1.4759
 4953TIP3    H239055   1.262   2.197  11.077 -1.1031  1.4983  1.8822
 4954TIP3   OH239056   5.666   0.492   8.491  0.1854  0.6110  0.4767
 4954TIP3    H139057   5.589   0.534   8.531 -0.5259 -0.9122  0.7752
 4954TIP3    H239058   5.736   0.557   8.501 -0.6527  1.3832  1.7014
 4955TIP3   OH239059   0.504   4.394   9.213  0.7424 -0.2407 -0.0761
 4955TIP3    H139060   0.414   4.405   9.181  0.9142 -1.3648 -1.0312
 4955TIP3    H239061   0.518   4.468   9.271 -0.7999 -0.0287  0.0745
 4956TIP3   OH239062   1.541   5.733  10.105 -0.0568  0.8946 -0.3355
 4956TIP3    H139063   1.468   5.794  10.091 -0.4563  0.4426 -0.2649
 4956TIP3    H239064   1.499   5.646  10.105  0.1757  0.7370  1.7441
 4957TIP3   OH239065   4.770   2.247   9.512  0.0548 -0.0000 -0.8349
 4957TIP3    H139066   4.847   2.189   9.509 -0.3965 -0.6365 -0.3027
 4957TIP3    H239067   4.800   2.324   9.561 -0.6388 -1.8086  2.6702
 4958TIP3   OH239068   3.513   5.978  11.666 -0.3195  0.1039 -0.2707
 4958TIP3    H139069   3.471   5.892  11.664 -1.3289  0.6055 -1.4603
 4958TIP3    H239070   3.442   6.040  11.650  0.7915  0.9994 -1.9167
 4959TIP3   OH239071   2.773   4.862  10.114 -0.0448  0.3027  0.0336
 4959TIP3    H139072   2.788   4.768  10.099 -1.8458  0.0845 -0.5860
 4959TIP3    H239073   2.717   4.864  10.192 -0.7160  0.8110 -0.4576
 4960TIP3   OH239074   5.301   5.957  11.269 -0.4792  0.5124 -0.1051
 4960TIP3    H139075   5.216   5.933  11.306 -0.7583  1.7413  0.0964
 4960TIP3    H239076   5.308   5.907  11.188  0.3319 -2.6027  1.7300
 4961TIP3   OH239077   2.934   5.031   8.853  0.5291 -0.3194 -0.3150
 4961TIP3    H139078   2.989   4.987   8.918  0.3692  0.4300  0.3458
 4961TIP3    H239079   2.899   5.107   8.899  0.8483  0.5332 -1.4481
 4962TIP3   OH239080   4.016   2.450  10.966 -0.3573  0.4140  0.1127
 4962TIP3    H139081   3.955   2.456  11.039  0.4717 -0.9653  0.9509
 4962TIP3    H239082   4.046   2.540  10.953 -0.8615  0.7481  1.1713
 4963TIP3   OH239083   5.056   5.919  11.384 -0.0268 -0.7152 -0.4815
 4963TIP3    H139084   5.068   6.007  11.419  1.8612 -0.2372 -2.1290
 4963TIP3    H239085   4.987   5.881  11.437 -0.2760  1.4449  0.8523
 4964TIP3   OH239086   2.315   6.762   8.232  0.5565  0.6191 -0.5807
 4964TIP3    H139087   2.293   6.735   8.322 -0.3035  0.2990 -0.8790
 4964TIP3    H239088   2.259   6.709   8.177  3.0200 -1.2363 -1.4886
 4965TIP3   OH239089   4.988   5.014  11.746 -0.2569  0.0837 -0.1140
 4965TIP3    H139090   4.960   5.046  11.660 -0.5129  0.2318  0.0243
 4965TIP3    H239091   5.055   4.948  11.726  0.7935  1.1832 -0.3834
 4966TIP3   OH239092   1.483   5.040  10.893  0.2815  0.4471  0.1717
 4966TIP3    H139093   1.516   5.051  10.803  1.1365 -0.1300  0.4037
 4966TIP3    H239094   1.391   5.065  10.887  0.2240  0.0634 -0.9568
 4967TIP3   OH239095   5.838   1.464  11.841  0.2567  0.4939 -0.0850
 4967TIP3    H139096   5.922   1.489  11.803 -0.1891 -1.5207 -2.7358
 4967TIP3    H239097   5.856   1.380  11.885 -0.3726 -0.0754 -0.8836
 4968TIP3   OH239098   4.081   3.759  11.753 -0.6549 -0.3579  0.1036
 4968TIP3    H139099   4.021   3.833  11.742  0.4061  0.6575  1.0195
 4968TIP3    H239100   4.024   3.687  11.781 -1.5683  0.3654  0.1622
 4969TIP3   OH239101   2.389   3.647  11.836  0.2342 -0.3390  0.0382
 4969TIP3    H139102   2.462   3.708  11.851 -0.1564  0.4973 -1.2889
 4969TIP3    H239103   2.330   3.694  11.777  0.5912 -2.4656 -2.1985
 4970TIP3   OH239104   2.601   1.778  11.382  0.0696  0.0313 -0.2754
 4970TIP3    H139105   2.551   1.860  11.380 -0.7018 -0.4397 -0.4483
 4970TIP3    H239106   2.536   1.710  11.399  0.7055 -0.5501 -0.1297
 4971TIP3   OH239107   2.286   1.737  11.790  0.5549 -0.7013  0.1630
 4971TIP3    H139108   2.249   1.720  11.703  1.5899  0.2346 -0.4936
 4971TIP3    H239109   2.253   1.824  11.813  1.6686 -0.1755 -0.1085
 4972TIP3   OH239110   6.318   4.403  10.720  0.0291  0.3758 -0.0982
 4972TIP3    H139111   6.373   4.482  10.724 -1.6036  1.6496 -1.2627
 4972TIP3    H239112   6.230   4.435  10.738 -1.0211 -0.7474 -2.7773
 4973TIP3   OH239113   0.494   0.232  11.117  0.6495  0.0212 -0.0499
 4973TIP3    H139114   0.581   0.192  11.112  1.0092  0.8565 -0.9093
 4973TIP3    H239115   0.507   0.310  11.170  1.0917  1.6707 -2.4120
 4974TIP3   OH239116   1.094   1.494   9.167 -0.5594  0.0245 -0.5703
 4974TIP3    H139117   1.090   1.533   9.079 -0.7615  2.7675  0.5551
 4974TIP3    H239118   1.026   1.539   9.217 -0.3592 -1.3800  1.0597
 4975TIP3   OH239119   4.988   3.031   9.805  0.1534 -0.2641 -0.3879
 4975TIP3    H139120   4.972   3.037   9.899 -3.4365  0.3579 -0.9111
 4975TIP3    H239121   4.943   3.106   9.767  1.2384 -0.6570 -2.6652
 4976TIP3   OH239122   0.147   2.061   9.896 -0.2494 -0.2556  0.4012
 4976TIP3    H139123   0.210   1.990   9.879 -1.8793 -1.3196 -1.6134
 4976TIP3    H239124   0.186   2.110   9.968  0.7750 -3.4347  2.2203
 4977TIP3   OH239125   3.728   0.423   9.516  0.4673 -0.3473  0.1204
 4977TIP3    H139126   3.754   0.425   9.424 -2.8970  0.8680 -0.9580
 4977TIP3    H239127   3.810   0.428   9.564  2.3574 -0.9069 -2.7927
 4978TIP3   OH239128   3.704   5.319  10.890 -1.2843 -0.2425  0.1708
 4978TIP3    H139129   3.701   5.240  10.943  2.4606 -1.8037 -1.5895
 4978TIP3    H239130   3.623   5.319  10.840 -3.5576 -0.2721  3.5366
 4979TIP3   OH239131   0.304   1.485   9.590 -0.1439  0.2239  0.4405
 4979TIP3    H139132   0.232   1.531   9.632 -0.7040 -0.4610  0.2707
 4979TIP3    H239133   0.314   1.405   9.641  0.1277  0.0605  0.1369
 4980TIP3   OH239134   3.387   3.630   9.732 -0.3325  0.2054 -0.8605
 4980TIP3    H139135   3.296   3.660   9.731 -0.2651  0.4125 -0.7390
 4980TIP3    H239136   3.412   3.630   9.824 -0.2562  0.0034 -0.8798
 4981TIP3   OH239137   3.485   4.107  10.608 -0.4174 -0.1921  0.5871
 4981TIP3    H139138   3.439   4.172  10.555  1.4501  1.8618  1.2876
 4981TIP3    H239139   3.416   4.050  10.642 -1.8963 -0.1170 -2.0323
 4982TIP3   OH239140   5.802   3.346  10.614 -0.1790  0.0196  0.3672
 4982TIP3    H139141   5.709   3.357  10.636 -0.0257  1.3458  0.4142
 4982TIP3    H239142   5.802   3.316  10.524 -0.6507  0.3319  0.2589
 4983TIP3   OH239143   1.061   1.600  10.233 -0.0078  0.1588  0.9701
 4983TIP3    H139144   1.030   1.684  10.267  0.6496  0.4075  0.9800
 4983TIP3    H239145   0.991   1.538  10.254 -1.0838  0.9442 -0.1809
 4984TIP3   OH239146   2.439   0.077   8.830 -0.2913  0.0451  0.3239
 4984TIP3    H139147   2.532   0.051   8.825 -0.5862 -0.8101 -1.6903
 4984TIP3    H239148   2.392   0.001   8.797 -1.6771  0.7804  0.5573
 4985TIP3   OH239149   6.837   5.374   9.605  0.2404 -0.2483 -0.0090
 4985TIP3    H139150   6.877   5.460   9.622 -1.6982  1.2179 -2.2226
 4985TIP3    H239151   6.827   5.335   9.692  3.0406  0.8079  0.9156
 4986TIP3   OH239152   4.280   3.964  11.687 -0.2047  0.0249 -0.2110
 4986TIP3    H139153   4.222   3.896  11.720  0.4543 -0.5100 -0.1282
 4986TIP3    H239154   4.365   3.943  11.726  0.0273  0.8406 -0.2599
 4987TIP3   OH239155   1.934   5.712   8.590 -0.0238  0.1988  0.5055
 4987TIP3    H139156   1.858   5.758   8.627 -1.2990 -1.6494  0.2983
 4987TIP3    H239157   1.933   5.738   8.498 -1.0210 -0.5500  0.2829
 4988TIP3   OH239158   6.795   1.971  10.219  0.6466  0.2738  0.1295
 4988TIP3    H139159   6.762   2.017  10.142  0.1192 -0.3003  0.0073
 4988TIP3    H239160   6.722   1.973  10.281  0.6242 -0.3657  0.1328
 4989TIP3   OH239161   2.511   2.705  10.804 -0.3910  0.2693  0.3444
 4989TIP3    H139162   2.554   2.662  10.730 -0.8887  0.6291 -0.1644
 4989TIP3    H239163   2.559   2.674  10.881  1.1106  1.0413 -0.2292
 4990TIP3   OH239164   6.683   6.451  10.093 -0.7438  0.2911 -0.5061
 4990TIP3    H139165   6.713   6.420  10.179 -0.8942  0.0413 -0.5422
 4990TIP3    H239166   6.668   6.370  10.043  0.9021  0.4286 -1.3039
 4991TIP3   OH239167   3.022   4.317   8.655  0.3690  0.3010 -0.8096
 4991TIP3    H139168   2.974   4.368   8.721 -0.3803 -2.3562  0.8452
 4991TIP3    H239169   3.112   4.315   8.687 -0.0017 -1.0159  0.2365
 4992TIP3   OH239170   2.111   6.517  10.749  0.4117  0.2630 -0.0683
 4992TIP3    H139171   2.187   6.570  10.774  1.0950 -0.4612 -0.5592
 4992TIP3    H239172   2.045   6.580  10.724  0.4856  0.9499  1.3640
 4993TIP3   OH239173   4.997   4.549   9.060  0.4287  0.5150  0.4734
 4993TIP3    H139174   5.013   4.456   9.050  1.5289  0.6904  0.4643
 4993TIP3    H239175   4.933   4.570   8.992 -1.8179 -0.6826  2.1062
 4994TIP3   OH239176   1.431   0.551   9.485  0.6369 -0.0274  0.1517
 4994TIP3    H139177   1.442   0.646   9.476 -1.9035  0.4491  1.1203
 4994TIP3    H239178   1.338   0.536   9.468  0.8840 -2.3020  0.4668
 4995TIP3   OH239179   2.077   0.019  10.306 -0.3915  0.3802  0.1373
 4995TIP3    H139180   2.101   0.072  10.230 -0.6160 -0.0735 -0.2576
 4995TIP3    H239181   2.156  -0.033  10.324 -0.3646  0.4285  0.1565
 4996TIP3   OH239182   2.774   1.763   9.509  0.3117  0.6291 -0.9937
 4996TIP3    H139183   2.859   1.761   9.553  0.5047 -0.3132 -1.3909
 4996TIP3    H239184   2.786   1.708   9.431 -0.6499  0.5200 -1.0732
 4997TIP3   OH239185   3.023   1.715  11.359 -0.2819  0.8811 -0.3932
 4997TIP3    H139186   3.080   1.650  11.318  0.5824  0.8034  0.8591
 4997TIP3    H239187   2.953   1.664  11.399  0.7200  0.6014  1.1129
 4998TIP3   OH239188   6.496   4.220   9.186 -0.3275 -0.5065 -0.2699
 4998TIP3    H139189   6.475   4.194   9.096  0.6166 -0.9710 -0.3705
 4998TIP3    H239190   6.558   4.154   9.216 -0.0706  0.0587  0.4730
 4999TIP3   OH239191   2.145   0.188  10.102  0.4061 -0.2384 -0.0182
 4999TIP3    H139192   2.241   0.191  10.101  0.4305  2.1066  1.1583
 4999TIP3    H239193   2.120   0.260  10.160 -2.0862 -0.8215 -0.2604
 5000TIP3   OH239194   1.158   5.822  10.883 -0.2436  0.4567  0.8264
 5000TIP3    H139195   1.216   5.746  10.890 -0.8155  0.0618  1.3323
 5000TIP3    H239196   1.125   5.836  10.972 -1.4369  0.2612  0.4304
 5001TIP3   OH239197   1.633   5.940  10.250  0.6159 -0.4943 -0.2834
 5001TIP3    H139198   1.717   5.978  10.225  1.5712 -2.0069  0.4374
 5001TIP3    H239199   1.626   5.861  10.197 -0.6645 -0.0833 -0.7692
 5002TIP3   OH239200   3.948   0.211  11.917 -0.3747  0.1047 -0.7145
 5002TIP3    H139201   4.041   0.191  11.926 -0.4261  0.1939  0.2083
 5002TIP3    H239202   3.905   0.147  11.975 -1.0258 -0.9410 -2.2854
 5003TIP3   OH239203   2.714   0.857  10.366  0.0758 -0.6004  0.4458
 5003TIP3    H139204   2.798   0.863  10.412  0.4005  0.6312 -0.2546
 5003TIP3    H239205   2.678   0.945  10.371 -1.2829 -1.1686  0.9106
 5004TIP3   OH239206   4.108   0.402   9.545 -0.0683  0.4583 -0.4520
 5004TIP3    H139207   4.190   0.420   9.498  2.4249 -1.8558  2.5900
 5004TIP3    H239208   4.131   0.409   9.637 -3.5919  0.5504  0.5518
 5005TIP3   OH239209   6.305   6.419  10.670  0.3787 -0.8764 -0.1268
 5005TIP3    H139210   6.329   6.380  10.754 -0.1839 -3.4730 -1.0838
 5005TIP3    H239211   6.238   6.484  10.692  1.8016  0.0952  1.6056
 5006TIP3   OH239212   2.371   5.716  10.344 -0.5852 -0.3129  0.1873
 5006TIP3    H139213   2.348   5.638  10.394  0.7002 -1.0339 -0.2949
 5006TIP3    H239214   2.402   5.682  10.260 -2.9358  0.8655 -1.2574
 5007TIP3   OH239215   3.175   0.555  10.531  0.4730  0.4082 -0.1449
 5007TIP3    H139216   3.206   0.644  10.545  0.3976  0.4146 -0.0102
 5007TIP3    H239217   3.232   0.519  10.463  0.5952  0.5121 -0.0983
 5008TIP3   OH239218   4.981   1.640   9.688  0.0228  0.3809  0.0411
 5008TIP3    H139219   4.954   1.709   9.748 -2.5210  0.1181 -0.6859
 5008TIP3    H239220   5.052   1.595   9.733  0.4330  2.2539  1.3535
 5009TIP3   OH239221   3.770   2.746  11.158  0.1700 -0.2255  0.2776
 5009TIP3    H139222   3.703   2.684  11.130  0.4995 -0.8681  0.8720
 5009TIP3    H239223   3.772   2.737  11.254 -0.7449  1.7126  0.5291
 5010TIP3   OH239224   6.681   2.908  10.916  0.1608  0.6015 -0.3094
 5010TIP3    H139225   6.681   2.994  10.875  0.0993  0.0313 -1.5732
 5010TIP3    H239226   6.770   2.897  10.949  0.1563  1.1575 -0.1104
 5011TIP3   OH239227   5.100   1.534   8.428 -0.6654 -0.0259 -0.2075
 5011TIP3    H139228   5.187   1.520   8.391 -0.7550  0.5125 -0.6326
 5011TIP3    H239229   5.114   1.591   8.503 -0.2385 -2.6038  1.8254
 5012TIP3   OH239230   3.850   6.828  11.247  0.7430  0.2226  0.1073
 5012TIP3    H139231   3.905   6.832  11.170 -0.0227 -0.2570 -0.4750
 5012TIP3    H239232   3.811   6.741  11.246 -1.3467  1.0748 -0.4595
 5013TIP3   OH239233   3.971   6.187   9.438  0.1256  0.2284  0.1064
 5013TIP3    H139234   3.946   6.270   9.396 -1.5386 -0.8552 -1.1698
 5013TIP3    H239235   3.890   6.138   9.444  1.0230 -1.1903  1.1750
 5014TIP3   OH239236   4.108   3.246   9.021 -0.3385  0.3865 -0.0910
 5014TIP3    H139237   4.153   3.168   9.053 -2.5808  0.1177  2.8362
 5014TIP3    H239238   4.064   3.217   8.941  1.4070 -0.3777 -0.8356
 5015TIP3   OH239239   5.409   1.717   9.040  0.3734 -0.4487  0.3263
 5015TIP3    H139240   5.425   1.706   8.946  1.6983 -1.2847  0.6124
 5015TIP3    H239241   5.462   1.792   9.065 -1.0874  0.6831  0.1820
 5016TIP3   OH239242   2.327   5.814  11.576  0.3224 -1.0594 -0.3458
 5016TIP3    H139243   2.268   5.877  11.535  0.3216  0.0480  1.2762
 5016TIP3    H239244   2.414   5.852  11.563  0.3592 -0.9327  0.2356
 5017TIP3   OH239245   0.678   3.748   9.799 -0.8954 -0.5717 -0.1146
 5017TIP3    H139246   0.715   3.790   9.720  1.6228 -0.2464  1.1149
 5017TIP3    H239247   0.689   3.654   9.784 -1.7919 -0.5848 -0.7437
 5018TIP3   OH239248   6.336   3.946   9.475 -0.4696  0.1045 -0.4325
 5018TIP3    H139249   6.358   3.874   9.533  0.1641  1.2551  0.8266
 5018TIP3    H239250   6.419   3.967   9.430 -0.4395  0.5802 -0.1614
 5019TIP3   OH239251   6.447   2.791   8.667 -0.4205 -0.3021 -0.2844
 5019TIP3    H139252   6.419   2.856   8.602  1.7815 -0.6039 -1.6333
 5019TIP3    H239253   6.534   2.819   8.694 -2.0118  1.0220  4.3281
 5020TIP3   OH239254   1.611   1.659   8.978  0.3887 -0.0901  0.2228
 5020TIP3    H139255   1.626   1.726   8.910  0.2409  0.8645  1.1154
 5020TIP3    H239256   1.568   1.706   9.049  1.9995 -0.6947  1.6700
 5021TIP3   OH239257   3.723   6.179  10.741  0.1813  0.1710  0.5640
 5021TIP3    H139258   3.669   6.255  10.761  0.6286  1.0667 -1.3543
 5021TIP3    H239259   3.669   6.126  10.683  1.1548  0.9026 -1.0930
 5022TIP3   OH239260   1.332   6.690   8.473  0.0477  0.0942 -0.2726
 5022TIP3    H139261   1.376   6.744   8.539  1.2686 -0.7905 -0.3341
 5022TIP3    H239262   1.339   6.741   8.392 -0.4610  0.6710  0.0377
 5023TIP3   OH239263   2.727   0.806  10.112 -0.1410 -0.1179  0.1714
 5023TIP3    H139264   2.713   0.898  10.091  0.9771  0.1340  0.4690
 5023TIP3    H239265   2.708   0.799  10.206 -2.6322 -0.7239 -0.3048
 5024TIP3   OH239266   4.584   0.221   9.914 -0.1977 -0.6933 -0.0565
 5024TIP3    H139267   4.612   0.136   9.948  0.7233 -0.3878 -0.0163
 5024TIP3    H239268   4.542   0.200   9.830  0.6258 -1.1436 -0.3747
 5025TIP3   OH239269   6.088   0.953   9.630  0.5357 -0.6498 -0.1742
 5025TIP3    H139270   6.012   0.912   9.589  0.7432 -0.9840 -0.2237
 5025TIP3    H239271   6.141   0.985   9.556  0.0182  0.3559 -0.1207
 5026TIP3   OH239272   4.620   6.081   9.686  0.6254  0.3154  0.5688
 5026TIP3    H139273   4.635   6.112   9.597 -0.0195 -1.1033 -0.0549
 5026TIP3    H239274   4.700   6.032   9.708  0.3415 -0.2650  0.3388
 5027TIP3   OH239275   0.658   5.334  11.255  0.0723  0.5425 -0.4631
 5027TIP3    H139276   0.564   5.344  11.235 -0.0299  0.6247  0.0543
 5027TIP3    H239277   0.661   5.276  11.331  0.4661  0.1990 -0.7386
 5028TIP3   OH239278   2.064   5.510   9.237 -0.4892  0.2651  0.5285
 5028TIP3    H139279   2.078   5.603   9.250  2.0948 -0.1400  1.2229
 5028TIP3    H239280   2.101   5.491   9.151 -0.1738 -0.2697  0.7749
 5029TIP3   OH239281   0.954   0.202  10.963 -0.1754 -0.2058 -0.0857
 5029TIP3    H139282   0.991   0.240  11.042 -1.3427 -1.9842  1.4200
 5029TIP3    H239283   0.865   0.239  10.958 -0.3301 -0.5830 -0.1780
 5030TIP3   OH239284   0.251   4.266   8.505  0.3552  0.0882 -0.1744
 5030TIP3    H139285   0.287   4.353   8.487 -0.0500  0.4320  0.6051
 5030TIP3    H239286   0.166   4.265   8.462 -0.2176  0.5771  0.9066
 5031TIP3   OH239287   0.152   6.398  11.676 -0.1845 -0.4218  0.1452
 5031TIP3    H139288   0.176   6.376  11.586 -1.3522 -1.6739  0.1075
 5031TIP3    H239289   0.144   6.314  11.720 -2.6689 -0.0328  0.5888
 5032TIP3   OH239290   4.313   5.041  10.376 -0.3008 -0.1710 -0.2356
 5032TIP3    H139291   4.239   4.983  10.360  0.1961 -0.4385 -1.7431
 5032TIP3    H239292   4.274   5.120  10.413 -1.6239  0.3919 -2.5788
 5033TIP3   OH239293   0.293   2.661  11.305  0.5489  0.3726 -0.1658
 5033TIP3    H139294   0.318   2.681  11.215  1.9815 -5.7379 -1.5979
 5033TIP3    H239295   0.200   2.640  11.299  0.4511  0.7422  0.0128
 5034TIP3   OH239296   3.836   0.988  11.321 -0.2218 -0.7652 -0.0178
 5034TIP3    H139297   3.792   1.027  11.396 -0.5450 -0.4414 -0.3745
 5034TIP3    H239298   3.809   1.041  11.246 -0.0049 -1.1612 -0.3837
 5035TIP3   OH239299   2.293   0.572  10.479  0.2519  0.1511 -0.4850
 5035TIP3    H139300   2.270   0.520  10.557 -0.8672 -0.3611 -1.1342
 5035TIP3    H239301   2.384   0.598  10.494  0.0554  0.0827  1.0077
 5036TIP3   OH239302   0.149   1.009   9.850 -0.5947  0.4767 -0.1961
 5036TIP3    H139303   0.101   0.954   9.788 -1.1242  1.9577 -1.1277
 5036TIP3    H239304   0.238   1.015   9.814  0.5185 -2.4688  1.6555
 5037TIP3   OH239305   1.638   2.286   9.797  0.0139  0.1005  0.1952
 5037TIP3    H139306   1.548   2.306   9.825 -0.3971 -1.7772  0.3606
 5037TIP3    H239307   1.632   2.278   9.701  0.5162  2.2161 -0.0561
 5038TIP3   OH239308   2.939   6.433  11.855  0.1448 -0.4426  0.6871
 5038TIP3    H139309   2.893   6.365  11.807  0.5099 -0.6255  0.5913
 5038TIP3    H239310   2.968   6.390  11.935  3.2800 -1.4005 -0.8049
 5039TIP3   OH239311   1.177   6.439  10.979  0.0242 -0.2301  0.5148
 5039TIP3    H139312   1.224   6.516  11.010 -1.3213  0.2707  1.4145
 5039TIP3    H239313   1.245   6.374  10.963  0.9899  0.3202  2.1614
 5040TIP3   OH239314   3.633   2.940  11.447  0.5539 -0.0387 -0.0500
 5040TIP3    H139315   3.652   2.847  11.442  0.7562 -0.0267  0.4444
 5040TIP3    H239316   3.587   2.959  11.365  0.8585 -0.4853 -0.3320
 5041TIP3   OH239317   5.892   6.037   9.828 -0.2636 -0.1471  0.1169
 5041TIP3    H139318   5.869   5.952   9.865  1.5303 -0.8384 -0.2720
 5041TIP3    H239319   5.878   6.099   9.900  0.2705 -1.0359  1.0026
 5042TIP3   OH239320   3.731   4.269   7.868 -0.6969  0.2494  0.2403
 5042TIP3    H139321   3.719   4.213   7.945  0.5904  2.5652  2.2749
 5042TIP3    H239322   3.689   4.351   7.892 -0.9494  0.7960 -1.9077
 5043TIP3   OH239323   3.310   6.317   8.247 -0.3948 -0.2733  0.2857
 5043TIP3    H139324   3.358   6.240   8.215 -0.2036 -0.2745  0.5704
 5043TIP3    H239325   3.220   6.302   8.220 -0.7883 -1.6366  2.1265
 5044TIP3   OH239326   0.693   1.687  11.523 -0.0328 -0.1877  0.2475
 5044TIP3    H139327   0.712   1.690  11.616  0.0830  0.3078  0.2117
 5044TIP3    H239328   0.769   1.642  11.485  0.4162  0.5418  0.2709
 5045TIP3   OH239329   6.324   2.888   9.241  0.8290  0.0598  0.0639
 5045TIP3    H139330   6.411   2.898   9.280  0.5684  2.1949  0.1865
 5045TIP3    H239331   6.299   2.798   9.262  2.5247 -0.2310  1.0108
 5046TIP3   OH239332   0.222   5.836  10.942 -0.4282  0.2413 -0.1630
 5046TIP3    H139333   0.137   5.797  10.962 -0.5753  0.7176  0.1686
 5046TIP3    H239334   0.257   5.783  10.871 -1.4651  0.6658 -1.0242
 5047TIP3   OH239335   1.331   3.162  11.804  0.1781  0.2488 -0.1330
 5047TIP3    H139336   1.423   3.142  11.816 -0.5482 -3.5775  0.3555
 5047TIP3    H239337   1.301   3.190  11.890  0.4176 -1.0114  0.3820
 5048TIP3   OH239338   4.845   3.374  10.954 -0.6407  0.1095  0.1226
 5048TIP3    H139339   4.832   3.316  10.879 -1.2757  1.0818 -0.5432
 5048TIP3    H239340   4.918   3.335  11.002  0.2622 -0.1422 -1.3850
 5049TIP3   OH239341   3.341   5.359   9.493  0.0607  0.3624 -0.3521
 5049TIP3    H139342   3.306   5.407   9.418 -1.4602 -0.4952 -0.2338
 5049TIP3    H239343   3.302   5.403   9.569  0.6402  0.4765 -0.1168
 5050TIP3   OH239344   1.432   5.030  10.599 -0.1382  0.5738  0.1524
 5050TIP3    H139345   1.351   5.077  10.582 -0.1806  0.8174  0.9994
 5050TIP3    H239346   1.501   5.089  10.568 -0.2868  0.2236 -0.8824
 5051TIP3   OH239347   3.950   5.774   8.405  0.4779 -0.0534 -0.1563
 5051TIP3    H139348   4.026   5.824   8.373  0.6509 -0.4224 -0.3293
 5051TIP3    H239349   3.927   5.718   8.331 -0.8797  1.0882 -0.6440
 5052TIP3   OH239350   4.789   3.477   9.459 -0.0537  0.1244 -0.2463
 5052TIP3    H139351   4.782   3.572   9.468  0.0939  0.2306 -1.1782
 5052TIP3    H239352   4.773   3.460   9.366  1.4961 -0.6177 -0.4002
 5053TIP3   OH239353   0.156   3.623  10.285  0.0954  0.3327 -0.4528
 5053TIP3    H139354   0.078   3.677  10.282  0.9700  1.6203 -0.9510
 5053TIP3    H239355   0.124   3.535  10.305 -1.2875  1.1867  1.3332
 5054TIP3   OH239356   4.565   6.091   9.952 -0.2174 -0.2393 -0.2888
 5054TIP3    H139357   4.486   6.037   9.949 -0.3147 -0.0655 -1.1974
 5054TIP3    H239358   4.577   6.121   9.862 -0.2332  1.3604  0.2103
 5055TIP3   OH239359   0.892   5.750   9.234 -0.2617 -0.0751 -0.1764
 5055TIP3    H139360   0.919   5.712   9.151 -0.3303 -0.8081  0.1271
 5055TIP3    H239361   0.966   5.804   9.262  0.5736 -1.3810  0.2305
 5056TIP3   OH239362   1.856   0.786  11.084  0.0848 -0.5092  0.6454
 5056TIP3    H139363   1.944   0.760  11.056 -0.2946  0.1433 -1.3049
 5056TIP3    H239364   1.871   0.853  11.152  1.1308  0.3382 -0.3833
 5057TIP3   OH239365   1.567   3.373  10.602 -0.8598  0.4285  0.5086
 5057TIP3    H139366   1.550   3.356  10.694  1.4417  1.4246  1.1773
 5057TIP3    H239367   1.600   3.462  10.599  2.2474 -0.6310 -0.7870
 5058TIP3   OH239368   2.395   0.739   9.676  0.1242  0.3208  0.2806
 5058TIP3    H139369   2.440   0.693   9.747 -0.3267 -0.2554  0.2014
 5058TIP3    H239370   2.356   0.670   9.624  0.0903  0.7638 -0.2911
 5059TIP3   OH239371   6.074   1.693   9.967  0.1573 -0.4197  0.3740
 5059TIP3    H139372   5.992   1.665   9.926  0.4261 -1.0900  0.2957
 5059TIP3    H239373   6.126   1.729   9.894 -0.4782  1.0132  0.5866
 5060TIP3   OH239374   2.087   5.318  11.442 -0.7435  0.7028  0.3561
 5060TIP3    H139375   2.155   5.277  11.495 -0.9631  0.8349  0.7432
 5060TIP3    H239376   2.006   5.275  11.469 -0.8086  0.4816 -0.1659
 5061TIP3   OH239377   6.542   3.753   8.556 -0.1967 -0.1926  0.1389
 5061TIP3    H139378   6.589   3.732   8.476 -1.4699  0.7468 -0.8919
 5061TIP3    H239379   6.492   3.832   8.535 -0.8690 -0.1608  1.7294
 5062TIP3   OH239380   0.251   6.276   9.389 -0.3383 -0.0866 -0.2125
 5062TIP3    H139381   0.214   6.259   9.476 -0.3512 -2.1990 -0.5662
 5062TIP3    H239382   0.176   6.272   9.330 -0.1236 -0.2127 -0.4798
 5063TIP3   OH239383   3.828   5.108   8.778 -0.3830  0.3153  0.2394
 5063TIP3    H139384   3.759   5.043   8.769 -1.0306  0.7576  1.7296
 5063TIP3    H239385   3.886   5.074   8.847 -0.4399  1.0517  0.6644
 5064TIP3   OH239386   6.003   5.705  11.740 -0.7243  0.1611  0.4383
 5064TIP3    H139387   6.019   5.612  11.720 -1.4021  0.1529 -0.1335
 5064TIP3    H239388   5.919   5.705  11.786 -0.3148  0.4170  1.1935
 5065TIP3   OH239389   6.805   4.111   9.866 -0.1112 -0.2059 -0.4513
 5065TIP3    H139390   6.795   4.130   9.772  0.8074 -0.5095 -0.6167
 5065TIP3    H239391   6.825   4.018   9.869  3.3310  0.4083 -0.2534
 5066TIP3   OH239392   3.019   0.010   9.936  0.2451 -0.2191  0.4085
 5066TIP3    H139393   3.072   0.014   9.856  0.3105 -1.1770  0.3950
 5066TIP3    H239394   3.081  -0.011  10.006  0.3926  1.7691  0.9458
 5067TIP3   OH239395   4.982   1.260   8.771  0.6027  0.2098  0.1096
 5067TIP3    H139396   5.030   1.293   8.695  1.4037  0.6192  0.7714
 5067TIP3    H239397   5.011   1.317   8.843 -0.2627 -0.0657  0.6836
 5068TIP3   OH239398   2.033   3.818   9.325  0.1312 -0.2169  0.1845
 5068TIP3    H139399   1.970   3.785   9.261  1.6107  0.0394 -1.4408
 5068TIP3    H239400   2.040   3.911   9.306 -0.5182  0.1880  1.7323
 5069TIP3   OH239401   0.411   3.424   9.930 -0.5874  0.1370  0.3967
 5069TIP3    H139402   0.328   3.465   9.906 -1.4647 -1.2699  0.9342
 5069TIP3    H239403   0.413   3.343   9.879 -0.5629 -0.8757  1.9576
 5070TIP3   OH239404   5.825   3.949  11.365 -0.1083  0.1539  0.1169
 5070TIP3    H139405   5.892   3.975  11.302  0.7060 -2.9841 -0.5257
 5070TIP3    H239406   5.742   3.963  11.318  0.2149  1.6676 -0.0502
 5071TIP3   OH239407   0.478   4.406  10.387  0.1452  0.3208  0.0510
 5071TIP3    H139408   0.408   4.470  10.378 -0.8157 -0.5306  1.2054
 5071TIP3    H239409   0.434   4.325  10.412  1.3831 -0.6670 -0.8559
 5072TIP3   OH239410   4.294   0.029  10.617  0.0040  0.3128 -0.1802
 5072TIP3    H139411   4.271   0.102  10.674 -1.2901  1.0234 -1.5471
 5072TIP3    H239412   4.334   0.070  10.540  0.4469 -0.5170 -0.4037
 5073TIP3   OH239413   4.606   4.498   9.570 -0.4327  0.3474 -0.3292
 5073TIP3    H139414   4.672   4.556   9.532 -0.7137  0.8937 -0.0024
 5073TIP3    H239415   4.608   4.519   9.664 -1.0400  0.3409 -0.3113
 5074TIP3   OH239416   3.492   2.489  10.384 -0.8888  0.4550  0.5990
 5074TIP3    H139417   3.526   2.574  10.412  1.0379 -0.4376  1.1849
 5074TIP3    H239418   3.498   2.434  10.463  1.2507 -1.1355 -0.5498
 5075TIP3   OH239419   5.385   3.909   8.974 -0.0715  0.2662  0.0286
 5075TIP3    H139420   5.469   3.863   8.974  0.0346  0.4451  0.6528
 5075TIP3    H239421   5.333   3.865   8.906  0.1036 -0.6496  0.4725
 5076TIP3   OH239422   2.360   2.383  10.065 -0.7197 -0.2802 -0.3219
 5076TIP3    H139423   2.306   2.441  10.011  0.4335  2.3329  1.1525
 5076TIP3    H239424   2.438   2.367  10.012 -0.1717  1.2044 -0.0090
 5077TIP3   OH239425   2.890   2.759  11.384  0.0808  0.1358 -0.9051
 5077TIP3    H139426   2.808   2.794  11.350 -0.4831 -2.2037 -2.1366
 5077TIP3    H239427   2.947   2.755  11.307  0.4354 -0.7332 -0.6086
 5078TIP3   OH239428   6.148   4.184  10.783 -0.2187  0.0434  0.3350
 5078TIP3    H139429   6.135   4.145  10.869 -0.8845 -1.5423 -0.4471
 5078TIP3    H239430   6.218   4.248  10.796 -1.4424  1.0848  2.4054
 5079TIP3   OH239431   0.560   0.362   9.392  0.3095  0.5263  0.3838
 5079TIP3    H139432   0.514   0.280   9.372 -0.4046  1.2085 -0.8735
 5079TIP3    H239433   0.516   0.428   9.339  1.4427  1.5805  0.7064
 5080TIP3   OH239434   4.373   2.080  11.108  0.5802  0.2148  0.0461
 5080TIP3    H139435   4.431   2.005  11.123 -2.1623 -2.4079 -1.2929
 5080TIP3    H239436   4.422   2.138  11.051  3.4009  0.3277  2.3715
 5081TIP3   OH239437   5.136   1.685   9.097  0.0431  0.1976  0.3876
 5081TIP3    H139438   5.221   1.689   9.053  0.4972  2.0810  1.3053
 5081TIP3    H239439   5.072   1.705   9.027  0.6151  1.5468  0.2154
 5082TIP3   OH239440   2.406   0.460  10.939 -0.5250  0.1703  0.0456
 5082TIP3    H139441   2.487   0.427  10.977 -1.4079 -1.1443  0.8569
 5082TIP3    H239442   2.401   0.551  10.968  0.2703  0.0302  0.6432
 5083TIP3   OH239443   4.707   4.968  10.491 -0.3418  0.0493 -0.0669
 5083TIP3    H139444   4.707   5.010  10.405  0.8928  1.0879  0.4002
 5083TIP3    H239445   4.702   4.874  10.472 -0.8931  0.3012 -1.2307
 5084TIP3   OH239446   1.975   0.019   9.969 -0.0595 -0.3829 -0.6922
 5084TIP3    H139447   2.035   0.070  10.023 -0.2589  0.0885 -0.9101
 5084TIP3    H239448   2.001   0.038   9.879 -0.0760 -0.7416 -0.7746
 5085TIP3   OH239449   1.276   3.204  10.917  0.0548 -0.2292 -0.0582
 5085TIP3    H139450   1.327   3.281  10.892  0.1793  0.1617  1.3435
 5085TIP3    H239451   1.341   3.141  10.949 -0.2316 -0.1708  0.6453
 5086TIP3   OH239452   5.748   1.698  11.594 -0.2554  0.0448 -0.0409
 5086TIP3    H139453   5.700   1.692  11.677 -0.5133  0.4622 -0.1584
 5086TIP3    H239454   5.689   1.658  11.530  0.1926 -0.8297  0.0714
 5087TIP3   OH239455   5.018   4.832  10.996 -0.1938 -0.8263  0.7501
 5087TIP3    H139456   4.954   4.897  11.026  0.9317 -0.1107  1.6603
 5087TIP3    H239457   4.983   4.802  10.912 -1.3292  0.1020  0.8579
 5088TIP3   OH239458   1.988   3.027   8.785 -0.4910 -0.8149  0.4175
 5088TIP3    H139459   1.998   3.113   8.745 -1.2020 -0.7907  0.2840
 5088TIP3    H239460   2.072   2.983   8.768 -0.4210 -0.4478 -0.2338
 5089TIP3   OH239461   0.870   1.314   9.418 -0.4347 -0.3000  0.3072
 5089TIP3    H139462   0.881   1.221   9.399 -0.7127 -0.8760  2.6245
 5089TIP3    H239463   0.933   1.331   9.488 -0.1233  1.3708 -0.3387
 5090TIP3   OH239464   4.267   3.363  10.096 -0.2539  0.4095 -0.4095
 5090TIP3    H139465   4.291   3.271  10.108 -2.8512 -0.1346  1.5954
 5090TIP3    H239466   4.222   3.364  10.011 -1.2379 -0.4467  0.0791
 5091TIP3   OH239467   0.622   1.987   9.308 -0.1590  0.0865 -0.2803
 5091TIP3    H139468   0.706   2.019   9.274 -0.4136  1.8046  0.5950
 5091TIP3    H239469   0.637   1.894   9.323  1.7469  0.4131  0.2320
 5092TIP3   OH239470   4.480   3.830   9.698 -0.3245 -0.1261  0.3825
 5092TIP3    H139471   4.486   3.872   9.783  2.6754 -1.1252  0.7771
 5092TIP3    H239472   4.549   3.764   9.698  0.4297  0.4114 -3.1100
 5093TIP3   OH239473   5.710   5.710  11.073 -0.1404  0.1532  0.3554
 5093TIP3    H139474   5.708   5.690  10.979 -0.6110 -1.3694  0.6643
 5093TIP3    H239475   5.624   5.749  11.091 -0.3333 -0.2391  0.2924
 5094TIP3   OH239476   2.090   0.149  11.358  0.3144  0.3857  0.2239
 5094TIP3    H139477   1.995   0.151  11.374  0.4031 -1.2933  1.1949
 5094TIP3    H239478   2.126   0.215  11.417 -0.2657  1.3486 -0.4668
 5095TIP3   OH239479   6.088   6.695  10.046 -0.1342  0.4549  0.3893
 5095TIP3    H139480   6.030   6.622  10.070 -0.2076  0.2528 -0.3953
 5095TIP3    H239481   6.138   6.712  10.126 -0.1955 -0.3857  0.6162
 5096TIP3   OH239482   5.889   3.737  10.405  0.2081 -0.3281  0.0946
 5096TIP3    H139483   5.836   3.817  10.403  0.3291 -0.2281  0.8815
 5096TIP3    H239484   5.902   3.719  10.498  0.6274 -0.9720 -0.0861
 5097TIP3   OH239485   3.665   5.423   8.460  0.9614 -0.8771 -0.1595
 5097TIP3    H139486   3.731   5.395   8.397 -1.0069 -0.5607 -2.5711
 5097TIP3    H239487   3.598   5.354   8.457  0.5802 -0.5930  1.2191
 5098TIP3   OH239488   5.418   6.744   9.517  0.5378  0.2366 -0.2305
 5098TIP3    H139489   5.335   6.787   9.499  0.6231  0.3271 -0.4078
 5098TIP3    H239490   5.402   6.651   9.499  0.0439  0.0250  1.1934
 5099TIP3   OH239491   6.650   2.540   8.549  0.0465 -0.6947  0.2355
 5099TIP3    H139492   6.556   2.541   8.527 -0.1545 -0.1168  1.0447
 5099TIP3    H239493   6.693   2.507   8.470 -0.7515  0.0197 -0.5280
 5100TIP3   OH239494   5.988   0.547  11.746  0.8159 -0.5813  0.1180
 5100TIP3    H139495   6.018   0.500  11.668 -0.2782 -1.7617  0.3692
 5100TIP3    H239496   6.051   0.522  11.815 -0.7740 -3.3606  0.7465
 5101TIP3   OH239497   4.998   4.047  10.569  0.3642 -0.5788  0.1482
 5101TIP3    H139498   4.905   4.025  10.564  0.1684  0.3981 -0.8450
 5101TIP3    H239499   5.011   4.078  10.659 -0.4134 -0.1114  0.1022
 5102TIP3   OH239500   4.392   2.998   8.901 -0.0748 -0.0639  0.2079
 5102TIP3    H139501   4.305   2.961   8.881 -0.4476  0.7997  0.1828
 5102TIP3    H239502   4.450   2.957   8.838 -0.6272 -0.0131 -0.3498
 5103TIP3   OH239503   5.785   1.580  10.932 -0.0897 -0.3833  0.4504
 5103TIP3    H139504   5.766   1.662  10.889  0.2056  0.5891  2.0791
 5103TIP3    H239505   5.870   1.553  10.897 -0.2588 -0.0873 -0.1995
 5104TIP3   OH239506   4.832   0.672  11.438  0.0454  0.4983  0.0437
 5104TIP3    H139507   4.783   0.746  11.402 -0.0186  0.2141 -0.4731
 5104TIP3    H239508   4.780   0.595  11.412 -0.2720  0.3109  1.1836
 5105TIP3   OH239509   2.201   3.173  11.168  0.5858 -0.0003  0.3141
 5105TIP3    H139510   2.220   3.179  11.261  1.8014  0.0535  0.0703
 5105TIP3    H239511   2.112   3.208  11.159 -0.3945 -1.9397  1.7180
 5106TIP3   OH239512   4.382   4.700  11.572  0.0662 -0.0656  0.4410
 5106TIP3    H139513   4.342   4.784  11.548  0.0385 -0.0362  0.5864
 5106TIP3    H239514   4.475   4.720  11.583  0.5550 -0.5948 -2.1622
 5107TIP3   OH239515   5.701   1.793  10.774  0.3911 -0.0566 -0.1608
 5107TIP3    H139516   5.744   1.800  10.689 -1.3134  1.9147 -0.9565
 5107TIP3    H239517   5.624   1.740  10.758  0.6227 -0.5741  0.4149
 5108TIP3   OH239518   5.170   3.427  10.931 -0.2283  0.0100 -0.2866
 5108TIP3    H139519   5.120   3.362  10.981  0.3867 -1.5487 -1.6176
 5108TIP3    H239520   5.112   3.503  10.926 -1.5602 -0.9505  0.0901
 5109TIP3   OH239521   4.077   2.158   9.207  0.5124  0.3948  0.4006
 5109TIP3    H139522   4.088   2.251   9.188  0.7464  0.4735  0.9060
 5109TIP3    H239523   4.045   2.120   9.125 -0.4062  1.0667  0.4411
 5110TIP3   OH239524   0.255   5.819  10.183  0.3612 -0.2631  0.1542
 5110TIP3    H139525   0.308   5.897  10.200  1.0584 -0.6377 -0.2768
 5110TIP3    H239526   0.275   5.760  10.256  0.5079 -0.3910  0.0096
 5111TIP3   OH239527   0.036   4.705  10.847  0.3748 -0.0635 -0.0814
 5111TIP3    H139528   0.101   4.725  10.780  0.3821  1.5222  0.3469
 5111TIP3    H239529   0.079   4.727  10.930 -0.0356 -0.8762  0.3643
 5112TIP3   OH239530   4.452   1.304   9.780 -0.5343 -0.0304 -0.4739
 5112TIP3    H139531   4.418   1.215   9.781 -1.7110  0.3469  2.3150
 5112TIP3    H239532   4.410   1.345   9.704 -0.7223 -1.5704 -1.2282
 5113TIP3   OH239533   1.283   6.016  10.285  0.3517  0.2459  0.5403
 5113TIP3    H139534   1.271   6.109  10.306  0.6875  0.2388  0.7668
 5113TIP3    H239535   1.344   5.984  10.351 -0.0944 -0.2402  0.7269
 5114TIP3   OH239536   4.624   0.442   8.770  0.2216  0.2185  0.0290
 5114TIP3    H139537   4.560   0.385   8.813 -0.7347  0.3149 -1.1932
 5114TIP3    H239538   4.658   0.389   8.697 -0.3455  1.0277 -0.8504
 5115TIP3   OH239539   2.452   0.248   9.310  0.5138  0.2758  0.1111
 5115TIP3    H139540   2.413   0.235   9.223  0.9133  0.2786 -0.0731
 5115TIP3    H239541   2.432   0.167   9.357 -1.5299  1.0912  0.7418
 5116TIP3   OH239542   0.930   1.261  10.415 -0.1014 -0.1200 -0.0023
 5116TIP3    H139543   0.936   1.190  10.479  0.5397  0.6099  0.7750
 5116TIP3    H239544   1.000   1.322  10.439 -0.5979  0.7563 -0.6721
 5117TIP3   OH239545   5.333   4.148   8.840 -0.7785  0.0095  0.0664
 5117TIP3    H139546   5.288   4.098   8.772 -0.0951 -0.7693  0.1608
 5117TIP3    H239547   5.347   4.085   8.911 -0.7170  0.5857  0.5744
 5118TIP3   OH239548   2.778   6.583   9.715 -0.5528 -0.1531 -0.0986
 5118TIP3    H139549   2.769   6.507   9.658 -1.3126  0.0529 -0.2734
 5118TIP3    H239550   2.741   6.655   9.664 -0.0614  0.2876  0.1588
 5119TIP3   OH239551   4.974   3.674  10.329  0.1686 -0.2107  0.1084
 5119TIP3    H139552   5.024   3.755  10.331 -1.7933  1.0852 -0.4642
 5119TIP3    H239553   4.915   3.680  10.404  0.9192 -1.7698  0.8623
 5120TIP3   OH239554   6.276   3.696   9.270 -0.6515  0.7318 -0.0733
 5120TIP3    H139555   6.319   3.741   9.197  1.3651 -0.4564  0.3119
 5120TIP3    H239556   6.332   3.713   9.345 -0.1285 -1.8900  0.2112
 5121TIP3   OH239557   3.344   0.534  10.312 -0.0803 -0.7045  0.2830
 5121TIP3    H139558   3.346   0.554  10.219 -0.8026 -1.2086  0.1477
 5121TIP3    H239559   3.433   0.553  10.343  0.2525 -0.8244 -0.5717
 5122TIP3   OH239560   4.106   3.110  10.558  0.6746  0.5377  0.0672
 5122TIP3    H139561   4.021   3.111  10.515  0.5540  0.9405  0.3114
 5122TIP3    H239562   4.161   3.169  10.506  0.8655  0.1076 -0.2162
 5123TIP3   OH239563   3.056   0.017   9.630 -0.3865 -0.1257  0.1320
 5123TIP3    H139564   2.987   0.084   9.630 -0.7126 -0.4603  0.4411
 5123TIP3    H239565   3.136   0.066   9.614 -0.9627 -0.0057 -3.1734
 5124TIP3   OH239566   3.000   3.887  11.643  0.5499  0.3860  0.3188
 5124TIP3    H139567   3.055   3.906  11.568 -0.0003 -0.5357 -0.3437
 5124TIP3    H239568   2.930   3.952  11.639  1.4597  1.4488  1.0636
 5125TIP3   OH239569   3.459   1.360   8.442  0.2645  0.1880  0.5401
 5125TIP3    H139570   3.422   1.443   8.471  1.5877 -0.0744  3.2308
 5125TIP3    H239571   3.389   1.296   8.455 -0.2746  0.6071 -0.1869
 5126TIP3   OH239572   0.105   3.263  11.334 -0.1400 -0.3786 -0.4723
 5126TIP3    H139573   0.057   3.301  11.407 -0.2254 -0.4936 -0.4679
 5126TIP3    H239574   0.038   3.220  11.280 -0.0089 -0.7933 -0.3106
 5127TIP3   OH239575   5.600   2.256  11.415 -0.6498  0.3671 -0.4972
 5127TIP3    H139576   5.608   2.351  11.409 -2.1668  0.4300 -3.1599
 5127TIP3    H239577   5.660   2.223  11.347  2.8182 -0.9290  2.8208
 5128TIP3   OH239578   5.000   0.173   8.401  0.7130  0.2937  0.1369
 5128TIP3    H139579   4.950   0.254   8.390  0.7198  0.1459 -1.1248
 5128TIP3    H239580   5.074   0.182   8.341  1.1257 -0.3336  0.5441
 5129TIP3   OH239581   6.484   0.041   9.798 -0.0935  0.0094 -0.1739
 5129TIP3    H139582   6.556   0.064   9.856 -0.0949 -0.3412 -0.0310
 5129TIP3    H239583   6.410   0.093   9.829  0.0531  0.2443 -0.2170
 5130TIP3   OH239584   2.974   6.593   9.925  0.3763 -0.0866  0.1906
 5130TIP3    H139585   2.919   6.570   9.850 -0.3915  0.6435  0.5087
 5130TIP3    H239586   2.984   6.688   9.918  0.2637 -0.0108  1.0321
 5131TIP3   OH239587   5.876   1.949   9.634  0.3033  0.0798 -0.0263
 5131TIP3    H139588   5.897   1.860   9.664 -2.1562  0.0905  2.0952
 5131TIP3    H239589   5.862   1.939   9.539 -0.6889 -1.9951  0.2744
 5132TIP3   OH239590   6.689   3.565   9.465 -0.3568  0.3694  0.2829
 5132TIP3    H139591   6.742   3.485   9.463 -1.3148 -0.2937  0.5970
 5132TIP3    H239592   6.630   3.556   9.390 -2.2700 -0.5233  1.8077
 5133TIP3   OH239593   5.227   3.353  10.651  0.2226 -0.3684 -0.1270
 5133TIP3    H139594   5.213   3.259  10.656 -1.5741 -0.0980  0.3838
 5133TIP3    H239595   5.212   3.385  10.740  0.6912  0.4225 -0.3192
 5134TIP3   OH239596   6.723   3.190  10.792  0.8035 -0.3239 -0.3127
 5134TIP3    H139597   6.729   3.169  10.699 -0.2408  0.0999 -0.4984
 5134TIP3    H239598   6.803   3.239  10.812  2.1916 -2.4323 -0.4000
 5135TIP3   OH239599   3.414   5.059  10.987  0.0864 -0.2664 -0.2836
 5135TIP3    H139600   3.496   5.105  10.970 -0.1177  0.2890  0.1896
 5135TIP3    H239601   3.376   5.045  10.900  0.1328  0.4999 -0.4346
 5136TIP3   OH239602   0.167   1.720  11.203 -0.3832 -0.1357  0.0853
 5136TIP3    H139603   0.124   1.706  11.119 -0.7437  0.1771  0.2147
 5136TIP3    H239604   0.225   1.645  11.213  1.4242  0.9699 -1.5160
 5137TIP3   OH239605   6.067   1.632  10.230 -0.3031  0.0048 -0.3981
 5137TIP3    H139606   6.100   1.637  10.141 -0.9515 -0.6608 -0.6787
 5137TIP3    H239607   6.122   1.566  10.272 -0.7010 -0.4630 -0.6127
 5138TIP3   OH239608   4.799   5.197   9.260  0.4911 -0.8741 -0.0871
 5138TIP3    H139609   4.719   5.145   9.261  1.6812 -2.7877 -0.4085
 5138TIP3    H239610   4.870   5.133   9.252  2.0187  0.8021 -0.6991
 5139TIP3   OH239611   3.445   5.688   9.764 -0.0241  0.2350  0.1561
 5139TIP3    H139612   3.425   5.689   9.670 -1.5215  0.5763  0.4601
 5139TIP3    H239613   3.421   5.775   9.795  0.3232  0.0754  0.8878
 5140TIP3   OH239614   3.547   1.556  10.414 -0.0227  0.3666 -0.1124
 5140TIP3    H139615   3.615   1.619  10.435  0.8493 -0.7071  0.3896
 5140TIP3    H239616   3.564   1.482  10.472 -0.8058 -0.4832 -0.9279
 5141TIP3   OH239617   2.526   6.492  10.912  0.1673 -0.5585  0.0350
 5141TIP3    H139618   2.474   6.456  10.984  1.3693 -1.0797  0.6698
 5141TIP3    H239619   2.598   6.430  10.901  0.8265  0.3016 -0.6190
 5142TIP3   OH239620   0.324   2.525  10.037  0.0567  0.5972  0.3670
 5142TIP3    H139621   0.307   2.591  10.104  0.0343 -0.3449  1.2999
 5142TIP3    H239622   0.245   2.471  10.036 -0.0607  0.7691 -0.6247
 5143TIP3   OH239623   2.980   1.970   9.856 -0.3160  0.5784  0.4309
 5143TIP3    H139624   2.950   2.020   9.780  0.4002  3.4252  1.8470
 5143TIP3    H239625   3.071   1.950   9.837 -0.2764  0.8626  0.3124
 5144TIP3   OH239626   5.829   4.632   8.802  0.2583  0.2766 -0.0948
 5144TIP3    H139627   5.851   4.620   8.894 -0.7426  0.2168  0.1444
 5144TIP3    H239628   5.911   4.660   8.761  0.5474  0.9636  0.9333
 5145TIP3   OH239629   1.038   4.746   9.689  0.5735  0.1974 -0.3177
 5145TIP3    H139630   1.013   4.705   9.772  1.6842  1.9957  0.9635
 5145TIP3    H239631   0.955   4.767   9.646 -0.0466  0.3972  0.9473
 5146TIP3   OH239632   5.504   4.545   9.869 -0.1326  0.0685 -0.2828
 5146TIP3    H139633   5.452   4.567   9.791  0.1250  2.0041  0.0465
 5146TIP3    H239634   5.521   4.629   9.911 -1.3806 -1.0285  2.6186
 5147TIP3   OH239635   3.519   1.900  10.879 -0.6009  0.3540  0.2315
 5147TIP3    H139636   3.487   1.990  10.883  1.2651  1.0415  1.7340
 5147TIP3    H239637   3.566   1.889  10.962 -0.5992 -1.9443 -0.0268
 5148TIP3   OH239638   4.414   5.743  10.277  0.7047 -0.3162  0.2478
 5148TIP3    H139639   4.454   5.731  10.363  4.3984 -1.0365 -1.3521
 5148TIP3    H239640   4.473   5.803  10.231  0.4702 -2.0811 -2.6278
 5149TIP3   OH239641   2.234   2.782  10.888  0.2259  0.0431  0.0098
 5149TIP3    H139642   2.239   2.872  10.919 -0.8752  0.8526 -1.9889
 5149TIP3    H239643   2.320   2.765  10.849 -0.4679  1.3039 -2.2123
 5150TIP3   OH239644   3.956   3.436   9.110  0.0962 -0.1264  0.0131
 5150TIP3    H139645   3.999   3.458   9.192 -0.4950  0.0510  0.2852
 5150TIP3    H239646   4.007   3.364   9.074  0.9187  0.4236  0.0660
 5151TIP3   OH239647   4.945   6.044   9.160  0.5343  0.0892  0.7684
 5151TIP3    H139648   4.849   6.047   9.161  0.4665  4.0571  1.2223
 5151TIP3    H239649   4.969   6.078   9.074  1.4159  1.3259  1.4568
 5152TIP3   OH239650   4.921   2.920  10.737  0.1384 -0.4974 -0.2728
 5152TIP3    H139651   4.869   2.997  10.759 -2.2191 -1.6206 -1.5601
 5152TIP3    H239652   4.927   2.872  10.820  0.8194  0.5546  0.3174
 5153TIP3   OH239653   1.906   2.314   9.823  0.2824 -0.2886 -0.2634
 5153TIP3    H139654   1.814   2.290   9.818  0.3994 -0.6409 -0.8059
 5153TIP3    H239655   1.952   2.242   9.779  0.8149 -0.1308  0.0298
 5154TIP3   OH239656   5.224   6.725  11.230 -0.0617  0.0646  0.1762
 5154TIP3    H139657   5.165   6.747  11.302 -0.6294 -1.2167  0.1308
 5154TIP3    H239658   5.312   6.730  11.268 -0.3322 -0.2286  0.8487
 5155TIP3   OH239659   2.357   6.461  11.138 -0.6301 -0.3361 -0.5233
 5155TIP3    H139660   2.426   6.507  11.188  0.0060  0.0286 -1.6957
 5155TIP3    H239661   2.282   6.460  11.197  0.5395 -1.2607  1.0279
 5156TIP3   OH239662   4.139   3.054  10.209  0.3387 -0.3475 -0.5552
 5156TIP3    H139663   4.164   3.070  10.118 -0.2657 -1.4816 -0.9416
 5156TIP3    H239664   4.050   3.087  10.216 -0.3242 -1.9735 -0.9231
 5157TIP3   OH239665   3.619   5.867   8.038  0.1674  0.5085 -0.3191
 5157TIP3    H139666   3.686   5.819   7.989 -0.1790 -1.1296  0.7197
 5157TIP3    H239667   3.590   5.805   8.105 -0.9761  1.8870  0.5090
 5158TIP3   OH239668   0.522   1.932  11.058 -0.0380  0.1135  0.1697
 5158TIP3    H139669   0.529   1.837  11.057 -3.2053 -0.2469 -0.2428
 5158TIP3    H239670   0.528   1.956  11.150 -1.1288 -0.7430  0.4831
 5159TIP3   OH239671   4.787   0.000  10.764 -0.0780  0.3138 -0.7477
 5159TIP3    H139672   4.782   0.067  10.832  0.2612  0.5501 -0.9502
 5159TIP3    H239673   4.696  -0.026  10.749 -0.4074  1.8684 -1.7737
 5160TIP3   OH239674   5.010   0.578  10.512 -0.6391  0.5273 -0.2504
 5160TIP3    H139675   5.089   0.572  10.566  0.7992 -0.6487 -2.3058
 5160TIP3    H239676   4.943   0.612  10.570  0.2320 -2.5037  2.8363
 5161TIP3   OH239677   6.389   5.709  10.265  0.0195  0.1225  0.1012
 5161TIP3    H139678   6.410   5.767  10.192  1.5988 -1.7541 -1.0467
 5161TIP3    H239679   6.426   5.752  10.342  0.0970  1.1944 -0.5252
 5162TIP3   OH239680   5.823   4.847  10.229 -0.4587  0.1666  0.2679
 5162TIP3    H139681   5.800   4.896  10.309 -4.4123  2.0044 -1.6874
 5162TIP3    H239682   5.762   4.773  10.229  1.2137 -1.2605  0.0977
 5163TIP3   OH239683   3.941   3.384  11.650  0.0533 -0.8317  0.0251
 5163TIP3    H139684   3.862   3.330  11.654  0.4772 -1.3885  1.1203
 5163TIP3    H239685   4.010   3.324  11.623  0.3507 -0.6348  0.3343
 5164TIP3   OH239686   5.324   4.236  11.250 -0.3807 -0.2608 -0.8105
 5164TIP3    H139687   5.320   4.150  11.290 -0.7466  0.2421  0.2753
 5164TIP3    H239688   5.355   4.294  11.320  1.7929  0.1898 -2.0347
 5165TIP3   OH239689   1.703   1.025   9.839 -0.2051  0.2029  0.1016
 5165TIP3    H139690   1.775   1.025   9.776 -0.7300 -1.4521 -0.5596
 5165TIP3    H239691   1.730   0.961   9.905 -1.6619 -1.5984 -0.9507
 5166TIP3   OH239692   3.201   5.479  10.686  0.2928 -0.3606  0.4626
 5166TIP3    H139693   3.119   5.429  10.684  0.3464 -0.5365 -2.6905
 5166TIP3    H239694   3.175   5.564  10.721 -1.5733 -0.0280 -1.5026
 5167TIP3   OH239695   1.298   5.119   9.399  0.0566  0.1031  0.0560
 5167TIP3    H139696   1.291   5.211   9.426 -2.5202  0.0916 -0.3149
 5167TIP3    H239697   1.366   5.119   9.331 -2.0862  2.4011 -2.3079
 5168TIP3   OH239698   4.041   1.854  10.534  0.2230  0.1268  0.6031
 5168TIP3    H139699   4.125   1.815  10.559 -0.3394 -0.9114  0.9163
 5168TIP3    H239700   3.986   1.843  10.611  0.1546  1.9633  0.8788
 5169TIP3   OH239701   5.312   0.909  10.959 -0.5217  0.2603 -0.0258
 5169TIP3    H139702   5.247   0.972  10.991 -1.1119  0.9079 -2.3189
 5169TIP3    H239703   5.396   0.946  10.987 -0.9527  1.2768 -0.0115
 5170TIP3   OH239704   5.447   3.462  10.947  0.0844  0.4298 -0.2459
 5170TIP3    H139705   5.353   3.475  10.934  0.0246  1.2687  0.9411
 5170TIP3    H239706   5.453   3.379  10.994 -0.0236  0.2032 -0.6189
 5171TIP3   OH239707   4.604   5.025   9.196 -0.2997 -0.1422 -0.1655
 5171TIP3    H139708   4.555   4.989   9.269 -0.5114  0.4358 -0.0136
 5171TIP3    H239709   4.559   4.994   9.118  1.0491 -2.3769 -0.1353
 5172TIP3   OH239710   0.150   4.653   9.641 -0.2558  0.5385 -0.1275
 5172TIP3    H139711   0.068   4.698   9.663 -0.1285 -0.0798  1.7060
 5172TIP3    H239712   0.134   4.562   9.664  0.3431  0.0558 -1.5115
 5173TIP3   OH239713   3.158   2.152  11.649 -0.1425 -0.8461 -0.1613
 5173TIP3    H139714   3.111   2.075  11.617  1.1363 -1.7284  0.0035
 5173TIP3    H239715   3.110   2.179  11.726 -1.1549 -0.8965 -0.7578
 5174TIP3   OH239716   2.401   4.904   9.944 -0.8559  0.1427  0.3318
 5174TIP3    H139717   2.372   4.971  10.005 -2.8385  0.7292 -1.1345
 5174TIP3    H239718   2.474   4.945   9.897 -1.1831  0.7787  0.3615
 5175TIP3   OH239719   0.986   3.787   9.626 -0.2304  0.0624 -0.0122
 5175TIP3    H139720   0.902   3.826   9.599 -0.6619 -1.5028 -1.0893
 5175TIP3    H239721   1.052   3.839   9.581 -0.7921 -0.4281 -1.4589
 5176TIP3   OH239722   2.841   0.638  10.673 -0.1208 -0.4763 -1.1802
 5176TIP3    H139723   2.808   0.727  10.660 -0.4197 -0.5169 -0.7252
 5176TIP3    H239724   2.806   0.589  10.598 -1.6660 -0.6627 -0.3833
 5177TIP3   OH239725   1.453   2.140  10.398  0.0957  0.4511 -0.1006
 5177TIP3    H139726   1.382   2.204  10.391 -0.2525  0.1429  0.4984
 5177TIP3    H239727   1.533   2.192  10.388 -0.2047  0.8656 -0.3578
 5178TIP3   OH239728   1.039   3.403  11.012  0.0381 -0.1250 -0.2748
 5178TIP3    H139729   1.020   3.483  11.061 -0.0362  0.4071 -1.1400
 5178TIP3    H239730   0.976   3.404  10.940 -0.9451 -1.7254  0.5014
 5179TIP3   OH239731   4.103   4.936  10.620  0.3247 -0.0522 -0.5454
 5179TIP3    H139732   4.122   4.910  10.711 -3.0026 -1.6350 -0.1600
 5179TIP3    H239733   4.074   5.027  10.627  1.3965  0.2901 -0.2747
 5180TIP3   OH239734   0.051   1.627  10.954 -0.6836 -0.1297 -0.4296
 5180TIP3    H139735  -0.017   1.693  10.951  0.2603  0.9150  0.5831
 5180TIP3    H239736   0.007   1.548  10.987 -1.3956  0.5165  0.1781
 5181TIP3   OH239737   6.556   5.971  10.413 -0.2888  0.6994  0.0730
 5181TIP3    H139738   6.575   5.983  10.320 -1.1718  0.7644 -0.1092
 5181TIP3    H239739   6.475   6.018  10.427  0.8039  2.3131  1.3121
 5182TIP3   OH239740   3.844   2.158   8.613  0.2758  0.4087  0.1496
 5182TIP3    H139741   3.828   2.070   8.580  0.8883 -0.0002  0.8996
 5182TIP3    H239742   3.799   2.161   8.698  0.9824  0.5104  0.5315
 5183TIP3   OH239743   3.334   5.550  11.491 -0.0141  0.0354 -0.4979
 5183TIP3    H139744   3.366   5.460  11.495  0.5132  0.2433  0.2509
 5183TIP3    H239745   3.413   5.604  11.484 -0.2815  0.4758 -0.2200
 5184TIP3   OH239746   1.100   2.666   9.840 -0.5526 -0.4820  0.0575
 5184TIP3    H139747   1.055   2.717   9.773  0.1752 -1.9928 -1.6749
 5184TIP3    H239748   1.138   2.592   9.793 -0.1894 -1.7618  2.1814
 5185TIP3   OH239749   0.353   6.548   9.333 -0.4369  0.2407  0.2179
 5185TIP3    H139750   0.407   6.538   9.254 -0.6996  0.2533  0.0356
 5185TIP3    H239751   0.307   6.464   9.341 -1.1025  0.5600 -0.1625
 5186TIP3   OH239752   1.399   5.733   9.822 -0.6865 -0.6530  0.2019
 5186TIP3    H139753   1.386   5.786   9.900  0.2388 -0.8521  0.5011
 5186TIP3    H239754   1.315   5.691   9.807 -1.1687  0.1939  0.4868
 5187TIP3   OH239755   1.223   0.893  11.112  0.0122  0.4409  0.1634
 5187TIP3    H139756   1.258   0.943  11.186 -1.4683  1.8410 -0.0468
 5187TIP3    H239757   1.220   0.955  11.039 -0.0251 -0.4980 -0.6634
 5188TIP3   OH239758   2.764   0.577   8.353  0.4285 -0.1547 -0.1469
 5188TIP3    H139759   2.771   0.672   8.345  3.3641  0.0311  2.6743
 5188TIP3    H239760   2.784   0.545   8.265  3.8459  1.8330 -0.2758
 5189TIP3   OH239761   0.706   2.936  10.486 -0.7274 -0.4101  0.4925
 5189TIP3    H139762   0.791   2.950  10.444 -0.2406 -2.0906  0.8334
 5189TIP3    H239763   0.725   2.874  10.557 -1.9559  0.4957  1.6531
 5190TIP3   OH239764   0.030   6.843   9.512  0.1160 -0.3035  0.4545
 5190TIP3    H139765   0.080   6.763   9.526  0.9294  0.5527  2.9992
 5190TIP3    H239766  -0.059   6.814   9.495  0.8600 -1.7717 -1.2586
 5191TIP3   OH239767   3.161   3.605  11.281  0.5256 -0.1255 -0.0644
 5191TIP3    H139768   3.133   3.607  11.373 -0.1126 -0.5561 -0.2434
 5191TIP3    H239769   3.084   3.635  11.232  1.2858  1.4236 -0.3801
 5192TIP3   OH239770   6.418   4.523   9.182 -0.5005 -0.8746 -0.0269
 5192TIP3    H139771   6.476   4.448   9.166 -1.1971 -1.6441  0.9523
 5192TIP3    H239772   6.456   4.594   9.130  0.8590 -1.5819 -0.0412
 5193TIP3   OH239773   2.601   6.246   9.493 -0.1645 -0.5500 -0.0725
 5193TIP3    H139774   2.621   6.194   9.416  0.9315 -1.1281  0.5782
 5193TIP3    H239775   2.505   6.243   9.500 -0.3590  0.2183 -1.8606
 5194TIP3   OH239776   5.467   4.184  11.603  0.3079  0.3294  0.0794
 5194TIP3    H139777   5.496   4.099  11.570  0.9602  0.2385  0.8533
 5194TIP3    H239778   5.374   4.173  11.620  0.7041 -0.7714  1.7789
 5195TIP3   OH239779   4.036   6.793  10.147 -0.1376  0.8164  0.4285
 5195TIP3    H139780   4.010   6.872  10.195 -1.0220  0.9732 -0.3042
 5195TIP3    H239781   4.130   6.804  10.133 -0.5098  2.5624 -1.1250
 5196TIP3   OH239782   6.203   1.936   9.022 -0.4959 -0.2934 -0.4009
 5196TIP3    H139783   6.269   1.997   8.990 -0.6750 -0.2456 -0.6828
 5196TIP3    H239784   6.163   1.899   8.943 -0.2288 -0.9530 -0.2371
 5197TIP3   OH239785   3.097   6.783   9.101 -0.3355 -0.3686  0.2912
 5197TIP3    H139786   3.112   6.701   9.148  1.9406  0.9350  2.0624
 5197TIP3    H239787   3.060   6.841   9.167 -3.8534 -0.4130 -1.4347
 5198TIP3   OH239788   4.949   6.654   9.907 -0.0828  0.6363 -0.1232
 5198TIP3    H139789   5.009   6.726   9.888  0.9412 -0.2584 -0.3849
 5198TIP3    H239790   5.001   6.591   9.957 -1.9530  1.6890  3.5446
 5199TIP3   OH239791   6.135   3.544  11.380  0.1392 -0.2960 -0.6965
 5199TIP3    H139792   6.108   3.634  11.398  1.6535 -0.0833  0.6758
 5199TIP3    H239793   6.063   3.491  11.415 -0.0939  0.3355 -0.1758
 5200TIP3   OH239794   2.567   1.041  11.235  0.2029  0.2535 -0.3954
 5200TIP3    H139795   2.634   0.974  11.250 -1.0560 -1.1117 -0.5731
 5200TIP3    H239796   2.531   1.019  11.149 -1.6206 -0.1272  0.4106
 5201TIP3   OH239797   1.936   5.731  10.102 -0.3151  0.3165 -0.0192
 5201TIP3    H139798   1.930   5.826  10.109 -1.9721  0.1471  1.2108
 5201TIP3    H239799   1.895   5.710  10.019  0.8959  0.7090 -0.7519
 5202TIP3   OH239800   4.641   4.685  10.391 -0.3736  0.1683  0.2503
 5202TIP3    H139801   4.615   4.603  10.432  1.3224 -0.4884  0.0792
 5202TIP3    H239802   4.620   4.674  10.299  2.3505 -1.2305 -0.2908
 5203TIP3   OH239803   1.885   3.728   8.844  0.1250  0.1385 -0.5535
 5203TIP3    H139804   1.967   3.738   8.797 -0.0277 -0.4901 -0.9643
 5203TIP3    H239805   1.869   3.814   8.884  0.7199  0.4062 -0.8848
 5204TIP3   OH239806   2.226   1.589  10.204  0.6362 -0.1596  0.0392
 5204TIP3    H139807   2.310   1.630  10.183  1.0100 -0.8130  0.2458
 5204TIP3    H239808   2.162   1.659  10.190  1.2408  0.4434  0.1976
 5205TIP3   OH239809   6.015   2.951  11.054 -0.4732  0.3830 -0.1690
 5205TIP3    H139810   6.072   3.014  11.099 -2.0392  1.7510  0.0014
 5205TIP3    H239811   6.072   2.876  11.036  0.5938  0.3738  2.7570
 5206TIP3   OH239812   5.126   3.183  11.475 -0.1252 -0.5146  0.0483
 5206TIP3    H139813   5.091   3.093  11.472 -1.8658  0.1291 -0.3732
 5206TIP3    H239814   5.192   3.184  11.406  0.0572 -1.5193  0.1814
 5207TIP3   OH239815   1.041   3.137  10.543 -0.9133 -0.2706  0.2469
 5207TIP3    H139816   1.015   3.116  10.453 -2.8853 -1.3066  1.0068
 5207TIP3    H239817   0.987   3.080  10.598  0.5206  0.0670  2.0992
 5208TIP3   OH239818   4.841   4.216   8.541 -0.0710  0.0233  0.7047
 5208TIP3    H139819   4.868   4.161   8.467  0.0446  1.2077 -0.1651
 5208TIP3    H239820   4.880   4.301   8.523  2.7643 -0.4097  3.8174
 5209TIP3   OH239821   4.303   6.698   9.066  0.2386 -0.7153  0.0362
 5209TIP3    H139822   4.366   6.627   9.078  0.0922 -0.6792  1.1693
 5209TIP3    H239823   4.218   6.654   9.059  0.3049 -0.7254 -0.8076
 5210TIP3   OH239824   2.938   6.638  11.415  0.0155  0.0459  0.2438
 5210TIP3    H139825   2.950   6.627  11.509  0.2807  1.4527  0.3945
 5210TIP3    H239826   2.928   6.732  11.403  0.5922 -0.0567 -1.2102
 5211TIP3   OH239827   0.267   1.192  10.267 -0.3725  0.1318  0.3494
 5211TIP3    H139828   0.257   1.250  10.343  1.4852 -0.8122  1.3629
 5211TIP3    H239829   0.302   1.111  10.302 -0.2335 -0.6368 -1.4358
 5212TIP3   OH239830   0.883   5.168  11.153 -0.1823  0.4126  0.2746
 5212TIP3    H139831   0.798   5.209  11.169 -0.7705 -0.7652  0.2785
 5212TIP3    H239832   0.883   5.149  11.059 -0.0819  0.1022  0.3348
 5213TIP3   OH239833   4.173   5.205   9.278 -0.1623  0.1418  0.6576
 5213TIP3    H139834   4.256   5.251   9.266 -0.6876  1.3539  1.5099
 5213TIP3    H239835   4.123   5.225   9.199  1.1054 -2.3929 -0.9258
 5214TIP3   OH239836   2.778   2.146  10.345 -0.6225  0.5533 -0.1089
 5214TIP3    H139837   2.856   2.095  10.324 -0.4166  0.8567 -0.0783
 5214TIP3    H239838   2.795   2.233  10.310 -1.7169  0.1513 -1.7775
 5215TIP3   OH239839   1.025   0.864  10.422 -0.2242  0.2894  0.0169
 5215TIP3    H139840   1.110   0.908  10.419 -0.1108  0.0699  0.0143
 5215TIP3    H239841   1.029   0.809  10.500  0.4780 -1.4247 -1.1922
 5216TIP3   OH239842   4.136   4.563   8.670 -0.2354  0.1697 -0.0726
 5216TIP3    H139843   4.101   4.482   8.709 -0.4263  0.8400  1.2105
 5216TIP3    H239844   4.152   4.620   8.745  1.7695  0.6232 -0.7848
 5217TIP3   OH239845   2.608   3.584  10.871 -0.2018  0.0048 -0.3053
 5217TIP3    H139846   2.571   3.528  10.939  0.6785  0.2467  0.3961
 5217TIP3    H239847   2.561   3.559  10.792 -1.4188 -0.1283  0.4217
 5218TIP3   OH239848   3.820   5.175   9.279  0.2635 -0.1353  0.3168
 5218TIP3    H139849   3.836   5.181   9.185 -1.5066  0.1405  0.0094
 5218TIP3    H239850   3.725   5.168   9.287  0.2909  1.0098  2.1520
 5219TIP3   OH239851   2.671   6.433  10.327  0.2233 -0.6551 -0.4571
 5219TIP3    H139852   2.618   6.354  10.328  0.0911 -0.5705 -0.7482
 5219TIP3    H239853   2.754   6.407  10.287 -0.1140 -0.4619 -1.2968
 5220TIP3   OH239854   4.677   4.104  10.912  0.5998  0.3681  0.0486
 5220TIP3    H139855   4.728   4.127  10.990  0.3708  1.1530 -0.0227
 5220TIP3    H239856   4.642   4.187  10.881  0.2776 -0.0041 -0.6102
 5221TIP3   OH239857   5.080   6.494  11.925  0.3510 -0.1842 -0.5888
 5221TIP3    H139858   5.030   6.413  11.939  0.1927  0.1323  0.8769
 5221TIP3    H239859   5.168   6.464  11.903  0.5865 -0.8080  1.0221
 5222TIP3   OH239860   2.033   4.391   9.164  0.0580 -0.2148 -0.1190
 5222TIP3    H139861   1.950   4.436   9.150  0.7154  0.4740 -2.4329
 5222TIP3    H239862   2.029   4.315   9.105  0.8742 -0.4297  0.0911
 5223TIP3   OH239863   3.500   4.212   9.307 -0.0614 -0.2796 -0.2607
 5223TIP3    H139864   3.559   4.137   9.303  0.5250  0.1251  0.5774
 5223TIP3    H239865   3.430   4.191   9.245  1.6802 -0.1438 -2.3701
 5224TIP3   OH239866   3.797   5.822   9.216 -0.1638 -0.5396  0.3408
 5224TIP3    H139867   3.765   5.812   9.126  0.8366 -1.0487  0.0326
 5224TIP3    H239868   3.739   5.766   9.268 -1.6817  0.8730  0.2553
 5225TIP3   OH239869   0.468   5.646  11.155  0.2283 -0.0173  0.1921
 5225TIP3    H139870   0.402   5.576  11.156 -0.6097  0.7523 -0.3194
 5225TIP3    H239871   0.518   5.631  11.075  1.2174 -1.0667  0.9660
 5226TIP3   OH239872   1.571   1.489  10.824 -0.0503 -0.1665  0.1829
 5226TIP3    H139873   1.544   1.547  10.895  0.2735  0.6005 -0.3027
 5226TIP3    H239874   1.665   1.507  10.813  0.1660 -1.1380  0.3428
 5227TIP3   OH239875   2.283   6.829   9.268 -0.4752  0.3286 -0.1664
 5227TIP3    H139876   2.350   6.766   9.244  0.4419  0.0426  2.7332
 5227TIP3    H239877   2.213   6.816   9.204  0.8589 -1.6340 -1.3196
 5228TIP3   OH239878   4.701   3.476  10.513  0.1692 -0.1528  0.1139
 5228TIP3    H139879   4.652   3.425  10.578  1.0127 -1.4269 -0.2141
 5228TIP3    H239880   4.792   3.466  10.539  0.5721 -1.1214 -1.5363
 5229TIP3   OH239881   5.303   3.450   9.696 -0.3750 -0.0440 -0.0254
 5229TIP3    H139882   5.340   3.368   9.663  3.2444  0.5112  2.0474
 5229TIP3    H239883   5.332   3.454   9.788 -1.1475  3.1238  0.2015
 5230TIP3   OH239884   6.604   3.845   8.823  0.0588  0.3557  0.3335
 5230TIP3    H139885   6.601   3.803   8.737 -1.5444  0.2121  0.4280
 5230TIP3    H239886   6.534   3.802   8.873  0.1814  1.2638  1.3087
 5231TIP3   OH239887   0.537   3.707  10.026  0.6909 -0.1615  0.1028
 5231TIP3    H139888   0.584   3.730   9.946  0.8044  1.4525  0.5966
 5231TIP3    H239889   0.498   3.621  10.007  1.5620 -0.2808 -1.2937
 5232TIP3   OH239890   0.326   5.854   9.915  0.0309  0.0928 -0.0875
 5232TIP3    H139891   0.252   5.908   9.887  0.4068  1.8002  1.8995
 5232TIP3    H239892   0.294   5.809   9.994  1.4363  1.9949  1.6809
 5233TIP3   OH239893   2.554   3.386   9.447 -0.1303  0.4414 -0.0952
 5233TIP3    H139894   2.623   3.368   9.384  0.4424  1.9785  0.0611
 5233TIP3    H239895   2.524   3.474   9.426  0.1814  1.0566  1.8384
 5234TIP3   OH239896   5.184   1.322   9.613 -0.1627 -0.5509 -0.0391
 5234TIP3    H139897   5.257   1.298   9.670  0.8691  0.8970 -0.6896
 5234TIP3    H239898   5.106   1.310   9.668  0.6330 -1.0949  1.0132
 5235TIP3   OH239899   4.751   6.263   9.038  0.4612  0.2206  0.8114
 5235TIP3    H139900   4.658   6.280   9.051  0.5344  0.5456  0.9124
 5235TIP3    H239901   4.758   6.235   8.946  0.2678  0.1979  0.8037
 5236TIP3   OH239902   3.938   5.275  11.167  0.3065 -0.1019  0.1232
 5236TIP3    H139903   3.962   5.289  11.075  0.6704 -0.1051  0.2179
 5236TIP3    H239904   3.922   5.181  11.174  1.7951 -0.3444  0.4191
 5237TIP3   OH239905   1.705   0.341  11.077  0.3226 -0.0050 -0.1000
 5237TIP3    H139906   1.642   0.297  11.134  2.3755 -0.7825  1.6893
 5237TIP3    H239907   1.745   0.408  11.131  0.5144  1.0094 -1.4425
 5238TIP3   OH239908   1.186   1.816  11.130 -0.1052  0.6751  0.0573
 5238TIP3    H139909   1.243   1.809  11.053  0.7698 -0.9864  0.7974
 5238TIP3    H239910   1.229   1.883  11.184  0.6782  0.0657  0.2092
 5239TIP3   OH239911   4.828   4.987  11.163 -0.1523 -0.2537 -0.3202
 5239TIP3    H139912   4.797   4.959  11.249  0.4775 -2.5789 -0.7920
 5239TIP3    H239913   4.749   4.990  11.109 -0.7888  2.6071  0.5795
 5240TIP3   OH239914   5.771   1.667  10.526 -0.1922 -0.5279  0.1857
 5240TIP3    H139915   5.789   1.704  10.440 -0.6526 -0.7632 -0.0153
 5240TIP3    H239916   5.710   1.595  10.509 -1.4118  0.3105  0.8406
 5241TIP3   OH239917   1.743   5.850  12.004 -0.3030 -0.3933  0.4528
 5241TIP3    H139918   1.811   5.798  12.047 -0.2423 -0.7688 -0.0924
 5241TIP3    H239919   1.785   5.885  11.926 -1.1946 -2.0985 -0.8781
 5242TIP3   OH239920   3.669   5.072  11.070 -0.9268 -0.2468 -0.2806
 5242TIP3    H139921   3.625   5.035  11.146 -1.5942  0.3702 -0.3545
 5242TIP3    H239922   3.722   5.000  11.036  0.4941 -0.1388  1.5654
 5243TIP3   OH239923   6.223   2.655   9.333  0.0388 -0.0558  0.2413
 5243TIP3    H139924   6.221   2.566   9.297  1.1732 -0.2254  0.5622
 5243TIP3    H239925   6.151   2.656   9.396  1.5805 -1.6093  2.1538
 5244TIP3   OH239926   3.925   1.642  11.675 -0.4199 -0.2111  0.1773
 5244TIP3    H139927   3.963   1.724  11.645 -0.7542  1.0780  2.9592
 5244TIP3    H239928   3.836   1.665  11.704 -1.7711 -2.2556 -1.9258
 5245TIP3   OH239929   0.567   2.884   9.137 -0.6911 -0.0993 -0.3819
 5245TIP3    H139930   0.537   2.924   9.055 -2.2250  0.9171  0.6052
 5245TIP3    H239931   0.621   2.952   9.178  2.0030 -1.4231 -1.5102
 5246TIP3   OH239932   1.052   0.451   9.917 -0.0933 -0.0425  0.2938
 5246TIP3    H139933   1.097   0.510   9.978  0.6462  1.3670 -1.4975
 5246TIP3    H239934   1.117   0.383   9.897  0.6203  0.8985 -0.7751
 5247TIP3   OH239935   3.406   1.089   8.883  0.1352  0.3256 -0.1593
 5247TIP3    H139936   3.315   1.062   8.867  0.6837 -1.3464 -0.7049
 5247TIP3    H239937   3.419   1.165   8.827 -0.7057  0.1182 -0.6476
 5248TIP3   OH239938   4.944   4.928   9.502 -0.2125  0.6965  0.2378
 5248TIP3    H139939   4.909   5.012   9.532 -2.2055 -0.5590  1.6631
 5248TIP3    H239940   5.021   4.913   9.558 -0.5231  1.0437  0.7609
 5249TIP3   OH239941   3.633   6.799  10.996 -0.3580 -0.1993  0.5543
 5249TIP3    H139942   3.725   6.814  11.018  0.1804 -1.0457 -0.9822
 5249TIP3    H239943   3.587   6.873  11.036  0.7845 -0.4902  2.5232
 5250TIP3   OH239944   4.520   3.860  10.894 -0.4446 -0.2693 -0.0387
 5250TIP3    H139945   4.580   3.932  10.876 -1.1033  0.7545  1.5622
 5250TIP3    H239946   4.440   3.903  10.923 -0.3730 -1.6221  2.4428
 5251TIP3   OH239947   5.091   2.863   9.389 -0.6438 -0.0968  0.4655
 5251TIP3    H139948   5.173   2.891   9.349 -0.3432 -1.4906  0.0480
 5251TIP3    H239949   5.091   2.902   9.476  0.0748  0.5752  0.1681
 5252TIP3   OH239950   0.885   5.972  11.294  0.3258 -0.2316  0.4473
 5252TIP3    H139951   0.803   5.929  11.317 -0.0431  0.9270  1.4106
 5252TIP3    H239952   0.865   6.018  11.212  0.2009 -0.4540  0.3518
 5253TIP3   OH239953   5.379   3.865   9.289 -0.0406 -0.6945 -0.0236
 5253TIP3    H139954   5.361   3.801   9.220  0.5825  0.7655 -1.6122
 5253TIP3    H239955   5.473   3.881   9.283  0.0857 -0.7473  1.4052
 5254TIP3   OH239956   1.834   4.378  10.770 -0.2862  0.0251  0.0158
 5254TIP3    H139957   1.810   4.349  10.858 -2.2146 -1.3176 -0.8893
 5254TIP3    H239958   1.930   4.382  10.771  0.0840 -4.4189  0.9210
 5255TIP3   OH239959   0.121   1.732   9.916  0.1966  0.3959  0.5239
 5255TIP3    H139960   0.200   1.785   9.912  1.0197 -0.8710 -0.8163
 5255TIP3    H239961   0.114   1.693   9.829 -1.8484  0.3858  0.6460
 5256TIP3   OH239962   2.062   2.438  10.273  0.5282  0.1686  0.2789
 5256TIP3    H139963   2.002   2.505  10.241  2.2153  0.9710 -1.4295
 5256TIP3    H239964   2.048   2.364  10.213 -0.0816 -0.3671  1.0664
 5257TIP3   OH239965   5.897   1.652   9.615 -0.6484 -0.0198 -0.2812
 5257TIP3    H139966   5.958   1.588   9.581 -0.1638  0.5799 -0.5570
 5257TIP3    H239967   5.858   1.610   9.692 -0.4660 -0.7012 -0.5602
 5258TIP3   OH239968   0.701   0.149   8.904  0.4307  0.2318 -0.0339
 5258TIP3    H139969   0.744   0.227   8.869  0.1431  0.2339 -0.3917
 5258TIP3    H239970   0.614   0.178   8.929 -0.0811 -0.2059 -1.2237
 5259TIP3   OH239971   0.761   6.388  10.714 -0.1336  0.4019  0.5063
 5259TIP3    H139972   0.843   6.340  10.702  0.7305  1.6178  1.3285
 5259TIP3    H239973   0.697   6.320  10.738  0.4519 -0.6553 -0.7782
 5260TIP3   OH239974   0.045   3.836   9.248 -0.1103  0.1737 -0.0202
 5260TIP3    H139975   0.111   3.798   9.306 -0.0120  0.2203 -0.1022
 5260TIP3    H239976   0.051   3.784   9.168 -0.7629 -0.3804  0.2796
 5261TIP3   OH239977   5.451   4.880  10.407  0.3130 -0.0955 -0.2559
 5261TIP3    H139978   5.414   4.843  10.487  0.7829 -0.7548 -0.3375
 5261TIP3    H239979   5.513   4.814  10.377  0.2809  0.2341 -1.0596
 5262TIP3   OH239980   5.652   5.823  10.171  0.1925 -0.5076  0.0975
 5262TIP3    H139981   5.599   5.894  10.134  0.3120 -0.5301 -0.1221
 5262TIP3    H239982   5.588   5.763  10.210  0.1667  0.4004  1.5077
 5263TIP3   OH239983   2.874   4.036   8.229 -0.2890  0.3458 -0.1240
 5263TIP3    H139984   2.846   3.953   8.268 -1.3777  0.0848 -1.3914
 5263TIP3    H239985   2.916   4.010   8.147  2.5085  0.8404  1.0530
 5264TIP3   OH239986   4.255   3.072   9.721 -0.0393 -0.1272 -0.4598
 5264TIP3    H139987   4.200   2.995   9.734  0.1185 -0.3955 -1.3487
 5264TIP3    H239988   4.310   3.050   9.646  1.3680  0.0892  0.4701
 5265TIP3   OH239989   4.534   5.909  11.554 -0.2406 -0.7764 -0.0123
 5265TIP3    H139990   4.556   5.882  11.465 -0.3504  0.4669 -0.4352
 5265TIP3    H239991   4.489   5.833  11.592 -1.7377 -0.7486 -1.5915
 5266TIP3   OH239992   1.993   2.031   9.776  0.0631 -0.0015  0.0961
 5266TIP3    H139993   1.941   1.996   9.703  1.8063  0.5135 -1.4746
 5266TIP3    H239994   2.084   2.021   9.748  0.7391  2.0098  1.3286
 5267TIP3   OH239995   3.274   3.973  10.732 -0.3079 -0.8667 -0.2137
 5267TIP3    H139996   3.270   3.950  10.825 -0.0927 -0.4754 -0.1048
 5267TIP3    H239997   3.183   3.991  10.708 -0.0718  2.2952  0.7845
 5268TIP3   OH239998   3.144   3.783  10.547  0.4788 -0.4691  0.1847
 5268TIP3    H139999   3.163   3.689  10.546  1.8570 -0.2084 -0.5475
 5268TIP3    H240000   3.111   3.800  10.635  1.2875 -1.4442  0.6963
 5269TIP3   OH240001   4.240   6.145  10.917  0.0621 -0.1159 -0.2457
 5269TIP3    H140002   4.290   6.225  10.901  0.3006 -0.1767  0.1786
 5269TIP3    H240003   4.154   6.161  10.877 -0.0300  0.5083  0.2008
 5270TIP3   OH240004   0.229   1.972  10.229 -0.3347  0.2319 -0.3127
 5270TIP3    H140005   0.219   2.060  10.193  0.3691 -0.2954 -1.8932
 5270TIP3    H240006   0.144   1.930  10.212 -0.1076  0.0840 -1.1129
 5271TIP3   OH240007   4.891   3.914   9.732 -0.6616 -0.9014 -0.3617
 5271TIP3    H140008   4.887   3.895   9.826 -1.4154 -2.4739 -0.6769
 5271TIP3    H240009   4.819   3.976   9.717  1.1819  1.5958  0.5144
 5272TIP3   OH240010   3.816   3.490   9.663 -0.1386 -0.4911 -0.3135
 5272TIP3    H140011   3.810   3.542   9.743 -0.2598  2.1906 -1.9345
 5272TIP3    H240012   3.854   3.407   9.691  0.2025  0.4856  2.4257
 5273TIP3   OH240013   3.332   5.877  11.419  0.0996 -0.2363 -0.2902
 5273TIP3    H140014   3.326   5.968  11.450 -0.4428 -0.1937 -0.5139
 5273TIP3    H240015   3.426   5.856  11.425  0.1426  0.1105  0.4012
 5274TIP3   OH240016   2.059   6.101   9.241  0.0587  1.0938 -0.0832
 5274TIP3    H140017   1.983   6.053   9.209 -0.3548  0.8582  1.1788
 5274TIP3    H240018   2.118   6.107   9.166 -1.8229  2.5811 -1.5245
 5275TIP3   OH240019   1.801   4.241   9.676  0.5673 -0.1786  0.1244
 5275TIP3    H140020   1.826   4.328   9.644 -0.7101 -0.4570 -1.7775
 5275TIP3    H240021   1.773   4.193   9.598  0.8345 -2.1830  1.1795
 5276TIP3   OH240022   0.203   2.214  10.129  0.9338  0.2057 -0.1659
 5276TIP3    H140023   0.272   2.259  10.177 -0.7952  3.2400 -0.2667
 5276TIP3    H240024   0.124   2.265  10.146 -0.4494 -0.5226 -3.4751
 5277TIP3   OH240025   4.078   0.969  10.260 -0.1101  0.0905 -0.6267
 5277TIP3    H140026   4.167   0.979  10.294  0.0525  1.9896 -1.4775
 5277TIP3    H240027   4.024   0.957  10.337  0.5924  1.4267  0.1187
 5278TIP3   OH240028   4.813   0.106  11.025  0.7018  0.2760 -0.1553
 5278TIP3    H140029   4.903   0.074  11.030  0.5164 -0.1232  0.6096
 5278TIP3    H240030   4.763   0.049  11.082 -0.2154 -0.0669 -1.2604
 5279TIP3   OH240031   1.175   6.566   8.980 -0.2693  0.4539  0.0228
 5279TIP3    H140032   1.129   6.590   8.899 -1.5447  1.6712  1.0620
 5279TIP3    H240033   1.257   6.616   8.976 -0.1966  0.2946 -0.6289
 5280TIP3   OH240034   0.785   3.354  10.028 -0.1680  0.0206  0.2392
 5280TIP3    H140035   0.880   3.368  10.023 -0.0017 -0.7780  0.9050
 5280TIP3    H240036   0.749   3.414   9.964  0.7168  1.1079  0.7238
 5281TIP3   OH240037   0.894   6.031  11.568 -0.2254  0.2007  0.2673
 5281TIP3    H140038   0.910   6.000  11.479  0.4547  0.9056  0.1328
 5281TIP3    H240039   0.981   6.054  11.601 -0.2029 -1.7500  1.7739
 5282TIP3   OH240040   6.197   4.536  10.056  0.4142 -0.1428  0.1834
 5282TIP3    H140041   6.235   4.595  10.121  2.3053 -0.0303 -0.9444
 5282TIP3    H240042   6.181   4.455  10.103  0.8720  0.2437  1.0217
 5283TIP3   OH240043   4.268   1.475   9.101 -0.2512  0.1845  0.3050
 5283TIP3    H140044   4.317   1.499   9.023 -1.1056  1.4750  0.1331
 5283TIP3    H240045   4.321   1.407   9.143  1.5055  1.2823 -0.0373
 5284TIP3   OH240046   2.747   1.931  11.609 -0.6254  0.1484  0.0565
 5284TIP3    H140047   2.708   1.860  11.557 -0.2891  1.2686 -1.7931
 5284TIP3    H240048   2.686   1.942  11.682  0.2690 -3.2799  1.5452
 5285TIP3   OH240049   0.087   6.271  11.141 -0.6552 -0.0527 -0.2619
 5285TIP3    H140050   0.047   6.219  11.071 -0.6610 -2.2595  1.2767
 5285TIP3    H240051   0.048   6.358  11.131 -1.5437 -0.6167 -2.2550
 5286TIP3   OH240052   5.642   5.098   9.142 -0.1004  0.2801  0.2778
 5286TIP3    H140053   5.580   5.119   9.073  1.6347  0.6109 -1.2388
 5286TIP3    H240054   5.602   5.133   9.222 -2.9396 -1.5933 -0.1887
 5287TIP3   OH240055   3.617   0.549  10.401  0.2609 -0.1104  0.0892
 5287TIP3    H140056   3.563   0.569  10.478  1.3203  0.2046  0.7696
 5287TIP3    H240057   3.689   0.495  10.436 -0.8378 -2.5608 -1.1747
 5288TIP3   OH240058   3.875   5.714  10.757  0.2495  0.1361 -0.0187
 5288TIP3    H140059   3.805   5.779  10.767 -1.7922 -1.5154 -2.2431
 5288TIP3    H240060   3.880   5.672  10.843 -0.4648  1.2324  0.5952
 5289TIP3   OH240061   3.414   6.074   8.156 -0.2974 -0.4299  0.5663
 5289TIP3    H140062   3.366   6.005   8.202  0.6570 -1.3345  0.2499
 5289TIP3    H240063   3.465   6.028   8.089  0.7435  0.5134  0.6681
 5290TIP3   OH240064   4.159   2.024   9.568 -0.0273  0.1177 -0.3310
 5290TIP3    H140065   4.211   2.004   9.490 -1.0773 -1.7491 -0.5884
 5290TIP3    H240066   4.209   1.986   9.641 -0.4080 -0.5714 -0.4281
 5291TIP3   OH240067   2.782   6.624   8.744 -0.1037  0.2265 -0.6578
 5291TIP3    H140068   2.835   6.651   8.669 -2.2264 -1.1677 -2.8112
 5291TIP3    H240069   2.692   6.640   8.717 -1.1545 -3.2491  0.2790
 5292TIP3   OH240070   0.064   2.462  11.034 -0.1666 -0.0706  0.5999
 5292TIP3    H140071   0.015   2.401  11.088 -1.5745  0.9049  0.4767
 5292TIP3    H240072   0.143   2.480  11.086 -0.0871 -1.3850  0.9719
 5293TIP3   OH240073   0.019   2.561   9.010 -0.3805 -0.0238 -0.5976
 5293TIP3    H140074   0.075   2.505   8.956  0.9665 -0.2625  0.9816
 5293TIP3    H240075  -0.046   2.501   9.047  0.1907 -0.3027 -0.0353
 5294TIP3   OH240076   1.927   2.797   8.598 -0.8088 -0.3958 -0.1149
 5294TIP3    H140077   1.960   2.864   8.658 -0.3720 -1.8857  1.3926
 5294TIP3    H240078   1.985   2.722   8.611 -3.0576 -2.1441  0.5903
 5295TIP3   OH240079   6.310   1.584   8.795  0.2210 -0.0843  0.2724
 5295TIP3    H140080   6.372   1.640   8.749  0.0718 -0.1703 -0.0358
 5295TIP3    H240081   6.231   1.586   8.741  0.2748 -0.7273  0.1620
 5296TIP3   OH240082   3.142   2.650   9.579 -0.0551  0.1688 -0.1753
 5296TIP3    H140083   3.122   2.590   9.507 -1.7033 -0.8173  1.0361
 5296TIP3    H240084   3.210   2.605   9.629  0.0163  0.1731 -0.2661
 5297TIP3   OH240085   5.651   3.813   9.783 -0.2405  0.5930  0.8045
 5297TIP3    H140086   5.699   3.739   9.746  0.9516  2.1552 -0.9223
 5297TIP3    H240087   5.561   3.799   9.753 -0.0467 -0.1953  0.5500
 5298TIP3   OH240088   1.337   4.136   9.882  0.3837  0.4221 -0.5837
 5298TIP3    H140089   1.344   4.161   9.974  0.0715  0.6653 -0.6263
 5298TIP3    H240090   1.270   4.194   9.846 -0.0450 -0.1851 -0.7848
 5299TIP3   OH240091   5.629   1.710   9.521  0.1039 -0.0686 -0.2426
 5299TIP3    H140092   5.707   1.654   9.530 -0.6780 -0.8969  1.9198
 5299TIP3    H240093   5.603   1.700   9.429  1.3944 -1.3435 -0.5077
 5300TIP3   OH240094   3.889   1.505   9.991 -0.6560  0.1988  0.4145
 5300TIP3    H140095   3.861   1.421  10.026 -1.3256  0.7856  1.3478
 5300TIP3    H240096   3.810   1.559   9.991 -0.1785  0.9194  0.1064
 5301TIP3   OH240097   6.248   6.076   8.534 -0.9706  0.3500 -0.8640
 5301TIP3    H140098   6.318   6.122   8.488 -1.1054  0.1512 -1.2767
 5301TIP3    H240099   6.293   6.017   8.594 -0.7972  0.9443 -0.4024
 5302TIP3   OH240100   4.550   0.659   9.535  0.0891  0.6050 -0.3093
 5302TIP3    H140101   4.522   0.747   9.561  1.6910  1.4765 -1.3381
 5302TIP3    H240102   4.586   0.671   9.447 -0.9881 -1.3755 -1.0765
 5303TIP3   OH240103   4.469   5.397  10.656  0.4694  0.3024 -0.6391
 5303TIP3    H140104   4.452   5.305  10.636  1.4366 -0.3901  1.5157
 5303TIP3    H240105   4.552   5.416  10.613  1.1648 -0.3702  0.3777
 5304TIP3   OH240106   1.186   2.573  10.410 -0.2776  0.0429  0.1099
 5304TIP3    H140107   1.167   2.496  10.463  1.0605 -1.1186 -1.0416
 5304TIP3    H240108   1.106   2.588  10.359 -0.8982  0.0475  1.0547
 5305TIP3   OH240109   5.895   4.052   9.785 -0.3577  0.1310 -0.1766
 5305TIP3    H140110   5.885   3.993   9.860 -0.0045  0.2422 -0.0379
 5305TIP3    H240111   5.840   4.127   9.806  0.0997  0.3706  0.1930
 5306TIP3   OH240112   4.730   1.423   9.805 -1.0638  0.5019  0.1492
 5306TIP3    H140113   4.810   1.378   9.780 -0.2379  1.2279  1.3416
 5306TIP3    H240114   4.663   1.389   9.746 -0.0572 -0.7472 -0.3163
 5307TIP3   OH240115   0.500   2.169  11.330 -0.1242 -0.2335 -0.2417
 5307TIP3    H140116   0.489   2.213  11.415  0.0128  0.1053 -0.3942
 5307TIP3    H240117   0.502   2.076  11.351 -1.0955 -0.2012  0.0187
 5308TIP3   OH240118   2.252   0.534   9.176  0.1409  0.0784 -0.0111
 5308TIP3    H140119   2.333   0.518   9.127  0.4997  1.4988  0.0622
 5308TIP3    H240120   2.183   0.505   9.117  0.6678 -0.3543 -0.4276
 5309TIP3   OH240121   0.001   6.416   9.428 -0.0697  0.1557 -0.7111
 5309TIP3    H140122  -0.085   6.394   9.465 -0.5341  0.6394 -1.4773
 5309TIP3    H240123   0.048   6.458   9.500 -0.0666 -1.0713  0.0374
 5310TIP3   OH240124   4.998   4.122  10.842  0.0650 -0.2252  0.0197
 5310TIP3    H140125   4.948   4.048  10.875  0.7794 -1.5081 -1.6314
 5310TIP3    H240126   5.071   4.131  10.903 -1.5288  1.0231  1.8639
 5311TIP3   OH240127   5.131   5.306   9.094 -0.1301  0.1306 -0.2497
 5311TIP3    H140128   5.112   5.269   9.180 -2.0442 -0.2208 -0.7818
 5311TIP3    H240129   5.154   5.397   9.112  4.0057 -0.9204  1.0121
 5312TIP3   OH240130   6.756   3.792  10.355 -0.3555 -0.0968 -0.4883
 5312TIP3    H140131   6.816   3.861  10.380 -0.5574 -0.2955  0.5819
 5312TIP3    H240132   6.685   3.837  10.309 -0.0262  0.2934 -0.6153
 5313TIP3   OH240133   0.790   3.361  11.377  0.3204 -0.2541 -0.1842
 5313TIP3    H140134   0.829   3.273  11.374  1.7863  0.3863 -1.2282
 5313TIP3    H240135   0.760   3.377  11.287  0.0273  0.2889  0.0078
 5314TIP3   OH240136   6.819   3.822   9.607 -0.6172 -0.7121  0.0058
 5314TIP3    H140137   6.811   3.778   9.522  0.5844 -0.4947 -0.2263
 5314TIP3    H240138   6.910   3.850   9.612 -1.2679  1.5658  0.2439
 5315TIP3   OH240139   5.100   5.668   8.556  0.5431 -0.1779  0.2409
 5315TIP3    H140140   5.028   5.720   8.523  1.0447  1.7158  1.9059
 5315TIP3    H240141   5.060   5.606   8.617  0.2911  1.1665  1.5078
 5316TIP3   OH240142   1.702   3.144  10.112 -0.0363 -0.2838 -0.2935
 5316TIP3    H140143   1.627   3.204  10.100 -0.5576 -0.3160  2.2606
 5316TIP3    H240144   1.725   3.153  10.204  0.4040 -3.4105  0.0108
 5317TIP3   OH240145   0.249   0.193  11.332 -0.2186 -0.3920  0.6071
 5317TIP3    H140146   0.266   0.286  11.318  1.6474 -0.9097 -1.2411
 5317TIP3    H240147   0.193   0.168  11.259  3.2000 -1.5564 -1.9262
 5318TIP3   OH240148   1.632   2.714  10.779  0.4002  0.2436 -0.2263
 5318TIP3    H140149   1.582   2.793  10.798  1.1177  0.9778 -1.2835
 5318TIP3    H240150   1.568   2.652  10.745 -0.3034  0.0734  1.3356
 5319TIP3   OH240151   3.517   1.363   9.995 -0.6245 -0.9863 -0.1437
 5319TIP3    H140152   3.425   1.376   9.971 -0.5264  0.5009  0.1830
 5319TIP3    H240153   3.513   1.316  10.078 -1.1023 -0.7368 -0.0179
 5320TIP3   OH240154   3.438   0.229   9.898  0.0165 -0.0698  0.0071
 5320TIP3    H140155   3.483   0.298   9.849 -1.4948  0.8770 -0.1241
 5320TIP3    H240156   3.432   0.262   9.987 -1.9326  0.6642 -0.3396
 5321TIP3   OH240157   6.653   6.503  10.836  0.2339  0.0747 -0.4749
 5321TIP3    H140158   6.683   6.509  10.746  0.9844  1.3227 -0.1829
 5321TIP3    H240159   6.584   6.570  10.843 -1.0231 -1.1685 -0.5346
 5322TIP3   OH240160   0.051   4.913  10.249  0.6514  0.2326  0.2257
 5322TIP3    H140161  -0.032   4.870  10.268  1.8456 -2.6859 -0.6891
 5322TIP3    H240162   0.027   4.991  10.199 -1.4786 -1.3101 -1.3129
 5323TIP3   OH240163   2.427   2.453  10.354  0.1810 -0.3983  0.0209
 5323TIP3    H140164   2.371   2.438  10.278 -0.7364 -1.1118  0.7898
 5323TIP3    H240165   2.384   2.524  10.402  1.8495  1.4573 -1.1118
 5324TIP3   OH240166   3.060   4.781  10.679  0.1500  0.3298  0.2062
 5324TIP3    H140167   2.977   4.781  10.632 -1.4976  2.0649  2.8545
 5324TIP3    H240168   3.090   4.871  10.675  1.3931 -0.0702  0.1785
 5325TIP3   OH240169   0.644   4.085  10.045 -0.0220  0.0482  0.0552
 5325TIP3    H140170   0.723   4.032  10.038 -0.5474 -0.6776 -0.4863
 5325TIP3    H240171   0.601   4.077   9.960 -0.6097  0.5541  0.2929
 5326TIP3   OH240172   2.797   6.414  11.437  0.4342  0.0191  0.3606
 5326TIP3    H140173   2.712   6.404  11.393  0.8898 -1.9287 -0.2104
 5326TIP3    H240174   2.819   6.506  11.428 -0.7286  0.1814 -1.2063
 5327TIP3   OH240175   4.555   3.601   8.969 -0.1774  0.5990 -0.4564
 5327TIP3    H140176   4.473   3.580   9.014 -0.3944  0.0509 -1.0882
 5327TIP3    H240177   4.600   3.517   8.962  0.2734  0.8379 -0.4471
 5328TIP3   OH240178   2.441   1.125   9.744  0.1668 -0.1962 -0.0747
 5328TIP3    H140179   2.493   1.204   9.760 -0.2273 -0.1366  0.9618
 5328TIP3    H240180   2.467   1.098   9.656 -1.6812  2.6296 -1.6809
 5329TIP3   OH240181   2.434   4.834  11.309 -0.4066 -0.1460  0.0919
 5329TIP3    H140182   2.512   4.819  11.257 -0.3167  0.2413  0.1103
 5329TIP3    H240183   2.456   4.908  11.365 -0.7246 -0.1466  0.2214
 5330TIP3   OH240184   3.430   1.238   9.539 -0.1215  0.1098  0.2331
 5330TIP3    H140185   3.379   1.205   9.613 -0.4357 -0.4979 -0.2427
 5330TIP3    H240186   3.420   1.333   9.542  0.7900  0.1977  1.6349
 5331TIP3   OH240187   0.891   2.328  10.282 -0.5161  0.1205  0.1734
 5331TIP3    H140188   0.839   2.247  10.277 -0.0014 -0.2756  1.0702
 5331TIP3    H240189   0.826   2.396  10.298 -1.1889  0.1959 -2.3382
 5332TIP3   OH240190   6.460   2.215  10.986  0.3377 -0.0703 -0.3541
 5332TIP3    H140191   6.380   2.216  11.038 -1.1955 -1.7359 -2.5191
 5332TIP3    H240192   6.435   2.175  10.903  3.7663 -2.1739 -0.5802
 5333TIP3   OH240193   2.470   2.194  11.248  0.0020  0.5014  0.1231
 5333TIP3    H140194   2.409   2.122  11.267 -0.7937  0.5093 -2.0815
 5333TIP3    H240195   2.554   2.164  11.282 -1.0024  0.0997  2.4635
 5334TIP3   OH240196   0.217   3.137  10.758 -0.4662 -0.1782  0.8499
 5334TIP3    H140197   0.275   3.069  10.791  0.5804 -0.0363 -0.6181
 5334TIP3    H240198   0.265   3.219  10.769 -0.7817  0.0602  0.5271
 5335TIP3   OH240199   2.562   6.094  11.269  0.4286 -0.7265  0.1355
 5335TIP3    H140200   2.575   6.080  11.363  1.7225  0.8505  0.2295
 5335TIP3    H240201   2.567   6.006  11.231 -1.3039 -1.5449  1.6268
 5336TIP3   OH240202   1.991   0.713  10.440 -0.2065  0.0549  0.6301
 5336TIP3    H140203   2.073   0.736  10.396  1.0739  0.8413  3.1892
 5336TIP3    H240204   2.010   0.629  10.483 -0.1334  0.9478  2.4669
 5337TIP3   OH240205   4.847   0.013  10.187 -0.4231 -0.6436 -0.2652
 5337TIP3    H140206   4.843  -0.028  10.274  0.3414 -2.8903 -1.2088
 5337TIP3    H240207   4.769  -0.020  10.142 -0.1413 -0.5431 -0.8328
 5338TIP3   OH240208   6.220   6.417   9.726 -0.2978 -0.0727 -0.0508
 5338TIP3    H140209   6.148   6.357   9.713 -1.0185  0.6537  0.4901
 5338TIP3    H240210   6.181   6.504   9.715  0.9839  0.3231 -2.2260
 5339TIP3   OH240211   2.542   2.268  11.508 -0.4786  0.0172  0.0835
 5339TIP3    H140212   2.531   2.180  11.545 -0.2033  0.3234  0.9159
 5339TIP3    H240213   2.514   2.259  11.417  0.4490 -1.1480 -0.1071
 5340TIP3   OH240214   3.147   5.772  11.241 -0.4011 -0.7912  0.5403
 5340TIP3    H140215   3.219   5.801  11.185 -0.8895 -1.8516 -0.6814
 5340TIP3    H240216   3.171   5.801  11.329  0.7000  0.3337 -0.1168
 5341TIP3   OH240217   0.209   3.811  11.625  0.2508  0.5509  0.5283
 5341TIP3    H140218   0.173   3.893  11.591  0.5132  0.3130 -0.3380
 5341TIP3    H240219   0.268   3.781  11.557  0.3438 -0.2366  0.9527
 5342TIP3   OH240220   5.395   2.625   9.126  0.3733 -1.1677  0.3198
 5342TIP3    H140221   5.353   2.710   9.135  2.0819 -0.4084  1.7160
 5342TIP3    H240222   5.353   2.585   9.050 -0.5076  0.8868 -0.3378
 5343TIP3   OH240223   1.684   1.086   9.485  0.1164  0.2984 -0.9632
 5343TIP3    H140224   1.646   1.065   9.400 -0.3643 -1.9676 -0.2629
 5343TIP3    H240225   1.778   1.090   9.469  0.0697 -0.5824 -1.5537
 5344TIP3   OH240226   4.375   4.902  11.180 -0.2439 -0.5624 -0.2371
 5344TIP3    H140227   4.311   4.969  11.157  1.4554  0.9379 -0.8746
 5344TIP3    H240228   4.328   4.841  11.237 -1.9816  0.9026 -0.0395
 5345TIP3   OH240229   2.283   1.038   9.398 -0.0440 -0.3765 -0.2799
 5345TIP3    H140230   2.293   0.956   9.350  0.3626  1.5371 -3.8305
 5345TIP3    H240231   2.373   1.064   9.420 -0.1174 -0.5182  0.1968
 5346TIP3   OH240232   6.361   4.892  11.235 -0.3701 -0.1305  0.1220
 5346TIP3    H140233   6.383   4.824  11.171 -0.2159 -0.2666  0.3212
 5346TIP3    H240234   6.358   4.973  11.183  0.3262 -0.1530  0.0454
 5347TIP3   OH240235   4.321   0.183  11.506 -0.1989  0.6425  0.2302
 5347TIP3    H140236   4.258   0.179  11.434  1.3909 -0.6459 -1.1583
 5347TIP3    H240237   4.336   0.277  11.520 -0.1990  0.9166 -1.4379
 5348TIP3   OH240238   1.488   0.305  11.666 -0.7209 -0.0434 -0.6029
 5348TIP3    H140239   1.417   0.244  11.687  0.7324 -1.2637  1.0376
 5348TIP3    H240240   1.468   0.384  11.717 -0.8859 -0.3773 -0.1515
 5349TIP3   OH240241   3.203   1.976  11.098 -0.1428  0.6699  0.5280
 5349TIP3    H140242   3.273   2.017  11.046 -0.7735  1.6842  0.4505
 5349TIP3    H240243   3.250   1.924  11.163  0.6634 -0.2866 -0.7707
 5350TIP3   OH240244   6.711   5.516  11.771  0.3592  0.4077  0.3170
 5350TIP3    H140245   6.639   5.560  11.816 -0.2406 -1.3131  1.1531
 5350TIP3    H240246   6.668   5.468  11.700  0.7976  0.1335  0.2315
 5351TIP3   OH240247   6.633   5.508   8.698 -0.1880  0.5106 -0.1263
 5351TIP3    H140248   6.576   5.574   8.738  1.1235  1.8217 -0.3300
 5351TIP3    H240249   6.614   5.512   8.605  0.3332  1.0638 -0.2137
 5352TIP3   OH240250   5.762   1.267  10.903  0.4075 -0.2927 -0.1819
 5352TIP3    H140251   5.749   1.353  10.861 -0.0096  0.2099  0.9287
 5352TIP3    H240252   5.779   1.288  10.995  0.6120 -1.3978  0.0403
 5353TIP3   OH240253   0.202   4.270   8.188 -0.2850 -0.2923  0.0096
 5353TIP3    H140254   0.152   4.326   8.129  1.5599 -1.0715 -2.4259
 5353TIP3    H240255   0.280   4.321   8.210  0.6192 -1.2277 -0.9261
 5354TIP3   OH240256   4.264   4.654   9.888  0.1349 -0.3197  0.2673
 5354TIP3    H140257   4.333   4.638   9.823  1.1329 -0.9262  1.4415
 5354TIP3    H240258   4.210   4.575   9.886  1.7123 -1.5457  1.9816
 5355TIP3   OH240259   5.841   2.445  10.924  0.4571  0.5374  0.9847
 5355TIP3    H140260   5.911   2.455  10.989  1.9303  1.4693 -0.6452
 5355TIP3    H240261   5.835   2.530  10.882 -0.3240 -0.0810 -0.2068
 5356TIP3   OH240262   3.814   5.983   9.709 -0.9378  0.0464  0.4237
 5356TIP3    H140263   3.819   5.990   9.614 -1.3122 -0.1601  0.3875
 5356TIP3    H240264   3.830   5.890   9.727  2.1758  0.5308  0.7797
 5357TIP3   OH240265   5.176   2.959   9.650 -0.1454  0.2724  0.0552
 5357TIP3    H140266   5.117   2.984   9.721  0.5571 -0.2863  0.8614
 5357TIP3    H240267   5.251   2.918   9.694 -0.4153 -1.5645 -1.0873
 5358TIP3   OH240268   0.681   1.393  11.171 -0.0085  0.2198 -0.4411
 5358TIP3    H140269   0.772   1.419  11.158  0.0784  1.1779  1.6638
 5358TIP3    H240270   0.675   1.368  11.263 -1.5632 -1.2844 -0.8804
 5359TIP3   OH240271   4.881   1.083  10.973  0.2892  0.0604  0.4558
 5359TIP3    H140272   4.799   1.111  11.016 -0.2938  0.3907 -0.8163
 5359TIP3    H240273   4.868   1.107  10.881  0.8354 -2.0828 -0.2175
 5360TIP3   OH240274   3.212   2.025  10.713 -0.2171  0.4161  0.0604
 5360TIP3    H140275   3.162   2.102  10.687 -1.3568 -0.3643 -0.1431
 5360TIP3    H240276   3.263   2.002  10.636 -0.9275  0.1636 -0.3428
 5361TIP3   OH240277   2.938   5.241   9.193 -0.7955  0.2392  0.2529
 5361TIP3    H140278   2.923   5.157   9.237 -0.3194 -0.1688 -0.3517
 5361TIP3    H240279   2.912   5.307   9.258 -3.0987 -0.3686  0.0662
 5362TIP3   OH240280   2.053   4.881  10.696  0.0784 -0.0711 -0.2186
 5362TIP3    H140281   1.966   4.870  10.735  0.5423  1.5285  1.3814
 5362TIP3    H240282   2.104   4.807  10.729 -0.6750 -1.0937 -1.2710
 5363TIP3   OH240283   4.991   6.232  10.889 -0.0046 -0.6377 -0.3086
 5363TIP3    H140284   4.997   6.144  10.851 -0.5032 -1.0704  0.6006
 5363TIP3    H240285   4.947   6.284  10.821  0.5062 -1.0283 -0.9460
 5364TIP3   OH240286   5.041   4.722   8.705  0.2146  0.1853 -0.0187
 5364TIP3    H140287   5.039   4.749   8.797 -0.1495  0.1542 -0.0151
 5364TIP3    H240288   4.974   4.775   8.663  1.9992  1.9622 -0.7680
 5365TIP3   OH240289   5.161   1.190  10.854  0.2462 -0.1783  0.0537
 5365TIP3    H140290   5.199   1.233  10.930 -0.0063 -2.1477  1.3668
 5365TIP3    H240291   5.070   1.174  10.878  0.2623 -1.1814 -0.4990
 5366TIP3   OH240292   2.901   5.489  10.563 -0.4150 -0.6313  0.3290
 5366TIP3    H140293   2.826   5.458  10.512 -1.2116  1.5712  0.0478
 5366TIP3    H240294   2.972   5.496  10.499 -0.5267 -0.8148  0.1843
 5367TIP3   OH240295   5.487   2.966  11.146 -0.2153 -0.3654  0.3031
 5367TIP3    H140296   5.579   2.990  11.163 -0.7540  0.5512  2.1898
 5367TIP3    H240297   5.492   2.875  11.115  1.4739  0.3954 -1.9103
 5368TIP3   OH240298   4.529   5.198  11.297 -0.1560 -1.0971  0.0201
 5368TIP3    H140299   4.479   5.121  11.270 -0.9010 -0.3650 -0.7716
 5368TIP3    H240300   4.601   5.203  11.234 -1.3396  0.0525 -1.3235
 5369TIP3   OH240301   0.293   0.535   9.279 -0.1010  0.3778 -0.4938
 5369TIP3    H140302   0.343   0.495   9.208 -0.7433 -3.3147  0.9197
 5369TIP3    H240303   0.203   0.509   9.263 -0.5311  1.0829  0.6533
 5370TIP3   OH240304   1.483   0.401  10.055  0.2696  0.4233  0.2463
 5370TIP3    H140305   1.443   0.480  10.020  1.3551  1.0783  0.4450
 5370TIP3    H240306   1.500   0.420  10.147 -0.7130 -0.5570  0.6585
 5371TIP3   OH240307   2.686   5.292   8.967  0.9267  0.0554  0.2725
 5371TIP3    H140308   2.688   5.288   9.062  0.5314 -0.1290  0.2735
 5371TIP3    H240309   2.647   5.209   8.940 -0.6883  0.8656  0.0201
 5372TIP3   OH240310   6.776   1.521  10.664  0.4821 -0.5194  0.4550
 5372TIP3    H140311   6.764   1.583  10.592 -0.8037 -1.9602 -0.6250
 5372TIP3    H240312   6.871   1.518  10.678  0.5954  1.7164  0.6204
 5373TIP3   OH240313   2.751   4.553   9.192 -0.0420  0.2010 -0.5576
 5373TIP3    H140314   2.752   4.525   9.284 -1.0909  2.3671  0.1773
 5373TIP3    H240315   2.837   4.592   9.178  0.2355 -0.4156 -0.6136
 5374TIP3   OH240316   3.400   4.608  11.157 -0.1477  0.0550 -0.4322
 5374TIP3    H140317   3.441   4.662  11.089 -0.1757 -1.7597 -1.9870
 5374TIP3    H240318   3.474   4.566  11.201 -0.1337  1.1760  0.6611
 5375TIP3   OH240319   0.493   3.025  11.180 -0.5099 -0.0705 -0.1074
 5375TIP3    H140320   0.529   2.945  11.219 -0.6924 -0.1800 -0.1622
 5375TIP3    H240321   0.489   3.087  11.252 -0.2222 -0.0613 -0.0973
 5376TIP3   OH240322   3.097   0.525   9.991  0.3864  0.0613  0.5449
 5376TIP3    H140323   3.161   0.581   9.946 -0.2287  0.0786 -0.3403
 5376TIP3    H240324   3.142   0.441  10.002  0.4973  0.0057 -0.2590
 5377TIP3   OH240325   2.334   2.621   8.918  0.3504  0.1355 -0.5080
 5377TIP3    H140326   2.378   2.540   8.945 -1.5235 -1.7502 -2.6350
 5377TIP3    H240327   2.402   2.672   8.873  1.1150 -1.2652 -1.0035
 5378TIP3   OH240328   3.102   4.347   8.124 -0.0004  0.3659  0.1075
 5378TIP3    H140329   3.165   4.387   8.184 -1.4478  2.4560  0.3711
 5378TIP3    H240330   3.106   4.400   8.045 -1.2313  0.4184  0.0506
 5379TIP3   OH240331   1.935   3.173  10.355 -0.8065 -0.4691 -0.2101
 5379TIP3    H140332   1.903   3.106  10.416 -1.1991 -1.0640 -1.0538
 5379TIP3    H240333   2.030   3.160  10.353 -0.8747 -0.9681 -0.3269
 5380TIP3   OH240334   3.644   5.291   8.790 -0.5742  0.5982 -0.7561
 5380TIP3    H140335   3.725   5.240   8.793 -0.4600  0.7977  0.9740
 5380TIP3    H240336   3.628   5.307   8.697  1.0375  0.0273 -1.1620
 5381TIP3   OH240337   3.384   0.720   8.706 -0.0643 -0.1931 -0.0706
 5381TIP3    H140338   3.303   0.771   8.712 -0.2395 -0.6040  1.5006
 5381TIP3    H240339   3.356   0.635   8.672 -0.6210 -0.9056  2.0047
 5382TIP3   OH240340   0.621   5.086  11.384 -0.9412  0.0821 -0.0282
 5382TIP3    H140341   0.602   5.093  11.477 -0.3525  1.0177  0.0296
 5382TIP3    H240342   0.620   4.991  11.366 -1.5841 -0.0775  0.8037
 5383TIP3   OH240343   5.911   3.323  11.725  0.3344  0.4467  0.2786
 5383TIP3    H140344   5.893   3.311  11.818  1.1441 -0.3926  0.3379
 5383TIP3    H240345   5.954   3.408  11.719  0.0070  0.6408  0.6244
 5384TIP3   OH240346   3.159   0.752   9.682 -0.0299 -0.3157 -0.0024
 5384TIP3    H140347   3.244   0.790   9.705  0.8709 -2.0245 -0.3301
 5384TIP3    H240348   3.101   0.778   9.753  0.3790  2.0451 -0.4668
 5385TIP3   OH240349   2.911   3.243   8.473  0.0030  0.3941  0.2222
 5385TIP3    H140350   2.869   3.161   8.497 -0.0579  0.2700 -0.3025
 5385TIP3    H240351   3.002   3.233   8.503 -0.1904  0.4433  0.8463
 5386TIP3   OH240352   0.139   2.411  11.524  0.5027 -0.2216 -0.2145
 5386TIP3    H140353   0.144   2.327  11.569 -0.5682  0.0256  0.3826
 5386TIP3    H240354   0.191   2.398  11.445  1.9927 -0.8333  0.8045
 5387TIP3   OH240355   1.789   3.188  10.629  0.5266 -0.1053  0.3282
 5387TIP3    H140356   1.866   3.245  10.637  0.0398  0.4827  1.0056
 5387TIP3    H240357   1.717   3.241  10.663 -0.6035  0.2049 -2.3109
 5388TIP3   OH240358   1.145   5.664   9.767 -0.2158  0.0839 -0.3207
 5388TIP3    H140359   1.175   5.575   9.746  1.3850 -0.0394  2.1538
 5388TIP3    H240360   1.151   5.711   9.684  2.4997 -1.1897 -0.9477
 5389TIP3   OH240361   1.762   4.649  11.003 -0.1501 -0.1030 -0.1414
 5389TIP3    H140362   1.749   4.626  11.095 -0.5842  1.7305  0.3115
 5389TIP3    H240363   1.678   4.685  10.975 -0.2269 -1.2374 -1.4873
 5390TIP3   OH240364   4.465   0.227   8.873 -0.1572  0.0333 -0.1190
 5390TIP3    H140365   4.531   0.158   8.881  0.3783  0.4947 -0.5534
 5390TIP3    H240366   4.401   0.193   8.811  0.5274  0.2504 -0.9543
 5391TIP3   OH240367   3.244   3.265   1.825 -0.5442 -0.3566 -0.1450
 5391TIP3    H140368   3.314   3.241   1.885  1.2451  0.1739 -1.9235
 5391TIP3    H240369   3.181   3.192   1.832 -0.1646 -0.5405  1.9325
 5392TIP3   OH240370   2.051   4.927   3.993 -0.3676 -0.7369 -0.1448
 5392TIP3    H140371   2.104   4.994   4.037 -1.3380  0.0402 -0.1165
 5392TIP3    H240372   2.114   4.870   3.951  0.5032 -0.0801  0.2450
 5393TIP3   OH240373   6.687   6.238   0.332 -0.7843 -0.1629 -0.0938
 5393TIP3    H140374   6.744   6.162   0.323 -0.1213  0.4439 -1.2312
 5393TIP3    H240375   6.603   6.209   0.298 -0.4963 -0.3548 -0.6574
 5394TIP3   OH240376   3.913   5.763   1.109 -0.0003  0.3848  0.0716
 5394TIP3    H140377   3.860   5.704   1.163  0.5325 -0.3524 -0.2047
 5394TIP3    H240378   3.955   5.821   1.172  0.0350  0.0118  0.3956
 5395TIP3   OH240379   3.395   0.649   3.147  0.4087 -0.2455 -0.8852
 5395TIP3    H140380   3.374   0.558   3.170  0.5729 -0.2426 -0.7247
 5395TIP3    H240381   3.344   0.701   3.209  1.0538 -0.2406 -0.3489
 5396TIP3   OH240382   2.140   0.312   1.064 -0.6875  0.0419 -0.4317
 5396TIP3    H140383   2.074   0.266   1.115 -0.1701  1.2751  1.4522
 5396TIP3    H240384   2.106   0.311   0.974 -0.6104 -4.0174 -0.5570
 5397TIP3   OH240385   2.941   1.842   2.032  0.0375 -0.6611 -0.3782
 5397TIP3    H140386   3.020   1.819   1.983  0.0944 -1.2656 -0.0181
 5397TIP3    H240387   2.869   1.822   1.973  0.1160 -1.1349 -0.3193
 5398TIP3   OH240388   5.849   3.514   2.064 -0.4113 -1.0807 -1.0335
 5398TIP3    H140389   5.846   3.468   1.980  0.0733 -2.7590 -0.1744
 5398TIP3    H240390   5.931   3.562   2.062 -1.6014  1.0852 -2.5583
 5399TIP3   OH240391   2.762   4.272   1.774 -0.3858  0.4083 -0.3441
 5399TIP3    H140392   2.672   4.295   1.749 -0.6711 -0.5047 -0.2104
 5399TIP3    H240393   2.763   4.281   1.870  0.1376  1.9780 -0.4772
 5400TIP3   OH240394   5.813   5.927   0.623 -0.2561  0.1601  0.1661
 5400TIP3    H140395   5.865   5.978   0.561 -2.8186  0.1068 -2.2191
 5400TIP3    H240396   5.851   5.839   0.620  2.3403  1.0863  2.0911
 5401TIP3   OH240397   4.003   6.111   2.265 -0.5039 -0.1700  0.5975
 5401TIP3    H140398   3.967   6.068   2.343 -1.3887 -0.7523 -0.1115
 5401TIP3    H240399   3.940   6.093   2.196  0.5825 -0.2234 -0.4263
 5402TIP3   OH240400   3.854   1.530   1.928 -0.1678  0.0459  0.0277
 5402TIP3    H140401   3.803   1.567   1.999  0.4528 -0.1596  0.5865
 5402TIP3    H240402   3.944   1.527   1.961  0.1284 -0.0685 -0.7511
 5403TIP3   OH240403   2.679   3.757   3.895 -0.4878 -0.4346 -0.3393
 5403TIP3    H140404   2.736   3.708   3.953  1.2620  0.8991 -0.8464
 5403TIP3    H240405   2.646   3.829   3.949  1.5810  1.1309 -1.0377
 5404TIP3   OH240406   1.065   3.073   2.752  0.0276 -0.6311  0.7652
 5404TIP3    H140407   0.973   3.092   2.773  0.0028  1.1082 -0.6802
 5404TIP3    H240408   1.104   3.050   2.836 -1.7023 -1.3314  1.4294
 5405TIP3   OH240409   0.893   1.897   2.664 -0.0949  0.2466  0.2733
 5405TIP3    H140410   0.866   1.875   2.753 -1.0406 -0.9896 -0.2838
 5405TIP3    H240411   0.813   1.891   2.612  0.8091 -1.3582 -1.0564
 5406TIP3   OH240412   2.545   2.231   3.912  0.0650  0.0132  0.6794
 5406TIP3    H140413   2.539   2.293   3.985  0.8025  2.0716 -0.8978
 5406TIP3    H240414   2.628   2.254   3.869 -0.9297 -0.2711 -1.5208
 5407TIP3   OH240415   3.403   4.305   1.575  0.0470  0.0538 -0.0576
 5407TIP3    H140416   3.458   4.383   1.580 -0.8990  0.6866  0.9332
 5407TIP3    H240417   3.447   4.242   1.632 -0.9086  1.0173  1.8454
 5408TIP3   OH240418   6.263   4.913   1.330  0.2230  0.1766 -0.2693
 5408TIP3    H140419   6.176   4.889   1.298 -1.3250  3.6042  0.9456
 5408TIP3    H240420   6.296   4.975   1.265  2.4208 -1.9120 -1.3314
 5409TIP3   OH240421   0.641   6.077   1.163 -0.0537  0.5120 -0.0907
 5409TIP3    H140422   0.664   6.067   1.071 -1.5055  2.4787 -0.7149
 5409TIP3    H240423   0.619   6.169   1.173  1.5603  0.7275  2.6038
 5410TIP3   OH240424   3.874   2.572   3.107  0.7570  0.2197  0.5624
 5410TIP3    H140425   3.944   2.632   3.080 -0.5222  1.2780 -0.5525
 5410TIP3    H240426   3.876   2.503   3.041  2.5662 -1.3377  2.1307
 5411TIP3   OH240427   5.203   6.473   3.216 -0.2027  0.1262 -0.5122
 5411TIP3    H140428   5.154   6.492   3.297 -0.9254  0.9503 -1.1249
 5411TIP3    H240429   5.151   6.406   3.172 -1.3077  1.6153 -1.5815
 5412TIP3   OH240430   5.289   2.393   1.645 -0.0461 -0.5306 -0.5497
 5412TIP3    H140431   5.251   2.332   1.708  0.4799  0.5399  0.8791
 5412TIP3    H240432   5.214   2.432   1.601 -0.4338 -1.1882 -0.4858
 5413TIP3   OH240433   0.377   3.080   2.598  0.8172 -0.1923 -0.0576
 5413TIP3    H140434   0.379   2.986   2.583 -0.1902 -0.0078 -1.6047
 5413TIP3    H240435   0.301   3.111   2.548  0.4704  1.3021  1.3096
 5414TIP3   OH240436   5.114   3.717   3.036 -0.1889 -0.0404 -0.4233
 5414TIP3    H140437   5.155   3.795   3.074 -0.3970 -0.1157 -0.0390
 5414TIP3    H240438   5.090   3.663   3.111 -0.4109 -0.2919 -0.6705
 5415TIP3   OH240439   2.836   5.479   1.384 -0.1495 -0.1507  0.3667
 5415TIP3    H140440   2.854   5.421   1.310 -0.5971 -0.0343  0.1644
 5415TIP3    H240441   2.914   5.472   1.440  0.9250  0.9685 -0.8999
 5416TIP3   OH240442   5.675   6.771   0.728 -0.3185 -0.4527 -0.0634
 5416TIP3    H140443   5.622   6.800   0.803  0.9236  0.4875  0.4929
 5416TIP3    H240444   5.635   6.815   0.653 -0.3860  0.1979  0.3356
 5417TIP3   OH240445   5.847   6.816   3.157  0.5975 -0.0637  0.5945
 5417TIP3    H140446   5.900   6.844   3.083 -0.9171  0.9981 -0.1491
 5417TIP3    H240447   5.773   6.770   3.118 -0.1175  0.3335  1.4373
 5418TIP3   OH240448   1.888   2.861   1.838 -0.0224 -0.1560  0.0882
 5418TIP3    H140449   1.803   2.866   1.795  0.5576  3.3188 -0.9350
 5418TIP3    H240450   1.886   2.931   1.904  1.6189 -0.8182  0.8870
 5419TIP3   OH240451   4.728   3.440   2.582 -0.5018 -0.2653 -0.4464
 5419TIP3    H140452   4.731   3.420   2.488  1.8158 -1.5123 -0.1856
 5419TIP3    H240453   4.744   3.534   2.587  1.2224 -0.4637 -1.2838
 5420TIP3   OH240454   6.835   1.132   3.193  0.0674 -0.5888  0.1441
 5420TIP3    H140455   6.908   1.191   3.175 -1.0514  0.2065 -2.1718
 5420TIP3    H240456   6.767   1.189   3.231  0.1391 -1.0622  1.0157
 5421TIP3   OH240457   3.348   5.380   2.506  0.4533 -0.1773 -0.2305
 5421TIP3    H140458   3.269   5.432   2.493  1.6037  1.9366  0.7207
 5421TIP3    H240459   3.378   5.403   2.594  2.4753 -0.3864 -0.8175
 5422TIP3   OH240460   1.106   5.445   1.989 -0.1636 -0.1304 -0.6709
 5422TIP3    H140461   1.042   5.516   1.986  0.2331  0.2658  0.0901
 5422TIP3    H240462   1.054   5.367   2.008 -0.3887  0.2343  0.2542
 5423TIP3   OH240463   6.600   2.923   2.886 -0.1696 -0.6762  0.2444
 5423TIP3    H140464   6.543   2.846   2.893 -0.1293 -0.6742  0.5891
 5423TIP3    H240465   6.660   2.901   2.815  0.8782 -1.6454  1.3810
 5424TIP3   OH240466   0.520   2.559   2.245 -0.0407 -1.0329 -0.8263
 5424TIP3    H140467   0.499   2.639   2.197 -1.5279 -1.8732 -1.6666
 5424TIP3    H240468   0.435   2.514   2.255 -0.1714 -0.3223  3.7518
 5425TIP3   OH240469   1.276   1.049   1.292 -0.0831  0.1763  0.5630
 5425TIP3    H140470   1.275   0.972   1.349 -2.1950  1.8560  3.0017
 5425TIP3    H240471   1.185   1.063   1.269  0.6860 -0.6039 -3.7102
 5426TIP3   OH240472   5.414   0.517   2.538  0.4531 -0.3767  0.1542
 5426TIP3    H140473   5.328   0.480   2.561  0.6041 -0.4775  0.5611
 5426TIP3    H240474   5.464   0.442   2.505  0.5411 -0.4093  0.3616
 5427TIP3   OH240475   6.827   6.002   0.400 -0.1520  0.0609  0.2932
 5427TIP3    H140476   6.761   5.934   0.384  0.9765 -1.4924  1.7826
 5427TIP3    H240477   6.910   5.957   0.386  0.6483  0.9009  2.0388
 5428TIP3   OH240478   1.127   5.672   4.309  0.6836  0.1273  0.5357
 5428TIP3    H140479   1.128   5.750   4.253  0.1503 -0.8201 -0.8354
 5428TIP3    H240480   1.192   5.614   4.270  0.4317 -0.4909  1.0242
 5429TIP3   OH240481   5.178   2.727   2.159  0.2838 -0.0934  0.2971
 5429TIP3    H140482   5.129   2.663   2.209 -2.4144 -0.4551 -2.4977
 5429TIP3    H240483   5.262   2.685   2.142 -0.2829 -1.6083  1.0458
 5430TIP3   OH240484   3.510   1.579   1.315 -0.2307  0.3257  0.9774
 5430TIP3    H140485   3.469   1.578   1.229 -1.0918  0.1243  1.3825
 5430TIP3    H240486   3.604   1.589   1.297 -0.5722  2.5195  0.0975
 5431TIP3   OH240487   2.832   6.389   1.746 -0.0254  0.5681 -0.0389
 5431TIP3    H140488   2.849   6.329   1.819  0.3920  0.3222 -0.3316
 5431TIP3    H240489   2.739   6.410   1.753 -0.3813 -0.7762 -0.4200
 5432TIP3   OH240490   0.861   4.524   2.996 -0.1597 -0.2847  0.7668
 5432TIP3    H140491   0.799   4.572   2.940  0.3434  0.1716  0.5990
 5432TIP3    H240492   0.902   4.591   3.050  1.2500 -0.3813 -0.1336
 5433TIP3   OH240493   1.868   2.750   1.432  0.3873  0.2231 -0.1222
 5433TIP3    H140494   1.851   2.833   1.477  1.5160  0.5662 -0.2919
 5433TIP3    H240495   1.840   2.766   1.341  0.0954  0.2388 -0.0291
 5434TIP3   OH240496   0.343   4.409   0.962 -0.5481  0.0925 -0.1026
 5434TIP3    H140497   0.270   4.443   1.013 -0.5135  0.6618 -0.4268
 5434TIP3    H240498   0.405   4.481   0.957 -0.4018 -0.0611 -0.6655
 5435TIP3   OH240499   3.571   0.156   1.689  0.0468 -0.3770 -0.6315
 5435TIP3    H140500   3.490   0.195   1.656  0.8549 -0.1729 -2.5242
 5435TIP3    H240501   3.637   0.224   1.677  0.7615 -1.0179 -0.4049
 5436TIP3   OH240502   5.628   5.151   0.411  0.4967  0.2875 -0.7455
 5436TIP3    H140503   5.721   5.154   0.389  0.4747 -1.0867 -1.1019
 5436TIP3    H240504   5.614   5.064   0.447 -0.6264  0.5417 -0.5178
 5437TIP3   OH240505   2.291   4.470   1.040  0.0071 -1.1444  0.3519
 5437TIP3    H140506   2.223   4.514   0.990 -0.5542 -2.8255 -0.4059
 5437TIP3    H240507   2.319   4.536   1.104 -2.6797 -0.5751  1.0623
 5438TIP3   OH240508   0.078   1.797   2.791 -0.2642  0.6988 -0.3866
 5438TIP3    H140509   0.059   1.753   2.874 -0.8222  0.9744 -0.3590
 5438TIP3    H240510   0.045   1.886   2.804  0.2657  0.9343 -0.6654
 5439TIP3   OH240511   5.411   6.074   1.774  0.4243 -0.6617  0.6951
 5439TIP3    H140512   5.340   6.138   1.774  0.8359 -0.1989  0.5440
 5439TIP3    H240513   5.394   6.019   1.697 -0.9059 -1.8509  1.7925
 5440TIP3   OH240514   4.560   3.366   1.023  0.1484  0.0894 -0.2440
 5440TIP3    H140515   4.499   3.333   0.957  0.1579  0.2543 -0.3348
 5440TIP3    H240516   4.637   3.310   1.013 -0.2665 -0.6102  0.3772
 5441TIP3   OH240517   1.075   5.809   3.459  0.0030 -0.1956  0.2251
 5441TIP3    H140518   0.996   5.859   3.440 -1.0142 -0.8396  2.4348
 5441TIP3    H240519   1.126   5.867   3.517  2.3097  1.1264 -2.8415
 5442TIP3   OH240520   2.233   1.224   1.381 -0.0300 -0.4195  0.0464
 5442TIP3    H140521   2.272   1.139   1.401 -0.3358 -0.4347  0.6332
 5442TIP3    H240522   2.247   1.237   1.288  0.5473 -0.8425  0.0719
 5443TIP3   OH240523   4.231   2.081   1.514  0.3888 -0.0867 -0.1205
 5443TIP3    H140524   4.172   2.007   1.497  0.3329 -0.2473  0.7539
 5443TIP3    H240525   4.243   2.121   1.428 -0.2013 -0.6481 -0.4788
 5444TIP3   OH240526   5.253   2.258   3.311 -0.6181  0.3743  0.2008
 5444TIP3    H140527   5.286   2.235   3.398 -0.3897  0.3520  0.1105
 5444TIP3    H240528   5.158   2.262   3.321 -0.6010  0.2405  0.4196
 5445TIP3   OH240529   1.698   0.349   3.261  0.6096 -0.0196  0.0995
 5445TIP3    H140530   1.661   0.425   3.215 -2.5031  0.1082  2.4843
 5445TIP3    H240531   1.676   0.275   3.205 -2.2820  0.2339  0.7282
 5446TIP3   OH240532   6.710   3.398   2.076 -0.1678  0.2880 -0.5078
 5446TIP3    H140533   6.767   3.444   2.138  1.8954 -2.4624 -0.1329
 5446TIP3    H240534   6.756   3.405   1.992 -0.1088 -0.5395 -0.5559
 5447TIP3   OH240535   1.450   0.473   2.442 -0.7362  0.6437  0.0386
 5447TIP3    H140536   1.510   0.416   2.491 -2.4182 -0.6276  0.7544
 5447TIP3    H240537   1.427   0.542   2.505 -0.8647  0.5121  0.1363
 5448TIP3   OH240538   3.431   4.206   2.549  0.2234 -0.0880  0.4274
 5448TIP3    H140539   3.510   4.179   2.595  0.7368  0.1038 -0.3380
 5448TIP3    H240540   3.454   4.203   2.456 -0.1676  1.5514  0.2549
 5449TIP3   OH240541   5.501   3.378   2.917 -0.5354 -0.2809  0.2544
 5449TIP3    H140542   5.526   3.322   2.843  0.0280  0.9195 -0.4863
 5449TIP3    H240543   5.578   3.432   2.934 -1.5040  1.2439  0.0292
 5450TIP3   OH240544   3.663   2.751   3.136 -0.7104  0.4820 -0.6382
 5450TIP3    H140545   3.732   2.685   3.129 -0.8470  0.3471 -0.7365
 5450TIP3    H240546   3.600   2.712   3.197 -0.8634  0.4578 -0.8115
 5451TIP3   OH240547   6.098   3.599   1.168  0.1572  0.1257 -0.9823
 5451TIP3    H140548   6.153   3.619   1.243 -2.7658 -1.2346  1.7433
 5451TIP3    H240549   6.105   3.504   1.157 -2.1835 -0.2225  0.0139
 5452TIP3   OH240550   6.360   2.529   0.645 -0.3194  0.1166  0.4175
 5452TIP3    H140551   6.277   2.486   0.664 -1.2650  0.9982 -1.3875
 5452TIP3    H240552   6.338   2.622   0.639  1.2511  0.6597  2.1022
 5453TIP3   OH240553   6.205   2.289   2.004  0.5218  0.4669 -0.4572
 5453TIP3    H140554   6.258   2.236   2.064 -0.7779  0.1635  0.4790
 5453TIP3    H240555   6.267   2.321   1.938  1.9598  0.6157  0.9120
 5454TIP3   OH240556   1.370   0.448   0.717  0.5408 -0.0839  0.6573
 5454TIP3    H140557   1.368   0.502   0.796 -0.4567 -1.2378  1.4768
 5454TIP3    H240558   1.314   0.373   0.739 -1.3485  0.4622 -1.8325
 5455TIP3   OH240559   2.080   1.165   1.759 -0.6195  0.5291 -0.3445
 5455TIP3    H140560   1.992   1.203   1.755 -0.3731  1.5032  1.9211
 5455TIP3    H240561   2.087   1.113   1.679 -3.6080 -0.3779 -0.1344
 5456TIP3   OH240562   6.367   5.750   2.511 -0.5898 -1.3866  0.1436
 5456TIP3    H140563   6.273   5.758   2.527 -0.7004 -1.6214 -0.3661
 5456TIP3    H240564   6.405   5.828   2.552 -1.0226 -1.2089  0.2134
 5457TIP3   OH240565   5.777   1.894   2.551 -0.3942 -0.1676  0.4043
 5457TIP3    H140566   5.712   1.863   2.487 -1.5328  0.3529  1.2662
 5457TIP3    H240567   5.756   1.847   2.631  0.4350 -0.1259  0.6544
 5458TIP3   OH240568   0.274   1.873   1.997  0.1484 -0.2493 -1.0914
 5458TIP3    H140569   0.247   1.781   1.995  0.9999 -0.5080 -1.8020
 5458TIP3    H240570   0.292   1.894   1.905  1.5417  0.1271 -0.7537
 5459TIP3   OH240571   2.368   4.311   1.823 -0.1373 -0.0412 -0.0921
 5459TIP3    H140572   2.278   4.309   1.857  0.0875  0.4589  0.5420
 5459TIP3    H240573   2.371   4.239   1.760 -0.6598 -0.7830  0.7067
 5460TIP3   OH240574   0.748   2.707   2.328 -0.1760  0.5132  0.6112
 5460TIP3    H140575   0.737   2.747   2.242 -2.1095 -1.2686 -0.0494
 5460TIP3    H240576   0.709   2.620   2.320 -0.9393  0.4723  3.4151
 5461TIP3   OH240577   4.431   4.253   2.200  0.6834  0.2571  0.6377
 5461TIP3    H140578   4.516   4.209   2.202  1.1727  1.1851  0.8399
 5461TIP3    H240579   4.375   4.195   2.148  1.7287  0.1359 -0.3996
 5462TIP3   OH240580   0.256   5.618   3.557  0.3163 -0.2334  0.4338
 5462TIP3    H140581   0.247   5.523   3.548  0.2959 -0.2723  0.8624
 5462TIP3    H240582   0.203   5.641   3.633 -0.1535  0.2065 -0.0217
 5463TIP3   OH240583   1.752   3.701   0.672 -0.3746  0.3444  0.2237
 5463TIP3    H140584   1.712   3.788   0.663 -1.9666 -0.5071 -1.6566
 5463TIP3    H240585   1.839   3.711   0.634 -1.0158  0.8601 -1.1826
 5464TIP3   OH240586   3.372   0.257   2.223  0.0508 -0.4181  0.3452
 5464TIP3    H140587   3.429   0.264   2.147 -2.1551 -3.0913 -1.8013
 5464TIP3    H240588   3.405   0.181   2.271  0.5388  0.3551  1.2599
 5465TIP3   OH240589   5.722   6.490   3.052 -0.1480 -0.0230  0.7156
 5465TIP3    H140590   5.769   6.434   3.114 -0.1677  0.6642  1.3650
 5465TIP3    H240591   5.629   6.476   3.073 -0.1895 -0.3674  0.3227
 5466TIP3   OH240592   1.412   3.217   0.728  0.3415 -0.0683 -0.1327
 5466TIP3    H140593   1.508   3.223   0.729  0.4651 -0.7879 -2.1206
 5466TIP3    H240594   1.394   3.130   0.764  0.3497  0.4128  1.0847
 5467TIP3   OH240595   2.806   2.405   3.525  0.1438  0.2932  0.1931
 5467TIP3    H140596   2.832   2.315   3.506 -0.4166  0.2491 -0.4009
 5467TIP3    H240597   2.772   2.402   3.614  0.4514 -0.0127  0.3018
 5468TIP3   OH240598   3.262   6.135   3.207 -0.6243  0.1270 -0.9846
 5468TIP3    H140599   3.214   6.211   3.173 -1.9026 -0.8267 -1.3688
 5468TIP3    H240600   3.248   6.067   3.141 -0.9449 -0.9663  0.1859
 5469TIP3   OH240601   3.951   5.947   1.768 -0.2670 -0.4944  0.0304
 5469TIP3    H140602   4.020   5.998   1.725 -0.8828 -0.4377 -0.9206
 5469TIP3    H240603   3.950   5.864   1.721 -1.1472 -0.3197 -0.2832
 5470TIP3   OH240604   5.491   5.777   2.858 -0.6825  0.4368 -0.1739
 5470TIP3    H140605   5.524   5.695   2.896 -0.2787  2.0248  3.2207
 5470TIP3    H240606   5.470   5.754   2.767 -0.6500 -3.4121  0.6210
 5471TIP3   OH240607   0.535   1.144   3.074  0.4449  0.0622 -0.1873
 5471TIP3    H140608   0.600   1.089   3.032 -0.7741 -1.5027 -0.1341
 5471TIP3    H240609   0.477   1.172   3.003  0.0757 -0.1498  0.0258
 5472TIP3   OH240610   1.962   6.499   2.548 -0.1266 -0.4922  0.0340
 5472TIP3    H140611   1.868   6.510   2.537 -0.1268  2.1255  1.6935
 5472TIP3    H240612   1.973   6.465   2.637  0.5104 -1.9315 -0.5507
 5473TIP3   OH240613   5.965   4.259   1.576  0.5100  0.1740 -0.1816
 5473TIP3    H140614   6.054   4.228   1.563  0.4707  1.1739 -4.3296
 5473TIP3    H240615   5.910   4.182   1.560  0.6039  0.3716 -1.5621
 5474TIP3   OH240616   5.170   6.205   1.779 -0.1538 -0.6446  0.3035
 5474TIP3    H140617   5.174   6.287   1.827 -0.1667 -2.0544  2.9177
 5474TIP3    H240618   5.077   6.182   1.777 -0.4399  0.4312 -2.4468
 5475TIP3   OH240619   1.661   4.108   3.394 -0.3616 -0.5623  0.3622
 5475TIP3    H140620   1.589   4.060   3.436  0.7350 -0.3190  2.6559
 5475TIP3    H240621   1.680   4.057   3.315 -1.3361 -2.1006  1.0594
 5476TIP3   OH240622   2.900   5.721   2.297  0.1198 -0.0093  0.3365
 5476TIP3    H140623   2.834   5.670   2.251  0.5862 -2.3893  2.1377
 5476TIP3    H240624   2.980   5.669   2.291  0.3971 -0.0153  3.0453
 5477TIP3   OH240625   2.908   1.149   2.217  0.3270 -0.1812 -0.1528
 5477TIP3    H140626   2.858   1.171   2.296 -1.1703  0.5570 -1.2546
 5477TIP3    H240627   2.911   1.053   2.217  0.1072 -0.1996  0.6534
 5478TIP3   OH240628   2.225   2.513   3.091 -0.3137 -0.1876 -0.3408
 5478TIP3    H140629   2.171   2.436   3.107  1.1705 -1.3136 -0.5119
 5478TIP3    H240630   2.208   2.570   3.166 -1.1827 -0.8285 -0.0339
 5479TIP3   OH240631   6.158   1.947   3.424 -0.2768  0.6351  0.0165
 5479TIP3    H140632   6.113   1.961   3.340 -2.1444  0.5107  0.9414
 5479TIP3    H240633   6.090   1.911   3.481  0.5549  2.0576  2.0078
 5480TIP3   OH240634   2.740   2.208   3.063  0.0602  0.3531 -0.1099
 5480TIP3    H140635   2.815   2.215   3.121  0.3420  0.2586 -0.4564
 5480TIP3    H240636   2.734   2.114   3.042 -1.4317  0.0198  1.5691
 5481TIP3   OH240637   2.939   0.451   0.647 -0.1349  0.1513  0.0353
 5481TIP3    H140638   3.001   0.378   0.640 -2.0777 -1.4401 -1.7494
 5481TIP3    H240639   2.982   0.523   0.602  0.5793 -0.8009 -0.8405
 5482TIP3   OH240640   1.665   1.098   3.435 -0.0784 -0.1481 -0.3232
 5482TIP3    H140641   1.740   1.115   3.378  0.4523 -1.4286 -0.0257
 5482TIP3    H240642   1.659   1.003   3.440 -2.8765 -0.1688 -1.8319
 5483TIP3   OH240643   3.020   3.295   2.182  0.2351  0.2350 -0.3630
 5483TIP3    H140644   3.108   3.329   2.196  0.7926 -1.9799  2.3044
 5483TIP3    H240645   3.033   3.212   2.137 -0.0946 -1.6982  2.8409
 5484TIP3   OH240646   0.373   1.756   3.339 -0.2199  0.3156  0.2576
 5484TIP3    H140647   0.315   1.800   3.401  0.9407 -1.4669  2.7507
 5484TIP3    H240648   0.461   1.789   3.361 -0.0264  2.2375 -2.7997
 5485TIP3   OH240649   4.199   1.339   2.212  0.1322 -0.0546  0.3087
 5485TIP3    H140650   4.169   1.392   2.286 -1.3924 -1.3309  0.6724
 5485TIP3    H240651   4.167   1.385   2.135 -0.4756 -0.0266  0.5743
 5486TIP3   OH240652   2.610   6.787   3.504  0.3355 -0.2144 -0.1164
 5486TIP3    H140653   2.702   6.808   3.521  0.4251 -0.0732 -0.7381
 5486TIP3    H240654   2.586   6.725   3.573  0.3801  1.0931  1.1006
 5487TIP3   OH240655   4.327   3.978   1.278  0.0761 -0.4627 -0.3848
 5487TIP3    H140656   4.400   3.916   1.273  1.3181  0.9420 -0.3143
 5487TIP3    H240657   4.368   4.064   1.275 -1.5300  0.3817  0.3655
 5488TIP3   OH240658   2.789   0.057   0.778  0.3936  0.4306  0.7993
 5488TIP3    H140659   2.874   0.032   0.744  0.2205  2.1984 -1.1412
 5488TIP3    H240660   2.742  -0.026   0.789  1.5043 -0.4208 -0.5182
 5489TIP3   OH240661   5.995   0.232   1.783  0.2520  0.3975 -0.5953
 5489TIP3    H140662   5.969   0.309   1.833  0.9515  0.6407 -0.6076
 5489TIP3    H240663   6.090   0.227   1.791  0.4643  0.7897 -2.3769
 5490TIP3   OH240664   4.040   4.709   2.026 -0.0303 -0.2999  0.2352
 5490TIP3    H140665   3.985   4.760   1.966 -0.6096 -0.8812  0.2674
 5490TIP3    H240666   4.123   4.757   2.029 -1.2159  1.8720  1.9041
 5491TIP3   OH240667   5.844   4.073   1.322 -0.1063 -0.6343 -0.2169
 5491TIP3    H140668   5.769   4.119   1.359  0.5763 -1.8918  3.1218
 5491TIP3    H240669   5.910   4.141   1.307 -0.5524  0.0075  0.6354
 5492TIP3   OH240670   6.643   5.796   0.375  0.0613  0.2943 -0.0591
 5492TIP3    H140671   6.646   5.762   0.465  0.0061 -1.3311 -0.6398
 5492TIP3    H240672   6.574   5.746   0.332 -0.2019  1.3487 -0.9157
 5493TIP3   OH240673   6.760   0.305   1.337  0.2300 -0.1038 -0.2898
 5493TIP3    H140674   6.702   0.328   1.410 -0.0801  0.8618 -0.8237
 5493TIP3    H240675   6.744   0.212   1.322  0.3085 -0.3174  0.8795
 5494TIP3   OH240676   0.864   4.362   2.683  0.3478 -0.5056 -0.1571
 5494TIP3    H140677   0.801   4.426   2.649  0.0522 -0.5234  0.3522
 5494TIP3    H240678   0.824   4.329   2.764  0.9047 -0.6886  0.0487
 5495TIP3   OH240679   3.010   1.254   1.822  0.3136  0.4029  0.1185
 5495TIP3    H140680   3.101   1.236   1.799  0.3446 -0.9777  1.1729
 5495TIP3    H240681   2.961   1.237   1.741  0.9347  0.7421 -0.3380
 5496TIP3   OH240682   1.557   4.306   1.524  0.0856 -0.4455  0.0532
 5496TIP3    H140683   1.606   4.273   1.600  0.7785 -1.5014 -0.8275
 5496TIP3    H240684   1.622   4.310   1.454  0.1787  3.2998  0.1805
 5497TIP3   OH240685   4.838   4.182   3.028  0.0366 -0.4153  0.1703
 5497TIP3    H140686   4.851   4.232   3.109 -0.4526  0.9837 -0.5891
 5497TIP3    H240687   4.923   4.186   2.984  0.4914 -1.7082  0.8629
 5498TIP3   OH240688   3.195   4.063   1.832 -0.3735 -1.1136 -0.6428
 5498TIP3    H140689   3.209   4.156   1.813 -1.3948 -1.3771 -3.0660
 5498TIP3    H240690   3.263   4.017   1.783  1.4248 -1.6592  2.1464
 5499TIP3   OH240691   1.339   2.748   0.735 -0.1290 -0.4214 -0.4777
 5499TIP3    H140692   1.346   2.809   0.808 -0.9523 -0.6988 -0.1576
 5499TIP3    H240693   1.300   2.799   0.665 -1.1818 -0.6716 -0.0855
 5500TIP3   OH240694   2.220   5.506   2.605  0.0130  1.1186 -0.4652
 5500TIP3    H140695   2.281   5.446   2.562  0.4144  1.7421 -0.7783
 5500TIP3    H240696   2.191   5.459   2.683 -1.6328 -0.5543 -1.9703
 5501TIP3   OH240697   3.256   0.819   3.325 -0.0547 -0.3933 -0.9304
 5501TIP3    H140698   3.311   0.795   3.399 -3.6751 -0.8772  1.8813
 5501TIP3    H240699   3.246   0.914   3.333  0.3567 -0.2949 -1.4853
 5502TIP3   OH240700   1.081   3.871   4.165 -0.0143 -0.3430  0.4804
 5502TIP3    H140701   1.050   3.905   4.249 -0.1091 -0.1733  0.3792
 5502TIP3    H240702   1.096   3.778   4.180  1.4955 -0.0239  1.1173
 5503TIP3   OH240703   4.987   0.250   1.385 -0.0075  0.1760 -0.1087
 5503TIP3    H140704   5.070   0.297   1.380 -0.0854  0.2833 -0.4043
 5503TIP3    H240705   4.921   0.320   1.391 -0.1515  0.1201 -0.9106
 5504TIP3   OH240706   6.449   0.345   2.029  0.1961  0.4775 -0.4055
 5504TIP3    H140707   6.515   0.332   1.961  0.5566 -1.2920  0.2177
 5504TIP3    H240708   6.496   0.386   2.102  0.2106  0.7567 -0.5705
 5505TIP3   OH240709   5.999   3.515   0.819  0.2520 -0.2152  0.1111
 5505TIP3    H140710   5.980   3.605   0.795  1.8863 -0.0893 -0.8682
 5505TIP3    H240711   6.071   3.521   0.882  0.1434 -0.8281  0.3012
 5506TIP3   OH240712   6.153   6.563   2.223  0.4702 -0.1624  0.0791
 5506TIP3    H140713   6.082   6.503   2.245 -0.6103  0.6973 -0.9462
 5506TIP3    H240714   6.120   6.649   2.248 -0.6323  0.8335 -4.0338
 5507TIP3   OH240715   6.224   2.519   1.300 -0.0252  0.1418  0.2815
 5507TIP3    H140716   6.192   2.576   1.230 -0.4543  0.0191  0.3778
 5507TIP3    H240717   6.309   2.488   1.268  0.3441  1.0482  0.3471
 5508TIP3   OH240718   0.613   5.034   3.268 -0.4276 -0.1421  0.5717
 5508TIP3    H140719   0.557   5.107   3.242  0.5848  0.4767  0.0417
 5508TIP3    H240720   0.648   5.059   3.353 -1.2178 -0.6959  1.0746
 5509TIP3   OH240721   6.478   3.945   0.835 -0.3534  0.3569  0.3144
 5509TIP3    H140722   6.531   3.915   0.761 -2.1921  1.0561 -1.3810
 5509TIP3    H240723   6.513   3.896   0.910  1.8053 -0.1466 -0.9094
 5510TIP3   OH240724   1.813   2.601   3.499  0.6417 -0.1343 -0.0355
 5510TIP3    H140725   1.832   2.534   3.434 -0.8058 -1.8090  1.1607
 5510TIP3    H240726   1.819   2.556   3.583  0.2143  1.3868  0.8616
 5511TIP3   OH240727   2.867   5.414   4.293 -0.3970  0.3733 -0.3657
 5511TIP3    H140728   2.906   5.333   4.259 -0.8254 -0.1621  0.3982
 5511TIP3    H240729   2.782   5.419   4.250 -0.8657 -0.2122  0.4797
 5512TIP3   OH240730   4.584   5.467   1.382 -0.4323 -0.1073 -0.6446
 5512TIP3    H140731   4.561   5.506   1.297 -0.8494  0.4552 -0.2785
 5512TIP3    H240732   4.576   5.373   1.368 -2.4679  0.0365 -0.6890
 5513TIP3   OH240733   6.339   0.165   2.364 -0.0615  0.4285  0.0311
 5513TIP3    H140734   6.335   0.259   2.350  0.3514  0.2063 -1.8539
 5513TIP3    H240735   6.431   0.148   2.387  0.2569  0.3222 -1.2478
 5514TIP3   OH240736   2.496   4.745   3.055  0.1009 -0.8147 -0.2228
 5514TIP3    H140737   2.493   4.742   3.151 -1.7512 -0.0152 -0.2007
 5514TIP3    H240738   2.552   4.819   3.035 -0.4372 -0.2537  0.2880
 5515TIP3   OH240739   2.307   0.772   0.799 -0.0494  0.2893 -0.6400
 5515TIP3    H140740   2.343   0.760   0.887  1.7061  0.6963 -1.2573
 5515TIP3    H240741   2.233   0.711   0.795  0.5625 -0.5906  0.7133
 5516TIP3   OH240742   0.754   3.517   0.894  0.2265 -0.3214 -0.7301
 5516TIP3    H140743   0.848   3.524   0.908  0.0055 -0.5793  1.0751
 5516TIP3    H240744   0.734   3.425   0.908 -0.6424  0.1530  1.6447
 5517TIP3   OH240745   6.691   0.195  11.393  0.2527 -0.2849  0.6753
 5517TIP3    H140746   6.726   0.258  11.330 -0.1023  0.2405  0.9885
 5517TIP3    H240747   6.763   0.134  11.410  0.0063 -1.0966 -1.0721
 5518TIP3   OH240748   0.804   3.282   3.149  0.0843  0.1442  0.0041
 5518TIP3    H140749   0.795   3.365   3.198  1.9531  0.1469  0.4168
 5518TIP3    H240750   0.779   3.215   3.213 -1.6409  0.3492 -0.3928
 5519TIP3   OH240751   6.365   1.220   2.712 -0.3216 -0.4273  0.0756
 5519TIP3    H140752   6.432   1.157   2.685 -0.5832 -0.4339 -0.5814
 5519TIP3    H240753   6.408   1.306   2.702 -0.4480 -0.4235 -0.4786
 5520TIP3   OH240754   0.076   4.541   0.986  0.2444  0.5521  0.3901
 5520TIP3    H140755   0.019   4.466   1.004 -0.3277  0.7320 -0.6032
 5520TIP3    H240756   0.016   4.611   0.961  0.7544  1.4495  1.6157
 5521TIP3   OH240757   3.751   5.114   3.242  0.1518 -0.5519 -1.0042
 5521TIP3    H140758   3.760   5.101   3.148 -0.2347  0.4516 -1.1842
 5521TIP3    H240759   3.803   5.043   3.281 -0.0523 -1.2352 -1.9605
 5522TIP3   OH240760   1.314   4.771   1.431 -0.0977 -0.5946 -0.3111
 5522TIP3    H140761   1.257   4.825   1.376  0.1668 -1.8932 -1.9464
 5522TIP3    H240762   1.263   4.692   1.449  0.5725 -1.0676 -0.4467
 5523TIP3   OH240763   2.714   2.614   4.089 -0.2474 -0.2202  0.0853
 5523TIP3    H140764   2.681   2.703   4.095  0.4235  0.0764 -0.5364
 5523TIP3    H240765   2.807   2.621   4.113 -0.3033 -0.8258  0.4995
 5524TIP3   OH240766   1.220   6.687   2.727  0.3200 -0.1389 -0.7176
 5524TIP3    H140767   1.251   6.758   2.784  2.3091 -0.8048 -0.8708
 5524TIP3    H240768   1.180   6.624   2.787 -0.5762  0.6510 -0.4663
 5525TIP3   OH240769   0.700   1.670   1.296  0.0703 -0.1249  0.4820
 5525TIP3    H140770   0.766   1.607   1.325  0.7864 -0.0911 -0.9751
 5525TIP3    H240771   0.726   1.692   1.206  0.0409  2.4900  1.0368
 5526TIP3   OH240772   0.217   5.869   0.357 -0.0555 -0.3021 -0.4493
 5526TIP3    H140773   0.267   5.868   0.438  0.5953  2.4461 -0.7240
 5526TIP3    H240774   0.272   5.822   0.294  0.6554 -0.1849  0.0715
 5527TIP3   OH240775   4.170   5.491   0.552  0.2633  0.2783  0.4761
 5527TIP3    H140776   4.108   5.428   0.515 -0.3982  1.5739 -0.7451
 5527TIP3    H240777   4.125   5.575   0.545  1.6956  1.0990  0.6927
 5528TIP3   OH240778   3.301   2.613   1.441 -0.6291  0.4388  0.5186
 5528TIP3    H140779   3.261   2.651   1.363 -0.4168  0.4741  0.4262
 5528TIP3    H240780   3.232   2.615   1.507 -1.3233 -1.0287 -0.1109
 5529TIP3   OH240781   3.896   5.842   8.100  0.3141  0.1956 -0.1692
 5529TIP3    H140782   3.899   5.754   8.137 -0.7023  0.6613  1.1240
 5529TIP3    H240783   3.984   5.857   8.066  0.5149 -1.2933 -0.3801
 5530TIP3   OH240784   5.179   2.628   3.843  0.1238  0.5568  0.5444
 5530TIP3    H140785   5.134   2.549   3.813 -1.1312  1.7862 -0.9935
 5530TIP3    H240786   5.195   2.613   3.936 -0.4010 -1.3369  0.3724
 5531TIP3   OH240787   2.382   0.276   3.195 -0.1694 -0.0755 -0.2007
 5531TIP3    H140788   2.466   0.230   3.197 -0.8819 -1.7119 -2.5985
 5531TIP3    H240789   2.351   0.273   3.285  1.1291 -1.9173  0.2521
 5532TIP3   OH240790   4.398   2.246   1.651  0.2901  0.4679  0.0080
 5532TIP3    H140791   4.357   2.170   1.610 -1.4098  0.4893  1.5090
 5532TIP3    H240792   4.332   2.316   1.643  1.7407  1.7790 -1.1828
 5533TIP3   OH240793   6.551   6.504   1.824  0.0087 -0.1100 -0.4521
 5533TIP3    H140794   6.597   6.583   1.851  1.2614 -0.7817 -0.5509
 5533TIP3    H240795   6.486   6.489   1.893 -0.1854  0.9376 -0.3957
 5534TIP3   OH240796   0.735   3.546   3.252  0.7461 -0.5155  1.0126
 5534TIP3    H140797   0.780   3.620   3.212 -0.5404  0.6035  1.5866
 5534TIP3    H240798   0.731   3.567   3.345  0.3288 -1.3010  1.1832
 5535TIP3   OH240799   0.962   2.593   1.692  0.4184 -0.0028  0.1945
 5535TIP3    H140800   0.943   2.503   1.666  0.8538 -0.5977  1.8422
 5535TIP3    H240801   0.876   2.632   1.710  0.2869 -0.3601  0.3385
 5536TIP3   OH240802   0.186   0.204   1.304 -0.0398  0.5163 -0.3042
 5536TIP3    H140803   0.103   0.243   1.333  0.4389  0.4582  1.1982
 5536TIP3    H240804   0.218   0.264   1.237 -0.2709  1.6789  0.5927
 5537TIP3   OH240805   4.016   3.975   1.150  0.8718 -0.3511  0.3966
 5537TIP3    H140806   3.994   4.027   1.072 -1.3981 -0.6288  0.7893
 5537TIP3    H240807   4.002   3.885   1.123 -0.2277 -0.4324  1.1740
 5538TIP3   OH240808   0.786   4.466   1.333  0.0096  0.0212 -0.7831
 5538TIP3    H140809   0.879   4.478   1.314  0.3195 -0.6854  0.2156
 5538TIP3    H240810   0.743   4.538   1.288  0.8796 -0.5196 -2.5385
 5539TIP3   OH240811   4.920   3.934   0.744  0.2799  0.0422  0.0701
 5539TIP3    H140812   4.952   3.944   0.834  1.5179 -0.7093 -0.2644
 5539TIP3    H240813   4.850   3.999   0.736  0.0271  0.0001  1.6270
 5540TIP3   OH240814   2.412   0.423   2.263 -0.1818 -0.3681  0.2089
 5540TIP3    H140815   2.403   0.490   2.196 -1.1139 -0.7688 -0.0905
 5540TIP3    H240816   2.346   0.358   2.240  0.0153 -0.8844  1.0739
 5541TIP3   OH240817   4.269   1.772   1.712 -0.2380  0.2127  0.4349
 5541TIP3    H140818   4.236   1.788   1.801  1.4734 -0.6963  1.2818
 5541TIP3    H240819   4.218   1.831   1.657 -1.7129  0.4304  1.9413
 5542TIP3   OH240820   2.608   6.221   2.565  0.4974 -0.4706 -0.3817
 5542TIP3    H140821   2.579   6.167   2.639 -1.3496 -0.4693 -1.0642
 5542TIP3    H240822   2.645   6.159   2.503 -0.3725 -0.8098 -0.5750
 5543TIP3   OH240823   6.201   2.616   2.505 -0.0722 -0.2917 -0.2895
 5543TIP3    H140824   6.153   2.626   2.423 -0.0342 -1.4871 -0.4619
 5543TIP3    H240825   6.249   2.534   2.495 -0.2244 -0.5522  1.0069
 5544TIP3   OH240826   6.489   4.217   2.088 -0.4032 -0.0743 -0.1460
 5544TIP3    H140827   6.470   4.219   2.182 -0.5220  1.1679 -0.1813
 5544TIP3    H240828   6.404   4.203   2.047 -0.2930 -1.0417 -0.0629
 5545TIP3   OH240829   0.919   5.376   2.232  0.3143  0.1018 -0.2763
 5545TIP3    H140830   0.881   5.294   2.262 -0.2788  0.6004  0.3785
 5545TIP3    H240831   0.844   5.429   2.204  0.3752  1.4810  1.9526
 5546TIP3   OH240832   3.520   3.770   1.992 -0.1293  0.6301 -0.2700
 5546TIP3    H140833   3.574   3.807   2.062 -1.0063  0.7164  0.3691
 5546TIP3    H240834   3.567   3.793   1.911 -0.4590  2.8669  0.1119
 5547TIP3   OH240835   4.123   3.730   2.877  0.0737  0.0355  0.2375
 5547TIP3    H140836   4.138   3.677   2.955  0.3792 -0.4043 -0.1149
 5547TIP3    H240837   4.146   3.819   2.903  1.8014 -0.3627  0.1720
 5548TIP3   OH240838   3.763   0.045   1.514  0.0393 -0.4324  0.2202
 5548TIP3    H140839   3.689   0.063   1.573  1.2746  0.5046  1.5429
 5548TIP3    H240840   3.750   0.106   1.441 -1.0830 -1.0674 -0.1473
 5549TIP3   OH240841   1.628   2.752   2.962 -0.7699 -0.5009 -1.0207
 5549TIP3    H140842   1.695   2.773   2.897 -1.4479  0.6215 -1.3895
 5549TIP3    H240843   1.675   2.747   3.045 -0.1149 -0.4887 -1.3857
 5550TIP3   OH240844   4.249   6.566   3.111 -0.6829 -0.1579 -0.3533
 5550TIP3    H140845   4.232   6.484   3.066  1.6343  0.0288 -1.7590
 5550TIP3    H240846   4.269   6.628   3.041  0.6727  0.7784  0.8028
 5551TIP3   OH240847   0.355   1.415   0.861 -0.2598  0.6095 -0.2155
 5551TIP3    H140848   0.440   1.454   0.838  0.3119 -0.6407 -0.2921
 5551TIP3    H240849   0.291   1.466   0.811  0.1235  3.2802  1.7656
 5552TIP3   OH240850   5.876   6.810   3.712 -0.0682 -0.6530  0.3118
 5552TIP3    H140851   5.920   6.779   3.633 -0.6973 -0.5698 -0.0710
 5552TIP3    H240852   5.931   6.777   3.784  0.8122 -0.2448 -0.1650
 5553TIP3   OH240853   6.701   1.716   2.644  0.4348  0.5686  0.7690
 5553TIP3    H140854   6.779   1.755   2.684  0.3602  1.3671  0.1596
 5553TIP3    H240855   6.733   1.633   2.607  1.5417  1.8519 -1.3608
 5554TIP3   OH240856   5.251   3.105   1.111  1.0900  0.2394  0.0179
 5554TIP3    H140857   5.214   3.050   1.042  1.4539 -0.4320  0.3500
 5554TIP3    H240858   5.176   3.156   1.144  0.9048  0.5348 -0.8281
 5555TIP3   OH240859   2.811   6.068   2.205 -0.5517 -0.0553  0.1413
 5555TIP3    H140860   2.718   6.064   2.230 -1.5647 -1.7886 -3.3390
 5555TIP3    H240861   2.841   5.977   2.209  0.9287  0.4189  0.7401
 5556TIP3   OH240862   3.612   5.544   2.973 -0.3265  0.0505  0.1715
 5556TIP3    H140863   3.591   5.605   3.044  0.6441  0.8635 -0.2148
 5556TIP3    H240864   3.528   5.508   2.947 -1.0450  1.8557 -0.1330
 5557TIP3   OH240865   2.711   4.913   1.779 -0.1183 -0.5879  0.3212
 5557TIP3    H140866   2.715   4.898   1.874 -1.8901 -0.9299  0.3817
 5557TIP3    H240867   2.682   5.004   1.770 -0.7651 -0.8049  0.1385
 5558TIP3   OH240868   6.043   5.505   1.859  0.1523 -0.6013  0.2265
 5558TIP3    H140869   6.137   5.523   1.853  0.1714 -0.7393  0.1113
 5558TIP3    H240870   6.016   5.487   1.769  0.1636 -1.2934  0.3592
 5559TIP3   OH240871   0.604   0.525   2.200 -0.4285 -0.1122  0.2416
 5559TIP3    H140872   0.697   0.502   2.189 -0.2266  1.1068 -0.8378
 5559TIP3    H240873   0.558   0.441   2.202  0.5641 -0.6990 -0.5654
 5560TIP3   OH240874   1.009   3.270   2.959 -0.0811 -0.0423 -0.4432
 5560TIP3    H140875   1.090   3.291   3.006  0.1033 -3.5225  1.0983
 5560TIP3    H240876   0.940   3.315   3.009  0.6999  2.1040 -1.1689
 5561TIP3   OH240877   4.614   4.808   0.738 -0.2627 -0.1924 -0.4224
 5561TIP3    H140878   4.621   4.713   0.735 -0.4584 -0.2379  0.4797
 5561TIP3    H240879   4.531   4.828   0.694  0.4812 -0.3209 -1.9723
 5562TIP3   OH240880   6.569   0.735   1.808  0.2457 -0.3148 -0.0797
 5562TIP3    H140881   6.586   0.729   1.714  0.2296 -0.9855 -0.0451
 5562TIP3    H240882   6.475   0.755   1.813  0.8117  2.9051 -0.2559
 5563TIP3   OH240883   4.167   5.260   2.740  0.3406  0.0313  0.0508
 5563TIP3    H140884   4.252   5.271   2.697  1.4013  0.2433  2.0949
 5563TIP3    H240885   4.136   5.349   2.755  0.7337  0.0160  1.0737
 5564TIP3   OH240886   5.321   6.060   0.622 -0.1856  0.3488 -1.0788
 5564TIP3    H140887   5.281   5.979   0.589 -0.1705 -0.0943 -0.0310
 5564TIP3    H240888   5.415   6.045   0.610 -0.1339 -0.1504 -0.0883
 5565TIP3   OH240889   0.319   1.110   2.372  0.0289 -0.1643 -0.9135
 5565TIP3    H140890   0.283   1.036   2.323 -0.7676 -1.5097  1.4974
 5565TIP3    H240891   0.410   1.086   2.388 -0.4731 -1.1523  0.6729
 5566TIP3   OH240892   5.416   5.834   1.118 -0.2761  0.5022 -0.0262
 5566TIP3    H140893   5.487   5.881   1.075  0.3730 -1.8008 -1.6607
 5566TIP3    H240894   5.459   5.772   1.176 -0.8713 -0.9115 -1.0240
 5567TIP3   OH240895   6.257   2.824   2.687  0.3635  0.3561  0.2590
 5567TIP3    H140896   6.235   2.751   2.628 -1.8998  0.7203  0.5488
 5567TIP3    H240897   6.175   2.844   2.731  1.1908  2.4083  0.9758
 5568TIP3   OH240898   5.196   1.767   3.164  0.7643  0.2414 -0.1037
 5568TIP3    H140899   5.176   1.801   3.077  2.4035 -0.3755 -0.7612
 5568TIP3    H240900   5.192   1.672   3.154 -0.0522  0.1671  0.7770
 5569TIP3   OH240901   1.008   1.358   3.158 -0.5146 -0.0531 -0.0795
 5569TIP3    H140902   0.965   1.433   3.199  0.5737  0.9611 -0.7250
 5569TIP3    H240903   1.088   1.394   3.120  0.4436 -1.6997  0.2785
 5570TIP3   OH240904   6.593   1.128   2.585 -0.2240 -0.3971  0.2021
 5570TIP3    H140905   6.673   1.104   2.632  0.4155 -0.3168 -0.8181
 5570TIP3    H240906   6.620   1.201   2.529 -0.7283 -1.0885 -0.9701
 5571TIP3   OH240907   2.251   0.966   1.440 -0.2306  0.6931 -0.0400
 5571TIP3    H140908   2.329   0.923   1.477 -1.4642 -1.0170  0.7243
 5571TIP3    H240909   2.181   0.943   1.501 -1.9230 -0.3291 -2.2650
 5572TIP3   OH240910   6.417   0.679   3.049  0.4658 -0.4365 -0.0458
 5572TIP3    H140911   6.450   0.768   3.046  1.5431 -0.7596  1.1500
 5572TIP3    H240912   6.491   0.625   3.021  0.1856 -1.0334  0.3351
 5573TIP3   OH240913   1.927   5.381   3.253  0.4058  0.9297 -0.2155
 5573TIP3    H140914   1.918   5.430   3.335 -1.2406  2.2973 -1.1278
 5573TIP3    H240915   2.002   5.323   3.267 -0.1349  0.7458  2.4167
 5574TIP3   OH240916   5.075   4.312   1.774 -0.3348 -0.1374  0.2042
 5574TIP3    H140917   5.007   4.254   1.737 -1.8233  0.2315  2.1618
 5574TIP3    H240918   5.031   4.396   1.784 -0.7500 -0.6314  4.3778
 5575TIP3   OH240919   6.718   1.221   2.089  0.0526  0.2415  0.0016
 5575TIP3    H140920   6.763   1.137   2.103 -0.7664 -0.3403 -0.7529
 5575TIP3    H240921   6.746   1.248   2.002 -1.0712 -0.1474 -0.4915
 5576TIP3   OH240922   1.782   4.740   2.906 -0.3911 -0.1460  0.0884
 5576TIP3    H140923   1.834   4.682   2.851 -0.9845 -0.7010  0.1137
 5576TIP3    H240924   1.709   4.687   2.936 -0.4390  0.3404  0.8724
 5577TIP3   OH240925   3.740   0.706   2.509  0.0958 -0.2621 -0.5046
 5577TIP3    H140926   3.821   0.700   2.460 -0.1493 -1.1706 -0.8097
 5577TIP3    H240927   3.680   0.646   2.465 -0.9811  0.9321 -0.7319
 5578TIP3   OH240928   0.957   1.490   1.450  0.2876  0.2338 -0.0762
 5578TIP3    H140929   1.016   1.455   1.383  0.6212 -0.1308  0.4055
 5578TIP3    H240930   1.014   1.537   1.510  0.0276  0.2810  0.1323
 5579TIP3   OH240931   2.449   4.217   1.031 -0.0704  0.1650  0.3126
 5579TIP3    H140932   2.434   4.276   0.957 -0.3042  1.7245  1.5463
 5579TIP3    H240933   2.520   4.160   1.002 -1.0582 -0.1694 -1.5935
 5580TIP3   OH240934   1.271   0.795   1.402 -0.1271 -0.4457  0.0049
 5580TIP3    H140935   1.205   0.727   1.414 -0.6193 -0.0523 -0.4410
 5580TIP3    H240936   1.333   0.759   1.339 -0.8420 -0.1648 -0.8721
 5581TIP3   OH240937   6.691   5.917   2.862  0.9092  0.7446  0.1756
 5581TIP3    H140938   6.787   5.914   2.859  0.9946 -0.8225  2.1563
 5581TIP3    H240939   6.663   5.827   2.843 -0.1116  0.9565  0.6112
 5582TIP3   OH240940   0.587   1.817   2.905 -0.2442 -0.4349 -0.4548
 5582TIP3    H140941   0.508   1.831   2.852 -0.0864  0.2618 -0.5190
 5582TIP3    H240942   0.565   1.854   2.991  0.4391  0.9179 -0.8398
 5583TIP3   OH240943   3.029   4.942   1.137 -0.3541 -0.6658 -0.5087
 5583TIP3    H140944   2.951   4.920   1.086 -1.6405 -0.0639  1.0918
 5583TIP3    H240945   3.009   4.912   1.226  0.7578  0.4799  0.1700
 5584TIP3   OH240946   4.559   3.619   2.904 -0.3446 -0.3696 -0.2943
 5584TIP3    H140947   4.515   3.658   2.829  1.0577  1.1033 -0.4035
 5584TIP3    H240948   4.497   3.628   2.976  0.2235  3.0346 -0.0778
 5585TIP3   OH240949   2.177   3.702   1.482  0.8126  0.1955  0.0681
 5585TIP3    H140950   2.244   3.756   1.441  0.5985 -0.4496 -1.1678
 5585TIP3    H240951   2.094   3.732   1.444  0.7912 -1.7692 -1.5746
 5586TIP3   OH240952   1.733   0.914   2.885 -0.1320 -0.6042  0.1583
 5586TIP3    H140953   1.665   0.924   2.951 -0.2561  1.6040 -0.2157
 5586TIP3    H240954   1.755   0.821   2.886 -1.7018 -1.0010  1.7120
 5587TIP3   OH240955   0.204   6.041   1.921 -0.1451 -0.2182  0.0185
 5587TIP3    H140956   0.205   6.133   1.897 -1.0464  0.4006  2.0722
 5587TIP3    H240957   0.122   6.030   1.970  1.6833 -1.1206  3.1383
 5588TIP3   OH240958   6.720   6.258   3.182 -0.0901 -0.2221  0.2727
 5588TIP3    H140959   6.703   6.163   3.183 -0.2122 -0.2237 -0.8124
 5588TIP3    H240960   6.633   6.297   3.172  0.1794 -0.1414 -2.6471
 5589TIP3   OH240961   6.424   3.466   1.908 -0.2844  0.5508  0.1159
 5589TIP3    H140962   6.504   3.415   1.922 -0.1514  0.8783  0.5662
 5589TIP3    H240963   6.367   3.407   1.857  0.2858  0.3626 -0.3157
 5590TIP3   OH240964   0.490   5.144   2.169 -0.3318 -0.3186 -0.0644
 5590TIP3    H140965   0.572   5.153   2.120  0.3029 -1.6395  0.6814
 5590TIP3    H240966   0.424   5.132   2.101 -0.3110  2.8114 -0.7886
 5591TIP3   OH240967   6.061   3.290   1.939  0.6311 -0.4040  0.3079
 5591TIP3    H140968   6.101   3.303   1.853 -0.8027  1.0710 -0.1818
 5591TIP3    H240969   5.966   3.291   1.922  0.3309 -1.7882  1.6839
 5592TIP3   OH240970   0.976   3.446   2.257  0.1973  0.2763 -0.1427
 5592TIP3    H140971   1.030   3.441   2.178 -0.2393  0.8840 -0.4905
 5592TIP3    H240972   0.887   3.434   2.225 -0.2225  2.6915 -0.0840
 5593TIP3   OH240973   6.336   3.918   2.546 -0.2735  0.3879 -0.3971
 5593TIP3    H140974   6.329   3.892   2.454 -1.9047 -0.1914 -0.1498
 5593TIP3    H240975   6.257   3.970   2.562  0.4142  1.1982  0.4655
 5594TIP3   OH240976   0.105   6.165   3.779 -0.0635 -0.2307  0.0361
 5594TIP3    H140977   0.057   6.084   3.796 -2.4188  1.2695  1.0677
 5594TIP3    H240978   0.128   6.161   3.686 -1.2599 -1.5133 -0.2283
 5595TIP3   OH240979   1.795   6.749   3.296 -0.2437 -0.4949 -0.3648
 5595TIP3    H140980   1.732   6.822   3.299  1.0042  0.7220 -1.6782
 5595TIP3    H240981   1.791   6.710   3.383 -0.3339  1.7197  0.7015
 5596TIP3   OH240982   4.176   2.650   1.982 -0.1562  0.5584 -0.0811
 5596TIP3    H140983   4.107   2.669   2.045  1.7822 -1.1324  2.7495
 5596TIP3    H240984   4.232   2.727   1.983 -1.2132  1.3974 -1.4206
 5597TIP3   OH240985   3.683   0.627   1.416 -0.1510 -0.2990 -0.1161
 5597TIP3    H140986   3.768   0.622   1.374 -0.7465  0.8801 -1.5384
 5597TIP3    H240987   3.696   0.587   1.502  1.6857 -0.6140 -0.5115
 5598TIP3   OH240988   1.087   0.663   1.156 -0.2774 -0.5990  0.2936
 5598TIP3    H140989   1.180   0.685   1.158 -0.1594 -0.8542 -1.3747
 5598TIP3    H240990   1.077   0.608   1.078 -1.5050 -2.0933  1.4478
 5599TIP3   OH240991   4.839   1.917   2.930  0.6867  0.1161  0.5055
 5599TIP3    H140992   4.812   1.831   2.961  2.0968 -0.1688  1.0007
 5599TIP3    H240993   4.791   1.929   2.848 -2.8710  0.7457  2.4915
 5600TIP3   OH240994   6.205   2.956   3.114  0.2096  0.1598 -0.1584
 5600TIP3    H140995   6.181   2.971   3.205  0.8119  0.3059 -0.0182
 5600TIP3    H240996   6.206   3.043   3.075  0.6569  0.1736 -0.1217
 5601TIP3   OH240997   4.913   6.405   1.857  0.3555  0.2526  0.1712
 5601TIP3    H140998   4.945   6.361   1.778  0.0145  0.6854 -0.2110
 5601TIP3    H240999   4.881   6.334   1.913 -0.1352  0.0063 -0.4150
 5602TIP3   OH241000   6.764   5.453   1.414  0.7187 -0.2911  0.3149
 5602TIP3    H141001   6.747   5.399   1.337  1.8609  0.6936 -0.6525
 5602TIP3    H241002   6.689   5.512   1.420  0.1725 -0.9955  0.5293
 5603TIP3   OH241003   5.700   2.577   1.882  0.4326  0.0480  0.2533
 5603TIP3    H141004   5.745   2.505   1.839 -1.7223 -1.0280 -0.3428
 5603TIP3    H241005   5.609   2.547   1.891  0.1937  1.2756  3.1931
 5604TIP3   OH241006   5.429   6.622   3.194 -0.2467 -0.2222 -0.2541
 5604TIP3    H141007   5.484   6.604   3.271 -0.6338  1.7033  0.5304
 5604TIP3    H241008   5.349   6.572   3.209  0.1624 -0.8220 -0.0231
 5605TIP3   OH241009   1.462   3.094   3.149 -0.3850 -0.2347 -0.2945
 5605TIP3    H141010   1.387   3.136   3.192 -0.5586  0.2566 -1.0622
 5605TIP3    H241011   1.466   3.134   3.062  1.4861  0.6331  0.1345
 5606TIP3   OH241012   2.398   0.220   2.863  0.4754  0.3987 -0.4225
 5606TIP3    H141013   2.395   0.228   2.767 -1.5163 -1.5258 -0.5960
 5606TIP3    H241014   2.372   0.306   2.895  0.4713  0.8673 -1.6258
 5607TIP3   OH241015   0.074   6.693   1.113 -0.0289 -0.1363 -0.3003
 5607TIP3    H141016  -0.020   6.676   1.109 -0.4168  0.9984  2.1723
 5607TIP3    H241017   0.094   6.739   1.031 -1.3950 -1.2339 -1.2946
 5608TIP3   OH241018   4.665   3.878   1.534  0.5291 -0.3262 -0.1444
 5608TIP3    H141019   4.612   3.863   1.612 -0.2975  1.4560 -0.3327
 5608TIP3    H241020   4.756   3.871   1.565  0.2096  0.1284  0.9386
 5609TIP3   OH241021   1.221   1.073   0.824  0.3347  0.2221  0.3102
 5609TIP3    H141022   1.230   0.985   0.862 -0.2051  0.2589  0.5309
 5609TIP3    H241023   1.285   1.075   0.753 -0.3957 -0.7401 -0.3980
 5610TIP3   OH241024   2.202   5.008   3.106  0.5350 -0.3660 -0.1920
 5610TIP3    H141025   2.206   4.980   3.015 -1.2764 -0.8838 -0.1637
 5610TIP3    H241026   2.175   4.929   3.154  2.0680 -0.2704  0.9045
 5611TIP3   OH241027   5.557   6.264   0.860  0.3211 -0.2421 -0.2840
 5611TIP3    H141028   5.558   6.357   0.839  0.8819 -0.0881  0.3925
 5611TIP3    H241029   5.464   6.241   0.863  0.0200  0.9833  2.3726
 5612TIP3   OH241030   5.283   1.217   0.606 -0.2461 -0.2918  0.1854
 5612TIP3    H141031   5.220   1.179   0.667 -1.3008  0.2704 -0.5423
 5612TIP3    H241032   5.334   1.142   0.575  1.5954 -0.4192  3.1214
 5613TIP3   OH241033   0.521   5.974   2.239 -0.1813 -0.3897  0.3048
 5613TIP3    H141034   0.465   5.900   2.266  1.2306 -1.3985  0.6230
 5613TIP3    H241035   0.555   5.949   2.153  1.0578 -0.5914  0.8249
 5614TIP3   OH241036   4.662   1.603   2.837 -0.5052 -0.1833 -0.0753
 5614TIP3    H141037   4.745   1.592   2.883 -1.3094 -2.9251  0.9490
 5614TIP3    H241038   4.675   1.680   2.782  2.6897 -0.4612  0.0663
 5615TIP3   OH241039   3.624   3.072   1.284  0.5753 -0.1975  0.4530
 5615TIP3    H141040   3.706   3.112   1.314  1.7043 -0.6833 -1.7891
 5615TIP3    H241041   3.626   2.984   1.322  1.0520 -0.1739  0.4969
 5616TIP3   OH241042   1.429   4.849   0.977 -0.1701  0.1395 -0.2284
 5616TIP3    H141043   1.353   4.792   0.985 -1.2093  1.2170 -1.9146
 5616TIP3    H241044   1.476   4.837   1.060 -2.0851 -0.6465  0.8226
 5617TIP3   OH241045   0.625   4.775   3.984 -0.7873 -0.7297 -0.0378
 5617TIP3    H141046   0.719   4.757   3.985 -0.5467  0.4570 -0.2951
 5617TIP3    H241047   0.587   4.698   3.943  0.3568 -0.0475 -2.5537
 5618TIP3   OH241048   6.528   2.409   0.863  1.1681  0.2451 -0.1701
 5618TIP3    H141049   6.504   2.447   0.778 -1.1519  2.4450  1.3339
 5618TIP3    H241050   6.446   2.374   0.898  2.1440 -0.8976  1.0645
 5619TIP3   OH241051   0.924   3.729   2.739  0.0773 -0.0886 -0.0149
 5619TIP3    H141052   0.969   3.791   2.681  1.1555  0.8642  1.7258
 5619TIP3    H241053   0.975   3.648   2.731  1.9671  0.8456  1.5894
 5620TIP3   OH241054   6.408   3.897   1.837 -0.0773 -0.7536  0.0624
 5620TIP3    H141055   6.479   3.837   1.859 -0.5400 -1.0465  0.7959
 5620TIP3    H241056   6.331   3.841   1.827 -0.8202 -0.1946  2.1131
 5621TIP3   OH241057   6.618   0.392   0.608 -0.1571 -0.4849 -0.1539
 5621TIP3    H141058   6.671   0.408   0.685 -1.4519  1.8105  0.3280
 5621TIP3    H241059   6.579   0.305   0.623  0.1112 -0.3484  1.4674
 5622TIP3   OH241060   5.434   4.523   0.757 -0.3815  0.2993 -0.3091
 5622TIP3    H141061   5.464   4.483   0.675 -0.4482  1.5944 -0.9910
 5622TIP3    H241062   5.495   4.596   0.772 -0.6865  0.3946  0.5252
 5623TIP3   OH241063   4.560   6.234   1.881  0.0855  0.5198  0.3304
 5623TIP3    H141064   4.647   6.261   1.851  0.6783 -1.0820  0.5238
 5623TIP3    H241065   4.507   6.231   1.801  0.7566 -0.4567 -0.0913
 5624TIP3   OH241066   4.713   2.637   0.828  0.1113 -0.0826 -0.0694
 5624TIP3    H141067   4.757   2.590   0.899  1.9275  0.3016 -0.8934
 5624TIP3    H241068   4.685   2.567   0.768  0.7568 -0.2594 -0.1712
 5625TIP3   OH241069   2.511   2.972   2.151 -0.1797 -0.2895  0.2632
 5625TIP3    H141070   2.547   2.899   2.202 -0.6566  0.1768  1.2973
 5625TIP3    H241071   2.566   2.976   2.073  1.5838 -0.0269  1.4720
 5626TIP3   OH241072   2.877   5.917   1.677 -0.1707 -0.1673  0.0394
 5626TIP3    H141073   2.898   5.897   1.586 -0.8756 -1.0411  0.0509
 5626TIP3    H241074   2.935   5.990   1.700  1.4814 -1.2464 -0.4786
 5627TIP3   OH241075   0.689   5.192   3.037  0.5633 -0.1558 -0.4381
 5627TIP3    H141076   0.739   5.224   2.961 -0.1095  1.0991 -0.3858
 5627TIP3    H241077   0.755   5.175   3.104  1.0560  0.0055 -0.8744
 5628TIP3   OH241078   1.503   3.893   3.693  0.3747  0.2038 -0.1981
 5628TIP3    H141079   1.469   3.924   3.610 -0.1671  0.5947  0.1653
 5628TIP3    H241080   1.561   3.820   3.670 -0.4376 -0.2456 -0.8446
 5629TIP3   OH241081   6.102   4.188   3.574 -0.3891  0.2904  0.2995
 5629TIP3    H141082   6.099   4.101   3.615  1.3355 -0.0675 -0.2454
 5629TIP3    H241083   6.050   4.244   3.632 -0.8142 -0.9209  1.1216
 5630TIP3   OH241084   3.395   1.672   1.065  0.0588 -0.4590  0.4006
 5630TIP3    H141085   3.389   1.676   0.969  0.1354  1.3070  0.4227
 5630TIP3    H241086   3.335   1.740   1.095 -0.0200 -1.0537  1.6137
 5631TIP3   OH241087   1.480   3.508   3.041  0.2866  0.1015  0.0440
 5631TIP3    H141088   1.472   3.597   3.005 -1.7726  0.6704  1.6650
 5631TIP3    H241089   1.568   3.504   3.077  0.0827  1.9026  0.8517
 5632TIP3   OH241090   2.117   4.130   1.879  0.2940  0.0705 -0.0241
 5632TIP3    H141091   2.077   4.110   1.964 -0.1786 -1.6579 -0.6019
 5632TIP3    H241092   2.043   4.146   1.821  0.5793  0.3485 -0.3116
 5633TIP3   OH241093   6.131   1.860   1.618  0.1241 -0.7680  0.4465
 5633TIP3    H141094   6.066   1.792   1.632  0.3165 -1.5471 -2.0673
 5633TIP3    H241095   6.177   1.834   1.538  0.4349  2.1181 -0.4321
 5634TIP3   OH241096   2.135   3.820   2.745 -0.2638 -0.2155  0.8900
 5634TIP3    H141097   2.121   3.775   2.829  1.1858 -1.0545  0.7259
 5634TIP3    H241098   2.169   3.752   2.687 -0.1208  0.6261 -0.0380
 5635TIP3   OH241099   0.353   3.517   1.031 -0.4697  0.0676 -0.0211
 5635TIP3    H141100   0.440   3.521   1.070  0.0050  0.6096 -1.0974
 5635TIP3    H241101   0.331   3.424   1.031 -0.5157  0.0464  1.5480
 5636TIP3   OH241102   3.508   2.368   3.750  0.4046 -0.2206  0.6984
 5636TIP3    H141103   3.488   2.284   3.709 -0.8661 -0.2592  1.3706
 5636TIP3    H241104   3.553   2.345   3.831  1.5303 -0.1863  0.1036
 5637TIP3   OH241105   4.296   3.914   1.583 -0.1468  0.5570  0.6090
 5637TIP3    H141106   4.269   3.925   1.492 -0.1564 -0.7779  0.4279
 5637TIP3    H241107   4.227   3.955   1.635 -1.1686 -0.4314  0.0655
 5638TIP3   OH241108   3.219   1.874   3.505 -0.2765 -0.5597 -0.5714
 5638TIP3    H141109   3.226   1.884   3.410  0.4365  1.2835 -0.3560
 5638TIP3    H241110   3.308   1.851   3.534  0.0031  0.9004 -0.1709
 5639TIP3   OH241111   1.379   6.812   2.431  0.5318  0.2351  0.0742
 5639TIP3    H141112   1.394   6.861   2.351 -0.3094 -0.0928 -0.3009
 5639TIP3    H241113   1.439   6.850   2.495  1.3839  0.3404 -0.7712
 5640TIP3   OH241114   0.712   5.165   3.486 -0.0641  0.1289  0.0845
 5640TIP3    H141115   0.681   5.254   3.473  0.2400  0.2824  0.3973
 5640TIP3    H241116   0.659   5.131   3.558 -0.1222  0.0893  0.0223
 5641TIP3   OH241117   4.288   2.897   2.603  0.0613 -0.1249  0.7018
 5641TIP3    H141118   4.375   2.925   2.575  0.4881 -0.1229  1.9532
 5641TIP3    H241119   4.296   2.885   2.698 -1.3686  0.1138  0.8782
 5642TIP3   OH241120   5.484   1.862   3.814  0.1682 -0.7802  0.5803
 5642TIP3    H141121   5.408   1.912   3.783  1.1500 -0.1582 -0.9149
 5642TIP3    H241122   5.447   1.802   3.879 -2.0467 -2.1550 -1.7409
 5643TIP3   OH241123   1.104   5.679   1.647 -0.3988 -0.2487 -0.0713
 5643TIP3    H141124   1.151   5.755   1.612  0.4042 -1.5520 -1.9753
 5643TIP3    H241125   1.163   5.643   1.713 -1.2046  1.2874  1.5498
 5644TIP3   OH241126   1.579   1.174   2.211 -0.3946  0.3052 -0.3627
 5644TIP3    H141127   1.624   1.251   2.176  0.7169 -0.0848  0.1781
 5644TIP3    H241128   1.491   1.206   2.234  0.1625  1.5056  0.1705
 5645TIP3   OH241129   1.739   1.693   3.395 -0.2028 -0.5766 -0.5759
 5645TIP3    H141130   1.775   1.761   3.337  0.5861 -1.2538 -0.9088
 5645TIP3    H241131   1.741   1.613   3.342 -4.9065 -0.2472 -1.6794
 5646TIP3   OH241132   4.837   4.124   3.480 -0.4070  0.5783 -0.2672
 5646TIP3    H141133   4.799   4.183   3.544 -2.6872  1.2251 -2.0991
 5646TIP3    H241134   4.875   4.181   3.413  0.4853 -0.0671 -0.3297
 5647TIP3   OH241135   2.384   6.507   3.341 -0.4183 -0.1242 -0.0236
 5647TIP3    H141136   2.364   6.577   3.403 -0.6218 -1.3846  1.4190
 5647TIP3    H241137   2.480   6.501   3.341 -0.1045  2.5733 -3.0614
 5648TIP3   OH241138   4.399   5.444   2.909  0.5329  0.1968  0.2046
 5648TIP3    H141139   4.421   5.478   2.996  1.4555 -1.1089  0.5000
 5648TIP3    H241140   4.479   5.454   2.858  0.3563 -0.1398 -0.1431
 5649TIP3   OH241141   1.912   2.514   0.880  0.1232 -0.6054  0.3525
 5649TIP3    H141142   1.978   2.573   0.845 -1.9258  0.9778 -1.1173
 5649TIP3    H241143   1.915   2.437   0.822 -0.7209  0.4063 -1.1159
 5650TIP3   OH241144   5.683   3.303   3.489 -0.4704  0.0925  0.1047
 5650TIP3    H141145   5.595   3.300   3.527  1.1158  1.3418  4.4808
 5650TIP3    H241146   5.687   3.389   3.446 -1.8702 -0.7696 -1.9354
 5651TIP3   OH241147   4.359   2.150   3.686  0.1823  0.5260  0.0944
 5651TIP3    H141148   4.453   2.169   3.686  0.2730  0.0905 -0.2341
 5651TIP3    H241149   4.353   2.055   3.692 -0.2096  0.4664 -0.9011
 5652TIP3   OH241150   0.715   2.623   0.665 -0.3284 -0.0345 -0.1439
 5652TIP3    H141151   0.711   2.687   0.593 -1.9175  0.1675  0.0942
 5652TIP3    H241152   0.799   2.642   0.708 -0.2633  1.1716 -0.7363
 5653TIP3   OH241153   6.504   4.240   0.739  0.3454  0.0116 -0.1686
 5653TIP3    H141154   6.580   4.182   0.742 -0.1767 -0.6731  0.6236
 5653TIP3    H241155   6.539   4.327   0.759  0.9283 -0.2978  0.2009
 5654TIP3   OH241156   4.912   0.707   2.647 -0.1624  0.3741 -0.1835
 5654TIP3    H141157   4.901   0.612   2.640 -1.7437  0.3496  1.6194
 5654TIP3    H241158   4.824   0.743   2.632  0.1495  1.4369  0.3945
 5655TIP3   OH241159   2.121   1.502   1.630 -0.2568 -0.4203  0.3493
 5655TIP3    H141160   2.129   1.499   1.535  1.2644  0.3607  0.4133
 5655TIP3    H241161   2.184   1.437   1.661  0.6266  0.6236  0.8266
 5656TIP3   OH241162   3.610   1.432   0.727 -0.0756  0.0094  0.1356
 5656TIP3    H141163   3.662   1.510   0.748  0.8434 -0.7427  0.7675
 5656TIP3    H241164   3.670   1.377   0.677 -0.8153 -0.1709 -0.5688
 5657TIP3   OH241165   4.593   1.739   1.906  0.3861 -0.2727 -0.6913
 5657TIP3    H141166   4.633   1.691   1.979  1.2128  0.8526 -0.3713
 5657TIP3    H241167   4.569   1.671   1.843 -0.0331 -1.2361  0.4781
 5658TIP3   OH241168   4.883   1.632   2.510  0.4143 -0.4864  0.2005
 5658TIP3    H141169   4.932   1.685   2.448 -0.3694  0.9890  0.7961
 5658TIP3    H241170   4.898   1.674   2.595 -1.5744 -0.1681  0.4553
 5659TIP3   OH241171   3.091   6.412   4.527  0.4166  0.1710 -0.4492
 5659TIP3    H141172   3.037   6.444   4.454  0.8488  2.7403  0.2536
 5659TIP3    H241173   3.117   6.323   4.501 -2.3222 -0.3542 -1.7853
 5660TIP3   OH241174   2.520   2.774   0.939  0.0110 -0.1416  0.1228
 5660TIP3    H141175   2.508   2.865   0.913  1.2092 -0.3432 -1.2491
 5660TIP3    H241176   2.604   2.748   0.901  0.4217 -1.3904  1.7543
 5661TIP3   OH241177   3.038   4.955   2.565  0.3091 -0.6298 -0.0498
 5661TIP3    H141178   3.030   4.869   2.526 -0.2555 -1.4217  1.7062
 5661TIP3    H241179   3.132   4.973   2.564  0.3997 -1.1056 -0.7328
 5662TIP3   OH241180   4.278   2.398   1.954  0.2934  0.0393 -0.1471
 5662TIP3    H141181   4.329   2.400   1.873 -1.4433 -0.2867 -1.3185
 5662TIP3    H241182   4.241   2.485   1.961 -1.8996 -0.7020 -1.3709
 5663TIP3   OH241183   2.917   1.606   1.468  0.4973 -0.5910  0.4661
 5663TIP3    H141184   2.859   1.565   1.532  2.4157 -3.2076  0.6957
 5663TIP3    H241185   2.975   1.661   1.521 -0.3088  0.2826  0.4769
 5664TIP3   OH241186   5.467   4.217   3.509 -0.0214  0.3341 -0.2523
 5664TIP3    H141187   5.416   4.155   3.457  0.7791  0.1505 -0.8385
 5664TIP3    H241188   5.490   4.167   3.588  0.3319 -0.0117 -0.5676
 5665TIP3   OH241189   1.626   4.792   3.663  0.1490  0.1958  0.0868
 5665TIP3    H141190   1.704   4.813   3.713 -1.4247 -0.2442  2.9705
 5665TIP3    H241191   1.613   4.698   3.676 -0.9587  0.2967 -0.1471
 5666TIP3   OH241192   1.872   1.006   3.760  0.7866 -0.5431  0.3405
 5666TIP3    H141193   1.953   1.035   3.803  0.6309 -0.0832  0.3273
 5666TIP3    H241194   1.851   1.076   3.699  1.0054 -1.1992 -0.4994
 5667TIP3   OH241195   4.669   0.481   1.784 -0.2869  0.3893  0.1538
 5667TIP3    H141196   4.616   0.409   1.752 -0.7932  0.0914  1.5927
 5667TIP3    H241197   4.674   0.542   1.710 -1.7422 -0.0669 -0.3535
 5668TIP3   OH241198   3.064   2.134   1.179 -0.0523  0.0108  0.1988
 5668TIP3    H141199   3.139   2.193   1.167  1.5393 -1.3537  2.5999
 5668TIP3    H241200   3.083   2.088   1.260 -3.0195 -1.2086  0.3222
 5669TIP3   OH241201   4.429   2.874   0.635 -0.0459 -0.4690 -0.1629
 5669TIP3    H141202   4.407   2.962   0.604 -0.1883 -0.1139  0.8985
 5669TIP3    H241203   4.519   2.860   0.607  0.1464  0.2196  0.0777
 5670TIP3   OH241204   0.583   2.578   3.529  0.2113  0.3269  0.1804
 5670TIP3    H141205   0.566   2.529   3.609 -0.7933 -1.5490 -1.1034
 5670TIP3    H241206   0.677   2.572   3.516  0.0966 -1.6390 -0.0982
 5671TIP3   OH241207   1.202   6.090   2.417  0.0020 -0.1112  0.1893
 5671TIP3    H141208   1.220   6.096   2.323 -1.4171 -1.3069 -0.2092
 5671TIP3    H241209   1.137   6.158   2.433  0.9894  0.7654  0.5334
 5672TIP3   OH241210   3.071   2.425   2.952  0.7181  0.5990 -0.1225
 5672TIP3    H141211   3.094   2.376   3.032 -1.0402 -0.3185 -0.1398
 5672TIP3    H241212   3.020   2.499   2.984  0.1262  0.3036 -0.3728
 5673TIP3   OH241213   3.083   3.154   3.031  0.1229 -0.2133  0.2788
 5673TIP3    H141214   3.127   3.202   3.101 -0.8071  0.9492  0.1075
 5673TIP3    H241215   3.152   3.102   2.990  1.1273  0.7618  0.6775
 5674TIP3   OH241216   6.009   0.159   3.537 -0.0964 -0.4821 -0.5219
 5674TIP3    H141217   6.061   0.235   3.562  0.8907 -1.6481  1.1879
 5674TIP3    H241218   5.970   0.129   3.619 -1.8528 -0.8285 -1.4579
 5675TIP3   OH241219   0.790   1.290   2.280 -0.1720 -0.6100 -0.0751
 5675TIP3    H141220   0.697   1.270   2.288 -0.9630  0.8346 -3.6464
 5675TIP3    H241221   0.798   1.382   2.308  0.1513 -0.6832  0.0831
 5676TIP3   OH241222   2.158   2.009   2.697  0.2169 -0.0320  0.1835
 5676TIP3    H141223   2.221   2.078   2.715  0.7584 -0.3525 -0.4556
 5676TIP3    H241224   2.168   1.991   2.603 -0.1698 -0.7301  0.2710
 5677TIP3   OH241225   6.024   0.122   2.595  0.3615 -0.3607 -0.4619
 5677TIP3    H141226   5.956   0.064   2.629  1.7412 -1.6129  0.2265
 5677TIP3    H241227   6.097   0.112   2.656  2.3758 -1.5269 -2.9163
 5678TIP3   OH241228   5.741   1.283   1.091 -0.5154  0.0972 -0.1770
 5678TIP3    H141229   5.770   1.373   1.074  1.4180 -0.7974 -2.1362
 5678TIP3    H241230   5.731   1.279   1.186  2.1657  1.6653  0.2904
 5679TIP3   OH241231   3.603   3.353   1.977  0.1356  0.0036  0.3237
 5679TIP3    H141232   3.571   3.442   1.990  0.7964  0.1888  0.7508
 5679TIP3    H241233   3.573   3.329   1.890 -2.8252 -0.5510  1.3826
 5680TIP3   OH241234   4.429   5.006   1.881  0.9102  0.0537  0.2848
 5680TIP3    H141235   4.417   4.987   1.787  0.3785  0.6702  0.2263
 5680TIP3    H241236   4.517   5.043   1.886  1.7919 -1.9374  0.3341
 5681TIP3   OH241237   3.988   5.916   3.275  0.1398  0.3203  0.3370
 5681TIP3    H141238   4.039   5.980   3.323 -0.7515  2.0698 -0.9268
 5681TIP3    H241239   3.968   5.848   3.339  0.7100  1.5481  1.8784
 5682TIP3   OH241240   1.172   3.769   1.030  0.5876 -0.5094  0.2089
 5682TIP3    H141241   1.266   3.782   1.042  0.6415  1.8639 -1.9381
 5682TIP3    H241242   1.133   3.799   1.112  1.6234  0.6177  0.3179
 5683TIP3   OH241243   4.857   4.773   2.012 -0.2189  0.6735  0.2555
 5683TIP3    H141244   4.845   4.866   2.031 -2.2552  0.5065  0.0984
 5683TIP3    H241245   4.891   4.736   2.093 -2.1290  1.1272  1.3368
 5684TIP3   OH241246   0.304   0.647   3.818 -0.1170  0.3137  0.0952
 5684TIP3    H141247   0.313   0.693   3.902  1.6722  0.7031 -0.2815
 5684TIP3    H241248   0.368   0.576   3.822 -0.8329 -0.3889 -0.5004
 5685TIP3   OH241249   5.694   0.083   1.858  0.2501 -0.3606  0.0407
 5685TIP3    H141250   5.697  -0.011   1.842  0.6371 -0.1909 -0.9286
 5685TIP3    H241251   5.602   0.100   1.878  0.1204 -0.8977 -0.0796
 5686TIP3   OH241252   1.652   0.586   1.187  0.4075 -0.0902  0.0118
 5686TIP3    H141253   1.648   0.648   1.115  2.5682 -1.0570 -1.0351
 5686TIP3    H241254   1.724   0.528   1.164 -0.4734 -1.9805  1.7511
 5687TIP3   OH241255   5.348   6.352   3.813  0.0583 -0.7295  0.0964
 5687TIP3    H141256   5.412   6.419   3.790 -0.9207  0.0187 -0.5467
 5687TIP3    H241257   5.376   6.320   3.899  1.6464 -0.8941 -0.4537
 5688TIP3   OH241258   6.023   6.179   1.080  0.2872 -0.2670  0.5214
 5688TIP3    H141259   5.948   6.218   1.125  1.5177  1.4232  1.2129
 5688TIP3    H241260   5.985   6.143   1.000 -1.1802  1.2052  0.4751
 5689TIP3   OH241261   1.741   2.116   3.102  0.1756 -0.2038  0.2346
 5689TIP3    H141262   1.652   2.098   3.073  0.7776 -0.2043 -1.8183
 5689TIP3    H241263   1.767   2.194   3.052  1.4292 -0.3942  0.5530
 5690TIP3   OH241264   4.802   1.190   1.427 -0.5618 -0.1662  0.9103
 5690TIP3    H141265   4.829   1.134   1.354 -1.1386  1.6333 -0.7927
 5690TIP3    H241266   4.724   1.148   1.462 -0.5165 -0.8514  0.2229
 5691TIP3   OH241267   0.130   5.460   2.260 -0.0880 -0.1410 -0.2588
 5691TIP3    H141268   0.225   5.474   2.266 -0.0609  0.1251 -1.1610
 5691TIP3    H241269   0.117   5.369   2.286  0.3145  0.0720  0.7172
 5692TIP3   OH241270   0.790   6.431   3.577 -0.1011  0.4484 -0.2435
 5692TIP3    H141271   0.744   6.507   3.613  0.0705  0.5482 -0.2354
 5692TIP3    H241272   0.764   6.358   3.634 -1.1158  0.2847 -0.8888
 5693TIP3   OH241273   5.522   3.924   1.907 -0.1339  0.2510 -0.3872
 5693TIP3    H141274   5.430   3.920   1.933  0.2785  0.2238  1.1687
 5693TIP3    H241275   5.570   3.919   1.990  1.2795 -0.2478 -1.2089
 5694TIP3   OH241276   2.137   4.136   3.072 -0.1054  0.3358  0.1828
 5694TIP3    H141277   2.132   4.102   2.983 -0.3125  0.2822  0.2139
 5694TIP3    H241278   2.133   4.058   3.127 -0.8658  0.4283  0.2628
 5695TIP3   OH241279   2.186   2.095   3.462 -0.5659  0.1651 -0.2703
 5695TIP3    H141280   2.249   2.160   3.431  0.0858 -1.2909 -2.1987
 5695TIP3    H241281   2.121   2.089   3.393 -0.1899 -1.7447 -0.5246
 5696TIP3   OH241282   2.272   1.506   4.019 -0.0472  0.0542 -0.4420
 5696TIP3    H141283   2.366   1.521   4.003 -0.5802  3.9880 -0.8211
 5696TIP3    H241284   2.252   1.426   3.969  3.3169 -1.8445  0.9089
 5697TIP3   OH241285   3.103   3.053   4.002 -0.7551 -0.1611 -0.1055
 5697TIP3    H141286   3.060   3.102   3.933 -0.1485 -0.8370 -0.9893
 5697TIP3    H241287   3.133   3.119   4.064 -1.0086  0.4815 -0.6569
 5698TIP3   OH241288   3.916   2.434   1.466 -0.6039  0.9200 -0.1678
 5698TIP3    H141289   3.902   2.526   1.486  1.0812  1.2058 -0.1622
 5698TIP3    H241290   3.875   2.422   1.380 -1.0445  1.6025 -0.0604
 5699TIP3   OH241291   2.080   5.883   3.600  0.5798 -0.0954 -0.2873
 5699TIP3    H141292   2.160   5.893   3.548  1.8418  0.8763  1.6886
 5699TIP3    H241293   2.079   5.791   3.624  0.4480 -0.3664 -1.2736
 5700TIP3   OH241294   5.892   3.407   2.481 -0.1243 -0.1623  0.2876
 5700TIP3    H141295   5.819   3.404   2.418  0.0655  0.2532  0.0397
 5700TIP3    H241296   5.928   3.319   2.480  1.6412  0.4510 -2.3076
 5701TIP3   OH241297   2.786   2.697   0.834  0.0876 -0.2437 -0.2838
 5701TIP3    H141298   2.835   2.616   0.842  0.1610 -0.1717  0.0164
 5701TIP3    H241299   2.853   2.765   0.822  0.1088 -0.0589  0.7862
 5702TIP3   OH241300   4.878   6.218   4.486 -0.2490  0.4405  0.5789
 5702TIP3    H141301   4.842   6.156   4.423  2.8693 -0.4540 -0.5155
 5702TIP3    H241302   4.848   6.304   4.456  0.6669 -0.0225 -1.8290
 5703TIP3   OH241303   5.460   2.735   1.651 -0.5409 -0.0829  0.3353
 5703TIP3    H141304   5.448   2.825   1.621 -1.0751 -0.3074 -0.1353
 5703TIP3    H241305   5.429   2.735   1.742  0.1721  0.3771  0.5842
 5704TIP3   OH241306   0.801   1.406   2.932 -0.2929 -0.5612  0.5711
 5704TIP3    H141307   0.834   1.328   2.889 -2.6188 -1.5802  0.4755
 5704TIP3    H241308   0.877   1.442   2.979  1.5990 -1.0492 -1.9195
 5705TIP3   OH241309   2.290   6.355   1.499 -0.1601 -0.2850  0.2525
 5705TIP3    H141310   2.286   6.260   1.505 -0.1578 -0.4307 -1.5713
 5705TIP3    H241311   2.355   6.372   1.431  1.1526  1.0893  1.7670
 5706TIP3   OH241312   0.669   1.883   1.441  0.5094 -0.2313 -0.3312
 5706TIP3    H141313   0.619   1.916   1.367  0.3045  0.4287  0.0913
 5706TIP3    H241314   0.700   1.797   1.413 -0.2136 -0.3201 -0.8862
 5707TIP3   OH241315   2.812   5.430   2.485  0.0168  0.3583  0.1128
 5707TIP3    H141316   2.798   5.516   2.525 -0.2842  0.7605 -0.8384
 5707TIP3    H241317   2.902   5.433   2.453  0.5943 -0.3161  1.5678
 5708TIP3   OH241318   2.469   2.193   1.422 -0.3396  0.1994 -0.2091
 5708TIP3    H141319   2.405   2.216   1.490 -0.5138 -0.4515 -0.1489
 5708TIP3    H241320   2.530   2.267   1.421  0.4167 -0.3360  1.5515
 5709TIP3   OH241321   4.602   3.699   1.877  0.0820 -0.0404 -0.4863
 5709TIP3    H141322   4.518   3.710   1.834  0.3032  1.6576 -0.5370
 5709TIP3    H241323   4.661   3.670   1.807 -0.0052  0.7884 -0.9166
 5710TIP3   OH241324   5.908   4.495   2.026 -0.3386  0.0172  0.3693
 5710TIP3    H141325   5.999   4.522   2.017 -0.7958  1.0928 -1.5155
 5710TIP3    H241326   5.869   4.560   2.085 -0.2818  0.6482 -0.2706
 5711TIP3   OH241327   4.204   1.505   1.727 -0.2581 -0.5097  0.2801
 5711TIP3    H141328   4.230   1.441   1.660 -1.6362 -0.2346 -0.5602
 5711TIP3    H241329   4.264   1.579   1.713  1.3972 -1.5840  1.3111
 5712TIP3   OH241330   4.320   2.282   3.269 -0.4144  0.0676  0.2861
 5712TIP3    H141331   4.309   2.334   3.348  0.4661  1.1323 -0.2534
 5712TIP3    H241332   4.363   2.201   3.299  0.0193  0.5107  0.8793
 5713TIP3   OH241333   6.775   4.641   2.356 -0.5310 -0.2353  0.2156
 5713TIP3    H141334   6.768   4.732   2.384 -0.1569  0.0846 -0.6951
 5713TIP3    H241335   6.822   4.597   2.427 -0.0751  0.4369  0.3374
 5714TIP3   OH241336   1.546   2.389   3.583 -0.1020 -0.1598  0.2495
 5714TIP3    H141337   1.492   2.347   3.650 -3.4639  1.5197 -1.1735
 5714TIP3    H241338   1.595   2.456   3.631 -0.8791 -0.3182  1.3095
 5715TIP3   OH241339   0.354   5.193   0.329  0.4426  0.2252 -0.1551
 5715TIP3    H141340   0.302   5.133   0.383  0.0696  0.6165 -0.0765
 5715TIP3    H241341   0.427   5.218   0.386  0.1684  0.4654  0.0942
 5716TIP3   OH241342   5.484   5.025   2.084  0.0485 -0.3929 -0.2328
 5716TIP3    H141343   5.420   5.071   2.139  0.0404 -0.1953 -0.4066
 5716TIP3    H241344   5.497   5.083   2.009  2.0391  0.6480  0.8026
 5717TIP3   OH241345   1.854   1.836   2.936  0.0466 -0.2932  0.4523
 5717TIP3    H141346   1.766   1.849   2.902  0.6736 -1.0382 -1.5914
 5717TIP3    H241347   1.882   1.752   2.900  1.6772  0.0242  0.8684
 5718TIP3   OH241348   5.928   2.616   4.236 -0.4287  0.2453  0.2448
 5718TIP3    H141349   5.845   2.659   4.256  0.0028  1.1758  0.0678
 5718TIP3    H241350   5.993   2.665   4.285  0.1475  0.1475 -0.4175
 5719TIP3   OH241351   1.605   1.886   2.157  0.4360  0.3733  0.0921
 5719TIP3    H141352   1.639   1.926   2.237  1.1058 -0.7198  0.3865
 5719TIP3    H241353   1.674   1.824   2.131  0.5283  1.1821 -1.7094
 5720TIP3   OH241354   6.189   3.828   2.878  0.2016  0.8879 -0.4343
 5720TIP3    H141355   6.273   3.838   2.834  0.1307  1.6097 -0.4061
 5720TIP3    H241356   6.125   3.863   2.816  0.1092  2.0066  0.2831
 5721TIP3   OH241357   3.548   3.180   2.528  0.2948 -0.7227 -0.0158
 5721TIP3    H141358   3.551   3.261   2.477 -0.4021 -1.4533 -1.2495
 5721TIP3    H241359   3.504   3.117   2.471  0.3497 -1.8316  1.1297
 5722TIP3   OH241360   6.645   1.662   1.318 -0.0170  0.9429 -0.1781
 5722TIP3    H141361   6.718   1.708   1.277 -0.6907  1.1370 -1.2008
 5722TIP3    H241362   6.623   1.591   1.257  0.8300 -0.6191  1.2339
 5723TIP3   OH241363   1.297   0.764   3.618  0.4144 -0.4774  0.2273
 5723TIP3    H141364   1.299   0.739   3.525 -0.9021  0.8882 -0.2278
 5723TIP3    H241365   1.221   0.717   3.653 -0.8961  1.2209 -0.1664
 5724TIP3   OH241366   6.109   4.826   1.997 -0.2507  0.1507  0.5378
 5724TIP3    H141367   6.148   4.738   2.004  0.9554  0.5611 -0.5199
 5724TIP3    H241368   6.095   4.838   1.903 -0.3635  1.1072  0.6691
 5725TIP3   OH241369   2.246   0.808   3.545  0.6751 -0.0761  0.1995
 5725TIP3    H141370   2.334   0.833   3.575  0.1607  1.8238  0.2711
 5725TIP3    H241371   2.194   0.802   3.626  0.4110  0.2314  0.0529
 5726TIP3   OH241372   5.073   4.507   2.403  0.0158 -0.1009  0.3097
 5726TIP3    H141373   5.086   4.438   2.339 -1.5394 -0.2128  0.0640
 5726TIP3    H241374   5.083   4.464   2.488 -2.1283 -0.9623  0.1876
 5727TIP3   OH241375   4.500   2.442   1.039 -0.3101  0.2552 -0.1441
 5727TIP3    H141376   4.582   2.397   1.019  0.7479  2.1369 -0.2411
 5727TIP3    H241377   4.473   2.480   0.955 -1.8508 -1.1354 -0.3403
 5728TIP3   OH241378   0.430   5.305   1.790  0.1362  0.5603 -0.0154
 5728TIP3    H141379   0.450   5.383   1.841  0.1363 -0.2933  1.3374
 5728TIP3    H241380   0.502   5.245   1.809 -1.0313 -0.6196  0.7981
 5729TIP3   OH241381   0.299   2.009   0.756  0.0179  0.0492  0.0765
 5729TIP3    H141382   0.313   2.058   0.837 -0.8197  2.6728 -1.2431
 5729TIP3    H241383   0.361   2.047   0.694  0.2283 -1.4908 -0.6806
 5730TIP3   OH241384   4.530   2.841   0.923  0.2381 -0.3937 -0.0712
 5730TIP3    H141385   4.506   2.854   0.831  2.0882  0.0404 -0.5470
 5730TIP3    H241386   4.581   2.760   0.923 -2.3669 -2.1548  1.1463
 5731TIP3   OH241387   0.274   5.407   1.079 -0.1347 -0.1166  0.2706
 5731TIP3    H141388   0.359   5.421   1.038  0.4289 -2.7034  0.3952
 5731TIP3    H241389   0.252   5.491   1.119  1.1279  1.3470 -1.9299
 5732TIP3   OH241390   1.466   6.285   4.425 -0.2160  0.0444  0.0597
 5732TIP3    H141391   1.487   6.252   4.512 -0.4796  0.8751  0.4471
 5732TIP3    H241392   1.549   6.323   4.393  0.1130 -1.0432 -0.4260
 5733TIP3   OH241393   4.271   4.069   2.490  0.4254 -0.4509  0.3523
 5733TIP3    H141394   4.237   4.009   2.423  0.8067 -0.4333  0.1376
 5733TIP3    H241395   4.335   4.017   2.538 -0.8984 -0.9165  1.6721
 5734TIP3   OH241396   1.862   6.367   1.313  0.0592 -0.2248  0.0738
 5734TIP3    H141397   1.898   6.322   1.237 -0.6385 -0.4033 -0.1597
 5734TIP3    H241398   1.881   6.309   1.387  2.4883  0.8392  0.3860
 5735TIP3   OH241399   0.347   1.555   3.127 -0.3697  0.3339 -0.1033
 5735TIP3    H141400   0.345   1.621   3.196  1.6587  1.1353 -0.7472
 5735TIP3    H241401   0.422   1.579   3.073 -0.1001 -2.0168 -0.8769
 5736TIP3   OH241402   0.523   6.210   2.937  0.6072  0.3615 -0.5289
 5736TIP3    H141403   0.488   6.122   2.926 -0.7530  0.4403  2.3518
 5736TIP3    H241404   0.446   6.265   2.951  1.5361  1.6638 -0.3604
 5737TIP3   OH241405   1.955   2.098   2.865 -0.3073  0.0078  0.1506
 5737TIP3    H141406   1.917   2.015   2.894  0.3075 -0.0789  0.7326
 5737TIP3    H241407   2.039   2.073   2.825  0.3231  0.4125  1.1655
 5738TIP3   OH241408   3.904   1.115   1.484 -0.1475 -0.2131  0.1067
 5738TIP3    H141409   3.993   1.081   1.498 -0.3075 -1.6085 -1.8426
 5738TIP3    H241410   3.918   1.200   1.441  0.2548 -0.2324  0.1934
 5739TIP3   OH241411   2.584   3.427   1.636  0.6611 -0.1503  0.3150
 5739TIP3    H141412   2.598   3.416   1.731  0.4757 -1.6657  0.1805
 5739TIP3    H241413   2.526   3.503   1.630 -0.2830 -0.7405  1.4894
 5740TIP3   OH241414   0.843   5.774   1.609  0.2147 -0.3262 -0.0060
 5740TIP3    H141415   0.915   5.722   1.643  0.5977 -0.5126 -1.0892
 5740TIP3    H241416   0.830   5.743   1.520  0.2445  1.2151 -0.5664
 5741TIP3   OH241417   6.269   5.454   2.475 -0.3757 -0.5421 -0.0355
 5741TIP3    H141418   6.349   5.498   2.504 -1.4707  0.7020  1.2569
 5741TIP3    H241419   6.292   5.361   2.475  0.9662 -0.2408  0.6740
 5742TIP3   OH241420   5.470   4.076   2.756 -0.6350  0.1858 -0.1324
 5742TIP3    H141421   5.501   4.014   2.822  0.5067 -0.6638 -1.4260
 5742TIP3    H241422   5.505   4.043   2.673 -2.0706  1.1949 -1.1905
 5743TIP3   OH241423   1.400   1.098  10.443  0.0202 -1.0253 -0.3656
 5743TIP3    H141424   1.412   1.047  10.363  1.4173 -0.3138 -0.6379
 5743TIP3    H241425   1.445   1.180  10.426 -1.0907 -0.2029  0.5544
 5744TIP3   OH241426   4.921   4.185   2.045  0.4253  1.2060 -0.2817
 5744TIP3    H141427   4.973   4.135   1.983 -0.8369 -1.1657  0.4347
 5744TIP3    H241428   4.976   4.259   2.070  2.9873 -0.5671 -0.3889
 5745TIP3   OH241429   2.919   2.226   3.261  0.5301  0.4998  0.2472
 5745TIP3    H141430   2.914   2.193   3.350  0.1769 -1.9498 -0.6117
 5745TIP3    H241431   3.007   2.264   3.254  1.1721 -0.7677  1.1562
 5746TIP3   OH241432   2.362   5.619   0.683 -0.3137  0.5093 -0.5091
 5746TIP3    H141433   2.394   5.580   0.602 -1.1843  0.0969 -0.6676
 5746TIP3    H241434   2.271   5.589   0.690 -0.4891  1.1691  0.2217
 5747TIP3   OH241435   1.979   3.201   3.697  0.1616 -0.4358 -0.0347
 5747TIP3    H141436   2.023   3.183   3.780 -1.4366 -0.7195  0.8074
 5747TIP3    H241437   1.939   3.288   3.709 -1.8555 -1.3539  0.3584
 5748TIP3   OH241438   1.800   4.392   2.183 -0.3437  0.7402  0.6777
 5748TIP3    H141439   1.769   4.456   2.119  1.2086  2.5298  1.6236
 5748TIP3    H241440   1.892   4.377   2.161 -0.6456 -1.1622  0.5296
 5749TIP3   OH241441   6.513   5.019   0.567  0.4203 -0.4651  0.1173
 5749TIP3    H141442   6.435   5.051   0.522  0.2994 -0.3136  0.4321
 5749TIP3    H241443   6.537   4.939   0.520  0.9102  0.2575 -0.8732
 5750TIP3   OH241444   6.356   0.044   3.186  0.4257  0.1662 -0.1483
 5750TIP3    H141445   6.265   0.071   3.174  0.6506  1.2133  0.4623
 5750TIP3    H241446   6.353  -0.018   3.259  0.4129  1.5152  1.0325
 5751TIP3   OH241447   5.751   2.070   2.757 -0.2809 -0.3990  0.0685
 5751TIP3    H141448   5.803   2.151   2.757  0.1619 -0.6737  0.8946
 5751TIP3    H241449   5.768   2.031   2.671  1.5505 -0.8977  0.6135
 5752TIP3   OH241450   1.982   5.933   4.073  0.3458 -0.4960  0.1598
 5752TIP3    H141451   2.005   6.007   4.128  0.2028 -0.9099  0.7886
 5752TIP3    H241452   2.062   5.911   4.026  0.7467 -0.7693  0.9553
 5753TIP3   OH241453   0.619   0.049   2.852 -0.3811  0.1966  0.1021
 5753TIP3    H141454   0.591  -0.043   2.853 -1.1011  0.4031  0.0172
 5753TIP3    H241455   0.685   0.054   2.784 -0.8721 -0.1206 -0.4085
 5754TIP3   OH241456   2.751   1.221   1.666 -0.1076 -0.4195 -0.0682
 5754TIP3    H141457   2.732   1.156   1.734 -0.4648 -1.7977 -1.4379
 5754TIP3    H241458   2.775   1.170   1.589  1.0130  1.1269 -0.7935
 5755TIP3   OH241459   3.516   4.310   2.996  0.2061 -0.6555 -0.0380
 5755TIP3    H141460   3.589   4.327   2.937 -0.1541  0.6957 -0.1288
 5755TIP3    H241461   3.557   4.293   3.081  0.6504 -0.4355 -0.2033
 5756TIP3   OH241462   0.555   1.509   2.122 -0.0785  0.1238 -0.0197
 5756TIP3    H141463   0.621   1.523   2.189 -0.5091  1.1285  0.2146
 5756TIP3    H241464   0.586   1.559   2.046 -2.0158  3.2847  1.0788
 5757TIP3   OH241465   1.930   1.565   4.082 -0.4127  0.0105  0.0027
 5757TIP3    H141466   1.979   1.564   4.000  1.3632  1.6667  0.9577
 5757TIP3    H241467   1.855   1.623   4.064 -0.6496 -0.5066 -0.7334
 5758TIP3   OH241468   3.996   1.825   0.890 -0.1380 -0.2626 -0.6996
 5758TIP3    H141469   4.002   1.904   0.943  0.9003 -0.0914 -1.0604
 5758TIP3    H241470   4.017   1.754   0.951  1.4157 -0.0363 -0.9437
 5759TIP3   OH241471   2.750   3.415   1.088 -0.0011  0.1965  0.9081
 5759TIP3    H141472   2.672   3.450   1.132 -1.1687 -0.0247 -0.8810
 5759TIP3    H241473   2.733   3.321   1.080  0.7225  0.0491  1.0238
 5760TIP3   OH241474   4.199   0.289   1.333 -0.5540  0.6917 -0.0044
 5760TIP3    H141475   4.131   0.284   1.265 -1.9442 -1.3252  1.4059
 5760TIP3    H241476   4.150   0.301   1.414  0.6313 -2.0120  1.2159
 5761TIP3   OH241477   3.305   3.313   2.870  0.0886  0.6642  0.0967
 5761TIP3    H141478   3.305   3.217   2.863  1.8829  0.6950 -0.7641
 5761TIP3    H241479   3.254   3.342   2.795 -0.3901  0.3983  0.3133
 5762TIP3   OH241480   2.080   4.094   2.782 -0.0323  0.0201  0.2928
 5762TIP3    H141481   2.016   4.134   2.722  0.1019  0.8672  0.6925
 5762TIP3    H241482   2.080   4.002   2.759 -0.9137  0.1213 -0.1690
 5763TIP3   OH241483   6.050   3.291   3.334 -0.1192 -0.0644 -0.4398
 5763TIP3    H141484   5.982   3.358   3.327 -0.9527 -0.7687  0.5732
 5763TIP3    H241485   6.130   3.339   3.355 -0.7701  0.6167  0.5961
 5764TIP3   OH241486   0.184   4.257   2.455  0.0251 -0.3443 -0.2228
 5764TIP3    H141487   0.189   4.268   2.360  0.4731 -2.7769 -0.5324
 5764TIP3    H241488   0.101   4.212   2.470 -0.4215  0.7098  0.6488
 5765TIP3   OH241489   5.840   1.316   2.128 -0.1797  0.7566 -0.1683
 5765TIP3    H141490   5.848   1.235   2.178  0.1566  0.3851 -0.8113
 5765TIP3    H241491   5.746   1.334   2.127 -0.4808 -0.5895 -1.4791
 5766TIP3   OH241492   5.977   4.877   3.298  0.0950  0.2276  0.1439
 5766TIP3    H141493   5.965   4.962   3.256  0.8359  1.7134  2.7009
 5766TIP3    H241494   5.918   4.818   3.251 -1.9322  2.6051 -0.4861
 5767TIP3   OH241495   3.205   5.553   2.676  0.1914  0.4419 -0.2686
 5767TIP3    H141496   3.112   5.550   2.698  0.2395  1.5901  0.1924
 5767TIP3    H241497   3.224   5.647   2.667  1.4212  0.2625  0.2067
 5768TIP3   OH241498   5.631   1.592   1.285  0.1887  0.1880  0.1921
 5768TIP3    H141499   5.611   1.610   1.193  0.2677  0.1348  0.1648
 5768TIP3    H241500   5.711   1.641   1.302 -1.0822  2.1508  0.8869
 5769TIP3   OH241501   5.729   5.326   1.608 -0.0256  0.6279  0.8909
 5769TIP3    H141502   5.715   5.250   1.552  1.0142 -1.4153  3.2107
 5769TIP3    H241503   5.661   5.388   1.582 -1.6649 -1.5405 -0.3472
 5770TIP3   OH241504   0.434   4.026   1.951 -0.2936 -0.3864 -0.7766
 5770TIP3    H141505   0.465   4.079   2.024 -1.5683  0.9901 -1.1798
 5770TIP3    H241506   0.506   4.025   1.889  0.4029 -0.6636  0.0186
 5771TIP3   OH241507   2.792   3.143   2.730  0.1227 -0.0679  0.3154
 5771TIP3    H141508   2.799   3.136   2.825 -2.3448 -0.7402  0.5141
 5771TIP3    H241509   2.840   3.223   2.708  0.2440  0.4133  2.2026
 5772TIP3   OH241510   5.330   6.476   3.538  0.0519 -0.5416  0.0773
 5772TIP3    H141511   5.247   6.470   3.491 -0.6404  1.0628  1.0342
 5772TIP3    H241512   5.369   6.389   3.528 -0.9716 -0.8409 -1.7648
 5773TIP3   OH241513   4.080   5.216   3.597 -0.3321 -0.6338 -0.1117
 5773TIP3    H141514   3.986   5.217   3.580 -0.1494 -0.1625 -1.1601
 5773TIP3    H241515   4.113   5.141   3.548 -0.1469 -0.7492  0.1874
 5774TIP3   OH241516   0.887   0.723   0.924  0.5491  0.0967  0.0902
 5774TIP3    H141517   0.946   0.709   0.850 -0.3002 -0.7554 -0.4428
 5774TIP3    H241518   0.932   0.789   0.978  1.3421  0.4745 -0.9901
 5775TIP3   OH241519   0.540   5.849   1.595  0.2982 -0.1072 -0.3723
 5775TIP3    H141520   0.466   5.816   1.544  0.3360 -1.1809  0.2250
 5775TIP3    H241521   0.592   5.770   1.613  1.0537  0.4849  0.0670
 5776TIP3   OH241522   0.175   5.339   2.783  0.2742 -0.0787 -0.3211
 5776TIP3    H141523   0.111   5.281   2.741  0.0191 -0.4240  0.5393
 5776TIP3    H241524   0.260   5.305   2.758  0.1567  0.7225 -1.9649
 5777TIP3   OH241525   5.426   0.807   1.594  0.6167  0.5540  0.1211
 5777TIP3    H141526   5.482   0.872   1.552  1.5919 -1.9514 -2.8461
 5777TIP3    H241527   5.487   0.739   1.624 -0.4464  0.4049  2.1063
 5778TIP3   OH241528   2.911   3.376   2.967 -0.1530  0.2500 -0.0911
 5778TIP3    H141529   2.916   3.397   3.061  0.9627  2.5820 -0.5830
 5778TIP3    H241530   2.968   3.301   2.956 -1.1260 -0.7328  1.2290
 5779TIP3   OH241531   4.833   4.606   2.539 -0.6578 -0.0658  0.2373
 5779TIP3    H141532   4.904   4.569   2.488 -0.6597 -1.4421  1.2055
 5779TIP3    H241533   4.756   4.554   2.515 -1.3835  1.3847 -0.7799
 5780TIP3   OH241534   1.544   1.803   2.830 -0.0209  0.5749 -0.6673
 5780TIP3    H141535   1.577   1.806   2.740 -0.4275  3.2766 -0.8205
 5780TIP3    H241536   1.459   1.760   2.823  0.7704 -0.9938 -1.2122
 5781TIP3   OH241537   4.723   6.629   2.859 -0.0316 -0.1978  0.0039
 5781TIP3    H141538   4.692   6.539   2.865 -0.8541  0.1394  1.0851
 5781TIP3    H241539   4.814   6.621   2.832 -0.1890 -1.3342 -0.2404
 5782TIP3   OH241540   2.473   0.846   1.579  0.1178  0.6297 -0.0631
 5782TIP3    H141541   2.560   0.831   1.542  0.6742  0.1667  1.3610
 5782TIP3    H241542   2.466   0.783   1.650 -2.0357 -0.4459 -1.1455
 5783TIP3   OH241543   3.173   1.820   1.084 -0.4612 -0.0708 -0.1309
 5783TIP3    H141544   3.141   1.836   1.172  0.5009  0.9030  0.0562
 5783TIP3    H241545   3.111   1.865   1.027 -0.1097  0.7910  0.1581
 5784TIP3   OH241546   2.129   0.554   3.201  0.0142  0.2358 -0.2371
 5784TIP3    H141547   2.135   0.475   3.147 -1.4234 -1.1033  1.4175
 5784TIP3    H241548   2.205   0.550   3.259 -0.4275 -0.3713  0.3258
 5785TIP3   OH241549   4.742   1.934   1.727  0.3533  0.1853 -0.4737
 5785TIP3    H141550   4.712   1.875   1.796 -0.1727  1.5683  0.5409
 5785TIP3    H241551   4.666   1.991   1.710  1.1495  1.2117 -0.6964
 5786TIP3   OH241552   5.707   6.486   2.557 -0.5822 -0.1806  0.0206
 5786TIP3    H141553   5.648   6.561   2.567  1.1740  1.1901  0.6085
 5786TIP3    H241554   5.702   6.441   2.641 -0.3963  0.2282  0.2520
 5787TIP3   OH241555   5.724   1.824   2.167 -0.7471 -0.1032 -0.6311
 5787TIP3    H141556   5.781   1.898   2.184 -0.1038 -0.7616  0.1388
 5787TIP3    H241557   5.681   1.807   2.251 -3.5614  1.5597 -1.5918
 5788TIP3   OH241558   1.648   0.299   1.036  0.2818  0.7356 -0.4064
 5788TIP3    H141559   1.583   0.230   1.044  1.0604 -0.0505 -0.6653
 5788TIP3    H241560   1.597   0.380   1.031 -0.8224 -0.0250 -3.2911
 5789TIP3   OH241561   1.672   4.689   0.850  0.2121  0.5930  0.3023
 5789TIP3    H141562   1.657   4.781   0.869  0.2397  0.7388 -0.3374
 5789TIP3    H241563   1.649   4.643   0.931 -0.1677  1.1276  0.5032
 5790TIP3   OH241564   5.444   6.418   0.438 -0.5368 -0.1233  0.6647
 5790TIP3    H141565   5.488   6.333   0.447 -0.6979 -0.0921  1.9452
 5790TIP3    H241566   5.465   6.464   0.519 -1.6098  0.5108  0.5930
 5791TIP3   OH241567   6.099   2.126   2.346 -0.2379  0.0065 -0.2896
 5791TIP3    H141568   6.168   2.170   2.297 -0.2510  0.0964 -0.2284
 5791TIP3    H241569   6.118   2.148   2.438 -0.7656  0.6416 -0.3192
 5792TIP3   OH241570   4.224   1.092   3.520 -0.0799  0.0942 -0.2780
 5792TIP3    H141571   4.171   1.050   3.452 -0.6837 -0.6696  0.6436
 5792TIP3    H241572   4.310   1.052   3.512 -0.5878 -1.2084  0.4444
 5793TIP3   OH241573   1.610   4.110   1.999  0.0812  0.6717  0.1883
 5793TIP3    H141574   1.543   4.145   2.057 -1.2230 -2.0410  0.5213
 5793TIP3    H241575   1.687   4.098   2.055 -0.4935  0.0456  0.8735
 5794TIP3   OH241576   3.298   3.958   1.563 -0.0198  0.0935 -0.0181
 5794TIP3    H141577   3.384   3.932   1.531  2.4592  3.0866  3.3689
 5794TIP3    H241578   3.270   3.886   1.619 -0.0748 -1.1285 -1.5500
 5795TIP3   OH241579   2.892   6.777   3.324  0.0484 -0.1014 -0.6529
 5795TIP3    H141580   2.973   6.727   3.336 -0.3435 -0.5452  0.2200
 5795TIP3    H241581   2.886   6.832   3.402 -1.5803 -1.6591  0.4018
 5796TIP3   OH241582   4.841   4.648   0.973  0.1400 -0.7123  0.6520
 5796TIP3    H141583   4.859   4.625   1.064 -0.0859 -2.8710  0.2059
 5796TIP3    H241584   4.754   4.611   0.955 -1.8904  3.5042  0.7708
 5797TIP3   OH241585   4.356   6.320   1.682  0.3066  0.2936 -0.7179
 5797TIP3    H141586   4.277   6.271   1.657  0.4257 -0.8914  1.0690
 5797TIP3    H241587   4.395   6.346   1.599 -0.4917 -1.4946 -1.7100
 5798TIP3   OH241588   1.521   5.150   4.035 -0.2429 -0.1659  0.0184
 5798TIP3    H141589   1.441   5.195   4.008  0.5508  1.3410  0.0683
 5798TIP3    H241590   1.491   5.086   4.100 -1.8261 -1.9791 -2.2992
 5799TIP3   OH241591   1.595   3.401   3.369 -0.0133 -0.0061  0.3365
 5799TIP3    H141592   1.644   3.319   3.370  1.7102  0.8074  4.6423
 5799TIP3    H241593   1.649   3.461   3.318 -0.6992 -1.1192 -1.8219
 5800TIP3   OH241594   3.691   4.391   0.997 -0.1980  0.3873  0.1585
 5800TIP3    H141595   3.785   4.405   1.008 -0.3842  1.8179  0.1377
 5800TIP3    H241596   3.662   4.358   1.082 -0.0039  1.9652  0.8652
 5801TIP3   OH241597   5.769   3.082   2.856  0.6220 -0.4877  0.4260
 5801TIP3    H141598   5.836   3.134   2.901 -0.5632  1.0752  0.4828
 5801TIP3    H241599   5.723   3.036   2.925  0.1686  0.2571  0.6333
 5802TIP3   OH241600   2.917   5.799   0.746 -0.0316 -0.3680 -0.2826
 5802TIP3    H141601   2.890   5.729   0.688  3.5519 -0.2224 -2.4438
 5802TIP3    H241602   2.879   5.878   0.708 -3.5169 -0.8451  1.7800
 5803TIP3   OH241603   5.316   4.029   0.948  0.7798  0.2508 -0.1035
 5803TIP3    H141604   5.355   4.108   0.910  0.1666  0.6176  0.0097
 5803TIP3    H241605   5.317   3.965   0.877  3.3154 -0.3957  0.4289
 5804TIP3   OH241606   0.600   0.337   4.390 -0.1139  0.1340  0.4507
 5804TIP3    H141607   0.691   0.321   4.366 -0.4766  0.0615 -0.9560
 5804TIP3    H241608   0.604   0.371   4.479  1.1446 -1.9669  1.2803
 5805TIP3   OH241609   6.252   3.477   3.169 -0.2671  0.4110  0.0654
 5805TIP3    H141610   6.211   3.551   3.214  1.9739  1.2035  0.9725
 5805TIP3    H241611   6.256   3.504   3.078 -1.1876  0.5711  0.0652
 5806TIP3   OH241612   0.778   3.676   1.136 -0.0919  0.5897 -0.0088
 5806TIP3    H141613   0.692   3.669   1.178 -0.8134 -1.5438 -1.6459
 5806TIP3    H241614   0.762   3.651   1.045  1.7067  3.3789 -1.2356
 5807TIP3   OH241615   3.824   0.657   1.716 -1.0805 -0.1142  0.6505
 5807TIP3    H141616   3.806   0.750   1.706 -0.4557  0.0956  1.3881
 5807TIP3    H241617   3.918   0.652   1.731 -0.9462 -0.9522 -0.3277
 5808TIP3   OH241618   1.860   1.107   0.783  0.1816 -0.0603 -0.4647
 5808TIP3    H141619   1.809   1.116   0.701  0.7395  0.5777 -0.7497
 5808TIP3    H241620   1.803   1.055   0.840 -0.6627  0.3510 -0.8953
 5809TIP3   OH241621   6.619   4.789   0.426  0.2742  0.6050 -0.1254
 5809TIP3    H141622   6.659   4.744   0.500  0.2290  0.8045  0.0201
 5809TIP3    H241623   6.662   4.750   0.349  0.1173  0.1974 -0.0108
 5810TIP3   OH241624   1.310   0.255   1.676  1.0840 -0.1563  0.0510
 5810TIP3    H141625   1.356   0.243   1.593  1.4403 -0.6854  0.3248
 5810TIP3    H241626   1.291   0.349   1.680 -1.3966 -0.4563 -1.9507
 5811TIP3   OH241627   2.622   4.667   1.626 -0.3516  0.1402  0.3300
 5811TIP3    H141628   2.629   4.757   1.657  1.6728  0.2227 -0.2334
 5811TIP3    H241629   2.529   4.644   1.638 -1.0600  2.5116 -0.2048
 5812TIP3   OH241630   2.471   5.308   1.533 -0.4877  0.0897  0.7277
 5812TIP3    H141631   2.433   5.393   1.556 -0.2944  0.5630 -0.6070
 5812TIP3    H241632   2.416   5.277   1.461  0.1782 -0.3433  0.4008
 5813TIP3   OH241633   3.263   1.852   2.162  0.1435  0.0319  0.1002
 5813TIP3    H141634   3.299   1.770   2.196 -0.1507 -1.0476 -2.0069
 5813TIP3    H241635   3.225   1.828   2.077 -0.2224  2.3021 -0.4452
 5814TIP3   OH241636   0.441   1.735   2.503 -0.1558 -0.5034  0.1326
 5814TIP3    H141637   0.390   1.773   2.574 -0.0141  1.4323 -0.7371
 5814TIP3    H241638   0.381   1.734   2.429  0.7435  0.9831 -0.6670
 5815TIP3   OH241639   2.936   1.710   3.148  0.0787 -0.1549 -0.4553
 5815TIP3    H141640   2.982   1.732   3.229 -0.1784  1.7327 -0.7741
 5815TIP3    H241641   2.908   1.794   3.113 -2.4839 -1.1398 -0.9742
 5816TIP3   OH241642   2.602   5.352   2.159  0.8485  0.0527  0.2098
 5816TIP3    H141643   2.680   5.381   2.206 -0.0110  2.2515  0.4195
 5816TIP3    H241644   2.579   5.426   2.104 -1.1018 -0.5299  0.1680
 5817TIP3   OH241645   4.997   0.426   2.976  0.3565  0.5553  0.2271
 5817TIP3    H141646   5.012   0.365   2.905  0.9757 -1.4813  2.0157
 5817TIP3    H241647   5.081   0.470   2.989  0.1637  1.1456 -0.4485
 5818TIP3   OH241648   6.158   4.536   3.255 -0.0268 -0.4001  0.2399
 5818TIP3    H141649   6.215   4.567   3.326 -1.7557  1.3639  0.9459
 5818TIP3    H241650   6.078   4.507   3.299 -0.1456 -1.8196 -0.8216
 5819TIP3   OH241651   3.144   6.496   2.219  0.0194 -0.1356 -0.4725
 5819TIP3    H141652   3.121   6.414   2.175 -0.8560  0.5783 -1.3682
 5819TIP3    H241653   3.235   6.512   2.194 -0.2563 -0.0945 -1.4797
 5820TIP3   OH241654   1.876   5.140   2.173  0.4854 -0.0654 -0.0424
 5820TIP3    H141655   1.888   5.083   2.097 -0.9404 -0.9809  0.3735
 5820TIP3    H241656   1.824   5.088   2.234  0.4555  1.1409  1.0049
 5821TIP3   OH241657   1.096   3.788   3.425 -0.4705  0.3586 -0.1943
 5821TIP3    H141658   1.098   3.861   3.487  0.4872  1.3892 -1.3868
 5821TIP3    H241659   1.020   3.806   3.370  0.3419  1.0354 -1.1263
 5822TIP3   OH241660   6.375   2.759   3.013 -0.1519  0.2628  0.1219
 5822TIP3    H141661   6.370   2.771   3.108 -2.2166  1.7112 -0.0779
 5822TIP3    H241662   6.342   2.842   2.977  0.7407 -0.1836 -1.8764
 5823TIP3   OH241663   1.925   0.461   2.966  0.8200 -0.3195 -0.0697
 5823TIP3    H141664   1.972   0.445   3.048  0.4743 -0.1380  0.1640
 5823TIP3    H241665   1.972   0.408   2.901  2.7314  1.5598 -0.3012
 5824TIP3   OH241666   6.599   0.057   2.405 -0.5867 -0.4473  0.0061
 5824TIP3    H141667   6.604   0.018   2.318  0.4214  0.5161 -0.3930
 5824TIP3    H241668   6.663   0.128   2.403 -2.3598  1.2297  0.6990
 5825TIP3   OH241669   1.038   3.745   1.263 -0.5984  0.1924  0.0433
 5825TIP3    H141670   0.970   3.689   1.225 -1.0462  0.0701  0.9947
 5825TIP3    H241671   1.091   3.687   1.316  0.4727  0.2313 -0.9397
 5826TIP3   OH241672   5.414   4.347   1.497 -0.3526 -0.4062  0.1873
 5826TIP3    H141673   5.328   4.389   1.493  1.0019  2.8231  1.6425
 5826TIP3    H241674   5.419   4.311   1.586 -0.3232 -0.9908 -0.0427
 5827TIP3   OH241675   4.083   1.640   1.080 -0.7150  0.6101  0.0937
 5827TIP3    H141676   4.056   1.704   1.146  0.6448  0.5520  0.7342
 5827TIP3    H241677   4.037   1.559   1.104 -0.9882  0.8524  0.3865
 5828TIP3   OH241678   4.699   4.112   2.221 -0.0062  0.8633  0.3580
 5828TIP3    H141679   4.716   4.052   2.294  0.8299  1.5040  0.7058
 5828TIP3    H241680   4.781   4.114   2.172 -0.4191  0.7969 -0.3453
 5829TIP3   OH241681   3.236   5.504   3.374 -0.8354  0.3884  0.0893
 5829TIP3    H141682   3.166   5.542   3.427 -2.0649  0.4164 -1.4414
 5829TIP3    H241683   3.216   5.533   3.285 -0.8740 -2.4098 -0.9109
 5830TIP3   OH241684   0.686   0.385   0.881 -0.0444 -0.2360  0.1843
 5830TIP3    H141685   0.607   0.438   0.892  0.7822  1.1882 -0.4354
 5830TIP3    H241686   0.708   0.394   0.788  0.9448 -0.4775  0.3916
 5831TIP3   OH241687   3.945   5.698   0.607 -0.0503  0.3417  0.0575
 5831TIP3    H141688   3.948   5.760   0.680  1.7683 -1.5447  1.7197
 5831TIP3    H241689   3.902   5.620   0.642  0.3379 -0.4014 -1.0538
 5832TIP3   OH241690   0.063   2.570   2.334  1.0229 -0.0992 -0.2628
 5832TIP3    H141691   0.045   2.652   2.287 -0.1126  0.2730  0.7643
 5832TIP3    H241692   0.130   2.595   2.398 -1.0157  0.7023  1.6898
 5833TIP3   OH241693   3.077   6.117   1.698  0.1370  0.2522  0.0908
 5833TIP3    H141694   3.085   6.209   1.673 -0.3290  1.0836  2.6841
 5833TIP3    H241695   3.166   6.092   1.722  0.1195  0.2879  0.1932
 5834TIP3   OH241696   5.398   0.974   0.559  0.1518 -0.3092 -0.4403
 5834TIP3    H141697   5.449   0.932   0.489 -2.0765 -1.6876 -1.3639
 5834TIP3    H241698   5.439   0.945   0.640  1.9034  0.1091 -1.1435
 5835TIP3   OH241699   1.360   0.970   2.883  0.6236 -0.2540 -0.1286
 5835TIP3    H141700   1.404   0.940   2.963 -0.0595 -2.6799 -0.5584
 5835TIP3    H241701   1.270   0.985   2.909  0.8421  0.9611 -0.0397
 5836TIP3   OH241702   3.084   4.302   1.194  0.3833 -0.0008  0.1060
 5836TIP3    H141703   3.023   4.229   1.186  1.8412 -1.1042 -1.3703
 5836TIP3    H241704   3.148   4.273   1.259  0.8750  0.0307 -0.3631
 5837TIP3   OH241705   5.655   2.162   1.898  0.0361  0.2318  0.2537
 5837TIP3    H141706   5.616   2.246   1.877 -0.8816 -0.2158  0.1066
 5837TIP3    H241707   5.684   2.171   1.989 -1.2689  0.2900  0.6908
 5838TIP3   OH241708   3.204   1.092   3.425 -0.4431 -0.3139  0.5582
 5838TIP3    H141709   3.214   1.077   3.519 -2.0234  0.2635  0.8489
 5838TIP3    H241710   3.264   1.165   3.406 -0.1859 -0.3713  1.1252
 5839TIP3   OH241711   4.719   4.411   2.800  0.5444  0.0966  0.2063
 5839TIP3    H141712   4.694   4.321   2.820 -0.3047  0.7381  2.2014
 5839TIP3    H241713   4.701   4.420   2.706 -1.3267 -1.1842  0.3899
 5840TIP3   OH241714   3.470   0.269   2.532  0.5573  0.1254  0.2266
 5840TIP3    H141715   3.450   0.176   2.518 -1.3251  0.5823 -0.3790
 5840TIP3    H241716   3.525   0.293   2.458 -2.1581  0.3807 -1.8866
 5841TIP3   OH241717   5.554   5.433   0.530 -0.2040  0.0449  0.0973
 5841TIP3    H141718   5.511   5.407   0.611 -0.2611 -0.2121 -0.0162
 5841TIP3    H241719   5.526   5.368   0.466 -1.5358  1.2058 -0.5513
 5842TIP3   OH241720   6.000   4.933   0.741 -0.0053 -0.2132 -0.5883
 5842TIP3    H141721   6.092   4.907   0.735 -0.1945 -0.7562 -1.3027
 5842TIP3    H241722   6.002   5.025   0.768  0.6904 -1.3631  4.2407
 5843TIP3   OH241723   5.803   6.436   3.590 -0.5875  0.4789 -0.1770
 5843TIP3    H141724   5.762   6.357   3.557 -0.8877  0.3870  0.4069
 5843TIP3    H241725   5.796   6.430   3.686  1.4032  0.1252  0.0053
 5844TIP3   OH241726   0.703   3.264   2.188  0.4252  0.4586  0.1379
 5844TIP3    H141727   0.694   3.227   2.276  0.9921  1.3758  0.5891
 5844TIP3    H241728   0.769   3.208   2.146  1.8693  1.3917  1.0835
 5845TIP3   OH241729   4.192   1.382   2.922 -0.8271 -0.2673  0.3308
 5845TIP3    H141730   4.127   1.368   2.991 -0.1746 -0.6562  0.8813
 5845TIP3    H241731   4.215   1.294   2.892  1.5278 -0.3605  2.1409
 5846TIP3   OH241732   6.575   3.173   0.645  0.0552  0.0737  0.0043
 5846TIP3    H141733   6.487   3.150   0.675 -0.8816  0.8201 -2.0119
 5846TIP3    H241734   6.623   3.193   0.726 -1.1680 -1.7266  1.2632
 5847TIP3   OH241735   5.862   4.748   2.139 -0.1234 -0.0837  0.2399
 5847TIP3    H141736   5.941   4.799   2.121  1.0637 -1.4896  1.1874
 5847TIP3    H241737   5.817   4.742   2.055  1.0085  0.3827 -0.4213
 5848TIP3   OH241738   2.846   4.877   0.892  1.0729  0.3842  0.2317
 5848TIP3    H141739   2.847   4.782   0.901 -2.0781  0.3213  0.9718
 5848TIP3    H241740   2.818   4.892   0.801 -0.2555  0.5250  0.6407
 5849TIP3   OH241741   6.669   0.178   2.776  0.0477 -0.9809 -0.6016
 5849TIP3    H141742   6.635   0.221   2.698 -0.2630 -0.6858 -0.3044
 5849TIP3    H241743   6.605   0.197   2.845  0.6476 -0.6736 -0.1130
 5850TIP3   OH241744   1.860   1.716   2.342 -0.1047  0.8050 -0.2090
 5850TIP3    H141745   1.814   1.799   2.336 -0.2401  0.6822 -0.9097
 5850TIP3    H241746   1.953   1.740   2.342 -0.1442  0.9571 -0.3516
 5851TIP3   OH241747   3.262   1.344   2.319  0.0540 -0.1078  0.1557
 5851TIP3    H141748   3.200   1.308   2.382 -0.9287  1.2569  0.0129
 5851TIP3    H241749   3.219   1.333   2.234  0.5594 -0.2683 -0.0863
 5852TIP3   OH241750   4.059   2.611   3.538 -0.3234 -1.1885 -0.0488
 5852TIP3    H141751   4.126   2.611   3.471  1.4825  1.4551  1.5642
 5852TIP3    H241752   4.108   2.614   3.621 -2.4137 -0.2757  1.2366
 5853TIP3   OH241753   4.840   3.696   2.846 -0.1730 -0.2437 -0.3464
 5853TIP3    H141754   4.748   3.692   2.871 -0.8631  1.6549 -2.3166
 5853TIP3    H241755   4.840   3.692   2.751  1.6551  1.2082 -0.4679
 5854TIP3   OH241756   6.516   0.529   3.658 -0.4086  0.3107 -0.1084
 5854TIP3    H141757   6.560   0.502   3.739 -1.0345  1.2697  0.5887
 5854TIP3    H241758   6.583   0.521   3.590  0.5049  0.6626  0.7221
 5855TIP3   OH241759   4.204   0.884   0.797  0.0025  0.2281  0.2200
 5855TIP3    H141760   4.227   0.974   0.772 -3.5590  1.8379  2.0252
 5855TIP3    H241761   4.250   0.870   0.880  0.3956  0.4320  0.0406
 5856TIP3   OH241762   0.822   4.105   2.095 -0.0176  0.0056 -0.5294
 5856TIP3    H141763   0.907   4.146   2.080 -0.0114  0.4412  0.5836
 5856TIP3    H241764   0.823   4.082   2.188  0.0761 -2.7698 -1.1269
 5857TIP3   OH241765   4.371   3.710   3.081  0.1804  0.3234 -0.6067
 5857TIP3    H141766   4.376   3.792   3.130 -0.2688  1.0330 -1.7063
 5857TIP3    H241767   4.292   3.668   3.114 -0.0372  0.7276 -0.5995
 5858TIP3   OH241768   6.506   1.737   1.038 -0.4117 -0.8416  0.4720
 5858TIP3    H141769   6.467   1.747   1.124 -2.3822 -2.9832 -0.0785
 5858TIP3    H241770   6.571   1.807   1.033 -0.9512 -0.0208  3.2603
 5859TIP3   OH241771   6.024   1.962   2.751  0.0441 -0.1635  0.6039
 5859TIP3    H141772   6.084   1.930   2.684 -0.7678  0.0163 -0.2414
 5859TIP3    H241773   5.966   1.888   2.769 -0.1435 -0.0149  0.6253
 5860TIP3   OH241774   5.019   1.303   2.981  0.2452  0.1318  0.0727
 5860TIP3    H141775   4.929   1.273   2.965 -0.2058  0.4727  1.7181
 5860TIP3    H241776   5.008   1.381   3.036  1.5256  0.8308 -0.6400
 5861TIP3   OH241777   2.185   4.673   1.978 -0.1974  0.5366  0.0769
 5861TIP3    H141778   2.095   4.685   2.007 -0.5423 -1.0723 -0.2385
 5861TIP3    H241779   2.203   4.749   1.924 -1.6603  0.4748 -0.5330
 5862TIP3   OH241780   6.122   3.241   0.819 -0.1557 -0.1509  0.1186
 5862TIP3    H141781   6.094   3.232   0.911  1.9576  0.5247  0.8856
 5862TIP3    H241782   6.087   3.325   0.792 -1.2512 -0.5941  0.1026
 5863TIP3   OH241783   1.648   1.591   4.631  0.2742  0.5451  0.2103
 5863TIP3    H141784   1.649   1.616   4.538 -0.4646  1.4594  0.4372
 5863TIP3    H241785   1.719   1.643   4.670  0.2603  0.5386  0.2439
 5864TIP3   OH241786   5.618   6.555   3.381 -0.1902 -0.3330  0.2317
 5864TIP3    H141787   5.623   6.632   3.438  0.1878  0.5303 -0.9258
 5864TIP3    H241788   5.649   6.483   3.436  1.8093  0.7647  0.6583
 5865TIP3   OH241789   3.494   3.432   3.401  0.1906 -0.2340 -0.1534
 5865TIP3    H141790   3.577   3.475   3.424  0.2038 -0.3374 -0.0072
 5865TIP3    H241791   3.517   3.372   3.330 -0.1320  1.2049 -1.5234
 5866TIP3   OH241792   3.548   2.601   0.856  0.3583 -0.1449  0.1217
 5866TIP3    H141793   3.592   2.575   0.775  2.7445  0.0097  1.2727
 5866TIP3    H241794   3.612   2.657   0.900 -0.4440 -1.0529  2.5639
 5867TIP3   OH241795   0.968   3.270   3.464  0.2653 -0.1133  0.6765
 5867TIP3    H141796   0.984   3.351   3.416  0.5310 -0.8804 -0.5653
 5867TIP3    H241797   1.027   3.274   3.539  0.8176  0.5003  0.2185
 5868TIP3   OH241798   6.717   5.510   2.169 -0.2596 -0.3409  0.7975
 5868TIP3    H141799   6.789   5.492   2.229 -0.1331 -1.0695  0.4374
 5868TIP3    H241800   6.660   5.570   2.217  1.6832  2.0888  0.2865
 5869TIP3   OH241801   6.553   5.219   3.602  0.4365 -0.1301 -0.6832
 5869TIP3    H141802   6.555   5.175   3.687 -0.8564  0.9072 -0.0737
 5869TIP3    H241803   6.602   5.300   3.616 -2.3806  1.6077  0.1040
 5870TIP3   OH241804   3.103   4.941   2.183  0.2453  0.2438  0.0849
 5870TIP3    H141805   3.094   5.010   2.249  1.7436  2.5431 -1.9377
 5870TIP3    H241806   3.016   4.902   2.177 -0.6754  1.9833  1.2920
 5871TIP3   OH241807   4.085   2.729   2.494 -0.7451  0.0117  0.1361
 5871TIP3    H141808   4.162   2.774   2.528 -0.8051 -1.7927  3.0165
 5871TIP3    H241809   4.011   2.777   2.530 -0.9836  0.9333 -1.5083
 5872TIP3   OH241810   1.429   2.370   1.733  0.2057  0.4574  0.3517
 5872TIP3    H141811   1.488   2.321   1.676  0.5146  0.7189  0.4416
 5872TIP3    H241812   1.367   2.411   1.673  0.9973  1.3606  0.1280
 5873TIP3   OH241813   3.524   2.754   3.817  0.0465 -0.4494  0.1879
 5873TIP3    H141814   3.529   2.746   3.722 -2.2788  0.0626 -0.0355
 5873TIP3    H241815   3.430   2.757   3.836  0.4076 -2.0232  2.6439
 5874TIP3   OH241816   1.726   1.616   3.112  0.1692 -0.5565 -0.3202
 5874TIP3    H141817   1.672   1.549   3.068 -0.7307 -0.1227  0.0938
 5874TIP3    H241818   1.664   1.685   3.135  0.5572 -0.8410  1.8012
 5875TIP3   OH241819   4.796   3.002   1.500 -0.3687  0.1678 -0.7169
 5875TIP3    H141820   4.851   2.926   1.521 -0.2213  0.4710  0.0071
 5875TIP3    H241821   4.804   3.011   1.405  0.2048 -0.2693 -0.7166
 5876TIP3   OH241822   0.695   1.843   2.490  0.0513  0.8704 -0.4866
 5876TIP3    H141823   0.688   1.892   2.408 -2.1065  2.5557  0.6065
 5876TIP3    H241824   0.615   1.791   2.493  1.3371 -1.2231 -0.6190
 5877TIP3   OH241825   4.524   1.719   2.267  0.3219 -0.1302 -0.1833
 5877TIP3    H141826   4.571   1.731   2.185  2.1923 -0.0901  0.8311
 5877TIP3    H241827   4.565   1.642   2.307 -0.1533  0.1880  0.9774
 5878TIP3   OH241828   2.315   1.654   4.431 -0.2365 -0.1222  0.6941
 5878TIP3    H141829   2.265   1.621   4.356  0.4099  1.0424 -0.3033
 5878TIP3    H241830   2.403   1.621   4.417  0.0730  0.7487  0.4754
 5879TIP3   OH241831   5.502   3.581   0.490  0.0305 -0.0841 -0.2893
 5879TIP3    H141832   5.445   3.522   0.441  1.1099  0.3488 -2.1785
 5879TIP3    H241833   5.500   3.548   0.579 -1.9554 -0.9836 -0.6112
 5880TIP3   OH241834   4.306   5.775   1.725 -0.2833 -0.0068 -0.2512
 5880TIP3    H141835   4.291   5.789   1.632 -1.4036  2.1323  0.2016
 5880TIP3    H241836   4.226   5.732   1.756 -0.1241 -0.2556 -0.1844
 5881TIP3   OH241837   6.158   2.063   3.993 -0.0271  0.2121  0.2539
 5881TIP3    H141838   6.084   2.064   4.054 -0.1086 -1.8930  0.2546
 5881TIP3    H241839   6.118   2.056   3.907  0.1528 -0.9837  0.2575
 5882TIP3   OH241840   3.754   6.611   1.200 -0.2193  0.3756  0.3737
 5882TIP3    H141841   3.669   6.591   1.239  0.3812 -1.0357  1.0327
 5882TIP3    H241842   3.777   6.532   1.151  0.1400  1.2320 -0.8739
 5883TIP3   OH241843   4.074   5.966   3.904  0.2928  0.2678 -0.1260
 5883TIP3    H141844   4.016   6.031   3.945  1.6719  1.2140  0.4003
 5883TIP3    H241845   4.162   6.000   3.918  1.0710 -1.6603  0.0502
 5884TIP3   OH241846   2.286   4.843   1.731 -0.3965  0.0846 -0.2728
 5884TIP3    H141847   2.223   4.843   1.659 -0.8712 -1.8584  0.0942
 5884TIP3    H241848   2.356   4.785   1.702  0.1537  0.4889  0.2237
 5885TIP3   OH241849   6.758   0.712   0.589  0.1514  0.0825 -0.2404
 5885TIP3    H141850   6.807   0.770   0.647 -0.9547  0.1953  0.6213
 5885TIP3    H241851   6.800   0.627   0.599 -0.5082 -0.0879  1.3795
 5886TIP3   OH241852   2.894   6.624   1.573  0.3572  0.0660  0.1752
 5886TIP3    H141853   2.863   6.567   1.642 -1.8332  1.9718  0.8942
 5886TIP3    H241854   2.871   6.579   1.492 -0.9052 -0.3193  0.7266
 5887TIP3   OH241855   3.467   1.227   1.167 -0.7405  0.2655  0.2187
 5887TIP3    H141856   3.381   1.250   1.203 -1.1888 -1.4165  0.2928
 5887TIP3    H241857   3.501   1.161   1.226  0.0607  0.0013 -0.5215
 5888TIP3   OH241858   3.097   1.747   1.616  0.0434 -0.8197  0.4079
 5888TIP3    H141859   3.104   1.832   1.659  1.2915 -0.7182  0.0469
 5888TIP3    H241860   3.180   1.703   1.636  0.3228 -1.0900 -1.1868
 5889TIP3   OH241861   3.053   6.643   1.901 -0.4231 -0.1688 -0.2265
 5889TIP3    H141862   3.090   6.726   1.871 -2.1308 -0.3430 -3.1441
 5889TIP3    H241863   2.960   6.662   1.915 -0.8800 -1.6155 -1.1461
 5890TIP3   OH241864   2.848   6.319   2.349  0.0235  0.2099  0.2394
 5890TIP3    H141865   2.854   6.237   2.299 -1.7442 -0.0217  0.3474
 5890TIP3    H241866   2.764   6.314   2.393  1.6804  0.1676  3.7491
 5891TIP3   OH241867   2.605   3.089   2.506  0.2712 -0.6477 -0.0159
 5891TIP3    H141868   2.653   3.104   2.588 -0.6254 -0.1368  0.4221
 5891TIP3    H241869   2.673   3.091   2.438  0.7164  1.5274  0.4238
 5892TIP3   OH241870   5.337   2.730   3.231  0.1655  0.1130  0.4082
 5892TIP3    H141871   5.311   2.735   3.138 -1.9580 -1.0358  0.8687
 5892TIP3    H241872   5.414   2.674   3.231 -0.8136 -1.2954 -0.5387
 5893TIP3   OH241873   0.683   6.758   2.128  0.5301  0.0954  0.0207
 5893TIP3    H141874   0.711   6.800   2.047 -2.5327 -0.3048 -1.3982
 5893TIP3    H241875   0.634   6.827   2.175  0.3937 -0.2843  0.4400
 5894TIP3   OH241876   5.358   1.617   2.590 -0.0099  0.5127 -0.2740
 5894TIP3    H141877   5.310   1.640   2.510 -2.1002  2.0136  1.3082
 5894TIP3    H241878   5.317   1.535   2.619 -2.1794  2.0325  1.3322
 5895TIP3   OH241879   1.964   4.163   1.638  0.1405  0.3228  0.0707
 5895TIP3    H141880   1.918   4.194   1.560 -0.7840 -0.9192  0.1011
 5895TIP3    H241881   1.971   4.068   1.627  0.9438  0.2525  1.0038
 5896TIP3   OH241882   5.838   1.092   2.294  0.2897 -0.3480 -0.5887
 5896TIP3    H141883   5.806   1.122   2.379  0.4736  1.0603 -0.9890
 5896TIP3    H241884   5.781   1.019   2.271  0.3066 -0.8272  0.7847
 5897TIP3   OH241885   0.431   4.352   1.329  0.8378 -0.0130  1.1636
 5897TIP3    H141886   0.351   4.331   1.281  1.4192 -0.4134  0.3388
 5897TIP3    H241887   0.415   4.438   1.367  0.7869  0.8661 -0.7394
 5898TIP3   OH241888   4.258   3.995   0.843  0.4531  0.4310 -0.4087
 5898TIP3    H141889   4.186   4.029   0.790  0.4904 -0.4616 -1.0413
 5898TIP3    H241890   4.275   4.065   0.907 -1.4832  0.3281  0.2726
 5899TIP3   OH241891   3.332   1.186   0.823  0.4365 -0.0565  0.0240
 5899TIP3    H141892   3.315   1.276   0.852  2.7214  1.1275 -1.9581
 5899TIP3    H241893   3.420   1.167   0.854  0.1794 -1.4277 -0.0532
 5900TIP3   OH241894   4.113   1.189   1.778  0.3808 -0.4961  0.6374
 5900TIP3    H141895   4.183   1.182   1.842  1.0013 -0.2514  0.0001
 5900TIP3    H241896   4.147   1.145   1.700 -0.2696 -0.5844  0.3943
 5901TIP3   OH241897   4.916   3.862   1.292  0.3308  0.6477 -0.3180
 5901TIP3    H141898   4.910   3.769   1.272  2.2808  0.1072  1.2295
 5901TIP3    H241899   4.937   3.865   1.386 -2.2640  2.7569  0.3270
 5902TIP3   OH241900   3.550   3.852   0.795  0.3839 -0.5843  0.1572
 5902TIP3    H141901   3.464   3.810   0.792 -0.3002  0.8309 -1.0155
 5902TIP3    H241902   3.608   3.791   0.749 -0.1202 -1.2494  0.3883
 5903TIP3   OH241903   1.575   0.533   2.220 -0.0899 -0.3395  0.1207
 5903TIP3    H141904   1.510   0.559   2.285 -0.2474 -0.3268 -0.0415
 5903TIP3    H241905   1.649   0.501   2.271 -0.7163 -1.5473  0.2893
 5904TIP3   OH241906   0.764   4.804   1.523  0.5277  0.1845  0.1622
 5904TIP3    H141907   0.724   4.723   1.556  0.8476 -0.0566 -0.0288
 5904TIP3    H241908   0.829   4.826   1.590 -0.2614  0.8570  0.7264
 5905TIP3   OH241909   2.894   0.928   0.559  0.3931 -0.0743 -0.7543
 5905TIP3    H141910   2.973   0.955   0.605 -0.0366  1.0812 -0.6591
 5905TIP3    H241911   2.908   0.835   0.539  1.6156  0.0305 -0.4472
 5906TIP3   OH241912   4.192   2.628   3.278  0.2051 -0.9839  0.2474
 5906TIP3    H141913   4.270   2.573   3.276  1.1139  0.2653  0.1944
 5906TIP3    H241914   4.172   2.646   3.186  2.3939  2.0789  0.2155
 5907TIP3   OH241915   1.149   4.435   3.055  0.4133 -0.6423  0.1303
 5907TIP3    H141916   1.210   4.367   3.025  0.4084 -0.4672 -0.2865
 5907TIP3    H241917   1.172   4.512   3.004  1.6743  0.2413  1.9354
 5908TIP3   OH241918   2.316   0.149   1.216  0.1561 -0.2090 -0.3722
 5908TIP3    H141919   2.390   0.205   1.238  0.2243 -0.5138  0.1986
 5908TIP3    H241920   2.256   0.205   1.167  0.4730  0.2061 -0.2829
 5909TIP3   OH241921   2.436   4.669   1.184  0.0656 -0.1595  0.3755
 5909TIP3    H141922   2.473   4.594   1.231  2.0979  0.7403  0.2842
 5909TIP3    H241923   2.426   4.737   1.251  2.3616  0.9072 -0.2680
 5910TIP3   OH241924   6.056   0.078   1.527  0.4742 -0.0524  0.2635
 5910TIP3    H141925   6.020  -0.006   1.553  0.9466 -0.1448  0.6424
 5910TIP3    H241926   6.021   0.140   1.592  0.3511 -0.0001  0.1493
 5911TIP3   OH241927   6.155   0.397   0.726  0.0812 -0.0990  0.2206
 5911TIP3    H141928   6.164   0.486   0.691  1.2168 -0.3453 -0.1417
 5911TIP3    H241929   6.242   0.376   0.760 -0.4958 -0.6138  1.4359
 5912TIP3   OH241930   6.620   6.206   1.508 -0.2277 -0.7517 -0.4357
 5912TIP3    H141931   6.588   6.238   1.592 -0.8166  1.1557 -1.3204
 5912TIP3    H241932   6.546   6.157   1.471 -0.2673 -0.8570 -0.2172
 5913TIP3   OH241933   2.457   4.074   3.806  0.2480 -0.0527  0.2233
 5913TIP3    H141934   2.431   4.001   3.861 -1.4664  0.2384 -0.1148
 5913TIP3    H241935   2.504   4.133   3.865  0.6131 -0.8736  0.7706
 5914TIP3   OH241936   6.232   2.094   0.893  0.0241  1.0300  0.4869
 5914TIP3    H141937   6.218   2.184   0.922 -0.7335  0.6456  1.3811
 5914TIP3    H241938   6.179   2.041   0.954 -0.2333  0.0568 -0.5584
 5915TIP3   OH241939   1.681   5.697   3.422 -0.2141  0.0604 -0.2551
 5915TIP3    H141940   1.610   5.637   3.398 -0.9984  0.9564 -0.2595
 5915TIP3    H241941   1.756   5.641   3.438 -1.8121 -1.3420  3.3772
 5916TIP3   OH241942   6.640   6.403   1.263 -0.1636 -0.2129 -0.2233
 5916TIP3    H141943   6.694   6.325   1.253  0.3249  0.0780  0.1498
 5916TIP3    H241944   6.647   6.426   1.355  0.8440  1.0913 -0.5946
 5917TIP3   OH241945   6.777   0.678   2.465  0.3962 -0.5653 -0.0028
 5917TIP3    H141946   6.728   0.605   2.428 -0.6774  0.0474  0.1732
 5917TIP3    H241947   6.779   0.744   2.396  0.2614 -0.2626  0.2799
 5918TIP3   OH241948   2.521   0.812   2.884  0.0915  0.9631 -0.2472
 5918TIP3    H141949   2.606   0.857   2.881 -0.3160  1.7198 -0.8156
 5918TIP3    H241950   2.456   0.883   2.880 -0.5724  0.4114  0.5206
 5919TIP3   OH241951   3.192   0.687   4.173  0.6965 -0.1917 -0.1881
 5919TIP3    H141952   3.104   0.711   4.201  0.6794 -0.6550  0.1635
 5919TIP3    H241953   3.181   0.659   4.082  0.3960 -0.7309  0.0128
 5920TIP3   OH241954   6.826   2.880   3.229  0.0557 -0.0744 -0.3734
 5920TIP3    H141955   6.873   2.913   3.152  0.1945 -0.9626 -0.6846
 5920TIP3    H241956   6.791   2.958   3.272 -1.0305  0.3654 -1.9851
 5921TIP3   OH241957   2.677   1.039   0.346 -0.4383  0.4328 -0.1052
 5921TIP3    H141958   2.639   0.954   0.323  0.9454 -0.5377  1.0289
 5921TIP3    H241959   2.766   1.018   0.376  0.5677  2.4642 -1.4204
 5922TIP3   OH241960   4.492   1.928   1.582 -0.6073 -0.8671  0.2540
 5922TIP3    H141961   4.423   1.891   1.638  0.7867 -2.6204  0.9224
 5922TIP3    H241962   4.464   1.908   1.493 -0.8764 -1.7974  0.5334
 5923TIP3   OH241963   4.058   6.638   1.246 -0.2413 -0.0488  0.6786
 5923TIP3    H141964   4.104   6.630   1.163 -1.1803 -2.5762  0.2888
 5923TIP3    H241965   3.973   6.597   1.230 -0.9036  0.4805  2.5545
 5924TIP3   OH241966   3.981   5.206   1.757 -0.2406  0.3582  0.2423
 5924TIP3    H141967   3.923   5.238   1.826  0.7236  1.3011  0.6498
 5924TIP3    H241968   3.984   5.277   1.693 -0.4445 -0.1580 -0.3424
 5925TIP3   OH241969   5.390   5.827   2.500 -0.4507 -0.3322 -0.3228
 5925TIP3    H141970   5.301   5.822   2.534 -0.6112 -1.6788 -0.8678
 5925TIP3    H241971   5.381   5.864   2.412 -0.3252  0.6861  0.0847
 5926TIP3   OH241972   6.274   1.530   2.528  0.4235  0.4181 -0.3489
 5926TIP3    H141973   6.257   1.556   2.619 -1.4098 -0.1752 -0.4770
 5926TIP3    H241974   6.363   1.496   2.530 -0.1948 -1.3509  1.6823
 5927TIP3   OH241975   0.525   3.653   1.267 -0.1819  0.1028  0.1678
 5927TIP3    H141976   0.533   3.744   1.296 -0.0775  0.1620 -0.0494
 5927TIP3    H241977   0.436   3.628   1.292 -0.0502  0.1119  0.6575
 5928TIP3   OH241978   2.422   2.774   3.608 -0.2245  0.0616 -0.0319
 5928TIP3    H141979   2.391   2.789   3.698 -0.1407  0.6562 -0.1002
 5928TIP3    H241980   2.348   2.798   3.553 -0.1247  0.1140 -0.1415
 5929TIP3   OH241981   6.761   6.338   0.893  0.2546 -0.1123 -0.2842
 5929TIP3    H141982   6.834   6.315   0.950 -0.4763 -1.4582  0.1554
 5929TIP3    H241983   6.727   6.421   0.928 -0.4370 -1.1140  1.5304
 5930TIP3   OH241984   6.780   6.793   3.479  0.6472 -0.7474  0.0957
 5930TIP3    H141985   6.742   6.804   3.566  0.2722  0.9357 -0.2503
 5930TIP3    H241986   6.708   6.762   3.425  0.1185  0.9423 -0.2156
 5931TIP3   OH241987   4.107   3.228   1.531 -0.3870 -0.2223  0.1636
 5931TIP3    H141988   4.190   3.246   1.488  0.0713 -1.7273  0.3564
 5931TIP3    H241989   4.108   3.285   1.608  0.5074 -0.2814  0.2106
 5932TIP3   OH241990   0.539   5.548   0.459 -0.2209 -0.4719  0.2400
 5932TIP3    H141991   0.614   5.606   0.448 -0.4708 -0.3828 -1.1628
 5932TIP3    H241992   0.555   5.504   0.543  0.5016  0.8274  0.8175
 5933TIP3   OH241993   0.155   0.194   2.305 -0.1439 -0.1648 -0.3322
 5933TIP3    H141994   0.211   0.141   2.249 -0.3510  0.0594 -0.7495
 5933TIP3    H241995   0.111   0.131   2.362 -1.0258 -0.5223 -1.3853
 5934TIP3   OH241996   2.176   0.894   1.173 -0.0670 -0.2278  0.2212
 5934TIP3    H141997   2.197   0.885   1.266  0.2361  0.5603  0.2328
 5934TIP3    H241998   2.247   0.848   1.128 -0.5064 -1.0985  0.3805
 5935TIP3   OH241999   3.566   4.535   3.192 -0.2914 -0.1169  0.1181
 5935TIP3    H142000   3.587   4.464   3.131 -2.8657  1.0361 -2.3593
 5935TIP3    H242001   3.484   4.507   3.232 -1.3186  1.3571 -0.8688
 5936TIP3   OH242002   6.553   3.312   0.936 -0.1477  0.1283  0.5002
 5936TIP3    H142003   6.542   3.404   0.913 -0.7071 -0.4237 -1.7228
 5936TIP3    H242004   6.466   3.282   0.962 -0.3302 -0.1181 -0.3402
 5937TIP3   OH242005   5.164   0.753   2.998  0.1828 -0.3072  0.2790
 5937TIP3    H142006   5.168   0.665   2.959 -0.0746  0.0031 -0.4761
 5937TIP3    H242007   5.255   0.783   2.996  0.3238 -0.6835  0.8483
 5938TIP3   OH242008   1.114   3.363   1.931 -0.1436  0.4257 -0.5322
 5938TIP3    H142009   1.196   3.328   1.966 -0.9326 -1.3488 -0.3419
 5938TIP3    H242010   1.071   3.287   1.892 -1.0372  1.6105 -1.9495
 5939TIP3   OH242011   4.381   6.450   2.791  0.1896  0.1538 -0.1001
 5939TIP3    H142012   4.374   6.535   2.834  1.4714  0.6017 -0.7065
 5939TIP3    H242013   4.308   6.399   2.825 -0.4357  1.4033  0.4926
 5940TIP3   OH242014   4.128   0.037   1.647 -0.1114 -0.0440 -0.5809
 5940TIP3    H142015   4.185   0.113   1.660 -1.3308  0.6524  1.3093
 5940TIP3    H242016   4.039   0.073   1.653 -0.7241 -1.5233 -0.2614
 5941TIP3   OH242017   6.169   3.030   2.280  0.3642 -0.1964 -0.0186
 5941TIP3    H142018   6.176   3.125   2.271  0.7355 -0.0313  1.7504
 5941TIP3    H242019   6.080   3.016   2.312  0.3971 -0.4234 -0.0277
 5942TIP3   OH242020   5.174   3.827   0.658 -0.3641 -0.1406 -0.5037
 5942TIP3    H142021   5.156   3.763   0.590 -0.0085 -1.1294  0.3178
 5942TIP3    H242022   5.091   3.873   0.670 -0.6656 -0.5551 -0.9877
 5943TIP3   OH242023   0.008   0.975   2.428 -0.7649  0.0621 -0.1238
 5943TIP3    H142024   0.057   0.935   2.500 -1.9685  1.2500  1.4137
 5943TIP3    H242025   0.042   0.931   2.350  2.8051  0.8493  0.7790
 5944TIP3   OH242026   4.756   1.244   2.516  0.3543 -0.0622  0.5219
 5944TIP3    H142027   4.782   1.172   2.459 -0.8096  0.1616 -0.3110
 5944TIP3    H242028   4.760   1.207   2.605  2.0556 -0.4444  0.3230
 5945TIP3   OH242029   2.531   3.941   0.644 -0.1162  0.0562  0.0057
 5945TIP3    H142030   2.530   3.869   0.706 -0.7055  0.0722  0.0233
 5945TIP3    H242031   2.438   3.958   0.626 -0.0092  1.1605  0.4172
 5946TIP3   OH242032   0.748   5.675   2.571 -0.1276 -0.3303  0.7000
 5946TIP3    H142033   0.831   5.714   2.545 -0.7244  0.2358 -0.4180
 5946TIP3    H242034   0.693   5.750   2.596 -0.9401 -0.5237 -0.4507
 5947TIP3   OH242035   5.573   5.008   0.750  0.3305 -0.1571  0.3308
 5947TIP3    H142036   5.518   5.011   0.672  0.1468 -0.3283  0.4531
 5947TIP3    H242037   5.639   5.075   0.735  0.7860 -0.7404 -0.3344
 5948TIP3   OH242038   0.039   1.590   1.463 -0.6068  0.2851  0.2037
 5948TIP3    H142039   0.078   1.579   1.377  0.3096  0.2242  0.6122
 5948TIP3    H242040  -0.055   1.600   1.446 -0.6858 -1.5171 -0.6690
 5949TIP3   OH242041   1.671   4.260   0.841 -0.1691  0.0301 -0.3884
 5949TIP3    H142042   1.603   4.199   0.811 -0.0831 -0.0740 -0.3740
 5949TIP3    H242043   1.679   4.325   0.771 -0.2666  0.0280 -0.4009
 5950TIP3   OH242044   1.462   3.107   2.448  0.0921  0.9441 -0.2591
 5950TIP3    H142045   1.535   3.059   2.485  0.8591  2.0511 -0.2726
 5950TIP3    H242046   1.457   3.078   2.357 -2.0890 -2.1220  0.6917
 5951TIP3   OH242047   3.028   6.299   4.157 -0.0817  0.1900  0.2592
 5951TIP3    H142048   3.003   6.357   4.229 -0.8005 -1.6860  1.6076
 5951TIP3    H242049   3.123   6.299   4.157 -0.0768  0.8848  0.6265
 5952TIP3   OH242050   0.992   2.806   2.402  0.0401  0.2035 -0.1932
 5952TIP3    H142051   0.909   2.777   2.363 -0.1426  0.7686 -0.2335
 5952TIP3    H242052   1.053   2.735   2.382 -0.1013  0.3772 -1.3150
 5953TIP3   OH242053   3.570   5.276   3.160 -0.1301  0.2740  0.1099
 5953TIP3    H142054   3.628   5.202   3.177 -0.9737 -0.2193  0.9862
 5953TIP3    H242055   3.506   5.242   3.098 -0.4266  0.3068  0.3941
 5954TIP3   OH242056   1.633   6.525   0.829 -0.0867 -0.0295  0.1450
 5954TIP3    H142057   1.724   6.518   0.798  0.1299 -0.2868  0.8149
 5954TIP3    H242058   1.583   6.469   0.769 -0.0903  1.4092 -1.2723
 5955TIP3   OH242059   4.895   1.614   1.810 -0.4701 -0.0109 -0.3187
 5955TIP3    H142060   4.819   1.560   1.788  1.5698 -2.7929 -1.0139
 5955TIP3    H242061   4.934   1.636   1.725  1.2359 -1.3418  0.0774
 5956TIP3   OH242062   0.459   6.553  11.512 -0.1332  0.3334 -0.3560
 5956TIP3    H142063   0.513   6.565  11.590  0.6231 -0.7761 -0.7019
 5956TIP3    H242064   0.487   6.470  11.474 -0.4130  0.8930 -1.8827
 5957TIP3   OH242065   4.881   4.945   3.379 -0.0235 -0.0671 -0.0667
 5957TIP3    H142066   4.804   4.978   3.424 -0.6207 -2.9120  1.2134
 5957TIP3    H242067   4.954   4.996   3.416 -1.0706  1.4204  0.0171
 5958TIP3   OH242068   2.480   3.205   1.858 -0.6980 -0.5219 -0.0217
 5958TIP3    H142069   2.435   3.156   1.926 -0.3495 -0.0823  0.5325
 5958TIP3    H242070   2.465   3.297   1.880 -2.5441 -0.3187 -1.8189
 5959TIP3   OH242071   4.544   3.823   1.317 -0.8186 -0.4241 -0.1440
 5959TIP3    H142072   4.587   3.863   1.393  2.3142 -0.5540 -1.6623
 5959TIP3    H242073   4.597   3.745   1.298 -0.8107  0.1784 -3.0446
 5960TIP3   OH242074   2.419   4.984   4.037 -0.0168  0.3352  0.2873
 5960TIP3    H142075   2.367   4.904   4.047 -1.2017  1.3150  2.6952
 5960TIP3    H242076   2.459   4.997   4.122  1.1266  1.6800 -0.4293
 5961TIP3   OH242077   2.649   0.738   0.395  0.2217  0.3224  0.3008
 5961TIP3    H142078   2.611   0.658   0.360  2.4684 -1.0423  0.8028
 5961TIP3    H242079   2.610   0.747   0.482  0.1817 -0.3974  0.3631
 5962TIP3   OH242080   5.058   2.291   1.079  0.1016 -0.3951  0.2584
 5962TIP3    H142081   5.133   2.292   1.139  2.4729  1.7010 -2.3996
 5962TIP3    H242082   5.076   2.218   1.020 -0.3387 -0.3450  0.0605
 5963TIP3   OH242083   2.139   5.274   2.314 -0.2993 -0.8419 -0.1016
 5963TIP3    H142084   2.222   5.311   2.342 -1.1826 -1.4157  3.8131
 5963TIP3    H242085   2.073   5.339   2.340 -1.2632 -1.3814 -1.0775
 5964TIP3   OH242086   6.784   3.406   1.445 -0.0862 -0.2053  1.2033
 5964TIP3    H142087   6.872   3.378   1.472  0.0443 -0.2881  0.6961
 5964TIP3    H242088   6.730   3.328   1.455  0.1778 -0.5227  0.2428
 5965TIP3   OH242089   2.005   6.639   1.940 -0.2694 -0.1967  0.4987
 5965TIP3    H142090   1.940   6.704   1.967  1.1145  0.7743  1.6465
 5965TIP3    H242091   2.007   6.576   2.013 -1.3575 -1.3915 -0.4554
 5966TIP3   OH242092   3.057   2.806   4.265  0.4355 -0.6158 -0.1013
 5966TIP3    H142093   3.043   2.715   4.237  1.1125 -0.6388 -0.3724
 5966TIP3    H242094   3.054   2.857   4.184  1.5091 -0.5730 -0.1199
 5967TIP3   OH242095   3.378   5.901   0.929 -0.0250 -0.1708  0.3516
 5967TIP3    H142096   3.348   5.816   0.959  1.1114 -0.5332  0.5148
 5967TIP3    H242097   3.458   5.918   0.979 -0.1696  0.9404  0.2413
 5968TIP3   OH242098   5.885   5.070   0.469 -0.1229  0.1164  0.1461
 5968TIP3    H142099   5.961   5.114   0.505  0.9022 -3.3653  2.8395
 5968TIP3    H242100   5.918   4.986   0.436 -2.6797 -1.4947  1.3057
 5969TIP3   OH242101   4.390   1.387   2.381  0.1337  0.0303 -0.1049
 5969TIP3    H142102   4.351   1.354   2.300 -0.4345  0.7440 -0.1344
 5969TIP3    H242103   4.476   1.419   2.355  0.3689 -0.6826 -0.2235
 5970TIP3   OH242104   1.939   1.202   2.714 -0.0196  0.5609  0.2170
 5970TIP3    H142105   1.898   1.228   2.632  0.9420  0.4335 -0.3194
 5970TIP3    H242106   2.001   1.272   2.733 -1.6186  1.6363  1.9215
 5971TIP3   OH242107   6.823   0.731   0.990 -0.1793  0.0721 -0.0226
 5971TIP3    H142108   6.737   0.757   0.957 -1.5436  1.3741  3.9521
 5971TIP3    H242109   6.807   0.652   1.041  0.7131  0.8738  1.5951
 5972TIP3   OH242110   3.160   0.413   2.343  0.2955  0.2617  0.2442
 5972TIP3    H142111   3.198   0.498   2.320  1.1523 -0.3562 -0.6663
 5972TIP3    H242112   3.222   0.349   2.311 -1.3833 -0.7822 -1.1264
 5973TIP3   OH242113   5.704   3.770   0.423  0.0750 -0.2905 -0.5177
 5973TIP3    H142114   5.727   3.766   0.330 -0.5212 -0.0607 -0.6799
 5973TIP3    H242115   5.652   3.691   0.439 -0.0008 -0.2235 -0.4308
 5974TIP3   OH242116   2.986   5.224   2.884 -0.1282 -0.0499  0.3507
 5974TIP3    H142117   2.927   5.157   2.849 -1.0795  1.4251 -0.9580
 5974TIP3    H242118   3.073   5.195   2.856 -0.6072 -0.3282 -0.9362
 5975TIP3   OH242119   2.863   6.646   2.823 -0.0877 -0.0919 -0.4174
 5975TIP3    H142120   2.889   6.566   2.867  0.2303  0.6612  0.8177
 5975TIP3    H242121   2.835   6.704   2.893 -2.3830  0.1533 -1.4528
 5976TIP3   OH242122   4.895   1.460   0.646  0.4732 -0.2196  0.9083
 5976TIP3    H142123   4.826   1.397   0.623  1.3680 -1.0909  0.5076
 5976TIP3    H242124   4.849   1.541   0.665 -0.5207 -0.0956 -1.6726
 5977TIP3   OH242125   2.598   1.836   1.359 -0.3721  0.3815  0.8085
 5977TIP3    H142126   2.650   1.915   1.344  0.6171 -0.0838  1.7006
 5977TIP3    H242127   2.509   1.862   1.336 -0.0740  1.7664  1.1118
 5978TIP3   OH242128   1.720   2.963   1.639  0.4150  0.0711 -0.3200
 5978TIP3    H142129   1.673   2.994   1.716  1.2334  0.9780 -0.1627
 5978TIP3    H242130   1.659   2.903   1.596  0.0788 -0.7257  1.2098
 5979TIP3   OH242131   1.773   6.233   1.638  0.3470 -0.2844 -0.4575
 5979TIP3    H142132   1.864   6.261   1.645  1.1215 -3.0016  1.8988
 5979TIP3    H242133   1.734   6.258   1.722  0.2146 -2.9974  0.3901
 5980TIP3   OH242134   2.681   4.231   0.757  0.1844  0.0964  0.3267
 5980TIP3    H142135   2.724   4.314   0.740  0.9165 -0.0751  1.2554
 5980TIP3    H242136   2.592   4.242   0.723  0.8491  0.5579 -1.3592
 5981TIP3   OH242137   6.588   0.401   2.628 -0.2738 -0.4192  0.1809
 5981TIP3    H142138   6.617   0.481   2.671 -2.0766 -1.3130  3.3425
 5981TIP3    H242139   6.527   0.432   2.560  1.5931  0.9601 -0.9760
 5982TIP3   OH242140   1.471   3.676   0.697 -0.4579  0.2034  0.3537
 5982TIP3    H142141   1.562   3.663   0.669 -0.4561 -0.6058  0.7154
 5982TIP3    H242142   1.457   3.610   0.765 -0.8163  1.3803  1.4713
 5983TIP3   OH242143   5.857   0.737   1.433  0.2519 -0.0169 -0.7378
 5983TIP3    H142144   5.911   0.700   1.363  0.4621 -0.6266 -0.2628
 5983TIP3    H242145   5.789   0.672   1.448 -0.0959  0.3450 -0.7195
 5984TIP3   OH242146   3.999   6.259   2.787 -0.0666 -0.5566 -0.3578
 5984TIP3    H142147   3.998   6.319   2.713 -0.1345 -0.8895 -0.6264
 5984TIP3    H242148   3.907   6.249   2.811  0.0230  0.5157  0.5647
 5985TIP3   OH242149   5.841   3.477   3.234 -0.2303  0.2161  0.3450
 5985TIP3    H142150   5.914   3.536   3.213 -0.1923 -0.4651 -1.6521
 5985TIP3    H242151   5.791   3.524   3.301  0.3066  2.1043 -0.4984
 5986TIP3   OH242152   6.365   5.841   3.121  0.0003 -0.1414 -0.4373
 5986TIP3    H142153   6.333   5.818   3.208 -0.2225 -0.6584 -0.6510
 5986TIP3    H242154   6.305   5.795   3.061 -1.0521  1.7107 -0.9020
 5987TIP3   OH242155   0.627   1.557   2.592 -0.4947 -0.6262 -0.3568
 5987TIP3    H142156   0.591   1.524   2.674  1.7333  0.5259  1.2033
 5987TIP3    H242157   0.563   1.621   2.561 -0.6361  0.1473  1.4023
 5988TIP3   OH242158   2.182   4.876   2.292  0.0311 -0.2990  0.3931
 5988TIP3    H142159   2.259   4.901   2.342  1.7475 -1.9800 -1.2473
 5988TIP3    H242160   2.182   4.936   2.217 -0.4524 -0.0868  0.5623
 5989TIP3   OH242161   2.121   3.275   0.641 -0.3519 -0.5531  0.3065
 5989TIP3    H142162   2.191   3.340   0.647  0.4332 -1.4546  1.4506
 5989TIP3    H242163   2.116   3.252   0.548 -0.0095  0.4542  0.0300
 5990TIP3   OH242164   5.658   5.956   1.430 -0.2798 -0.2703 -0.0283
 5990TIP3    H142165   5.633   6.047   1.414 -2.0766 -0.7620 -0.2294
 5990TIP3    H242166   5.584   5.905   1.398  0.4676 -1.7892  0.5747
 5991TIP3   OH242167   5.226   6.010   3.233 -0.0696  0.2860  0.1299
 5991TIP3    H142168   5.190   6.098   3.246 -3.3062 -0.7307 -1.0244
 5991TIP3    H242169   5.277   6.016   3.151 -1.0304  0.9125 -0.4358
 5992TIP3   OH242170   3.957   6.068   2.536  0.0715  0.2034 -0.3686
 5992TIP3    H142171   3.897   6.136   2.565  0.5485 -0.4627  2.4577
 5992TIP3    H242172   4.017   6.056   2.609  1.5853 -1.4904 -1.7926
 5993TIP3   OH242173   3.642   1.149   1.904 -0.3299 -0.0040 -0.4739
 5993TIP3    H142174   3.579   1.136   1.833  0.0661  1.8904 -1.2431
 5993TIP3    H242175   3.715   1.197   1.864  1.5160 -1.8749  0.4618
 5994TIP3   OH242176   6.750   0.646   3.191  0.2772  0.3401 -0.0220
 5994TIP3    H142177   6.806   0.587   3.241 -1.1562 -0.0453  1.2013
 5994TIP3    H242178   6.694   0.587   3.140 -0.2263  0.6620  0.1488
 5995TIP3   OH242179   4.608   4.159   2.620  0.2372  0.3353 -0.0330
 5995TIP3    H142180   4.561   4.095   2.566  1.0106 -1.3917  1.2342
 5995TIP3    H242181   4.649   4.106   2.689  0.7210  2.2531  1.2199
 5996TIP3   OH242182   3.505   4.132   1.047 -0.1020 -0.0573 -1.1666
 5996TIP3    H142183   3.480   4.205   1.105  0.3229 -0.4488 -0.4825
 5996TIP3    H242184   3.421   4.093   1.022 -0.2725 -0.1503 -0.4672
 5997TIP3   OH242185   4.791   0.151   3.137 -1.2181  0.7044 -0.0466
 5997TIP3    H142186   4.858   0.123   3.200 -0.4260  0.5178 -0.9395
 5997TIP3    H242187   4.799   0.246   3.135 -0.2994  0.6249 -0.8533
 5998TIP3   OH242188   6.595   0.905   3.331  0.4995 -0.0318  0.2995
 5998TIP3    H142189   6.530   0.975   3.323  0.0444 -0.4627  0.1863
 5998TIP3    H242190   6.548   0.833   3.373  0.3793 -0.9969 -1.3860
 5999TIP3   OH242191   3.793   3.983   2.138 -0.2094 -0.0819 -0.2460
 5999TIP3    H142192   3.819   4.075   2.142 -0.4009 -0.0610  0.6090
 5999TIP3    H242193   3.776   3.959   2.229 -1.1188 -0.6860 -0.5656
 6000TIP3   OH242194   4.514   0.330   1.505 -0.1902 -0.5091  0.3816
 6000TIP3    H142195   4.528   0.327   1.410  1.4320 -0.7811  0.6035
 6000TIP3    H242196   4.583   0.274   1.541 -0.2632  0.2538  1.7655
 6001TIP3   OH242197   2.455   5.756   2.662 -0.3076  0.0935 -0.1880
 6001TIP3    H142198   2.460   5.662   2.678 -2.0443  0.1594  1.0170
 6001TIP3    H242199   2.426   5.763   2.571  0.3745 -0.5035 -0.4648
 6002TIP3   OH242200   0.788   2.301   3.732  0.3311 -0.2075 -0.1098
 6002TIP3    H142201   0.856   2.264   3.788  0.1572 -0.0557  0.2056
 6002TIP3    H242202   0.719   2.329   3.793 -0.0471 -0.4284 -0.4303
 6003TIP3   OH242203   4.190   6.327   2.976 -0.3283  0.0210 -0.1213
 6003TIP3    H142204   4.137   6.275   2.916  0.7727  0.7566 -1.8097
 6003TIP3    H242205   4.230   6.262   3.034  0.2293 -0.9615 -1.5371
 6004TIP3   OH242206   2.160   3.056   1.105 -0.0131 -0.6069 -0.0369
 6004TIP3    H142207   2.136   2.964   1.115  2.4468 -1.4141 -0.8790
 6004TIP3    H242208   2.219   3.074   1.177 -0.8976  0.5257  0.4425
 6005TIP3   OH242209   1.210   0.321   2.389 -0.0202  0.1622 -0.3060
 6005TIP3    H142210   1.294   0.366   2.396 -0.6543  1.7149 -1.7609
 6005TIP3    H242211   1.210   0.283   2.301  0.3945 -2.6269  0.7914
 6006TIP3   OH242212   4.806   2.285   1.388  0.3704 -0.1727  0.0211
 6006TIP3    H142213   4.797   2.212   1.449 -0.8356 -0.1911 -0.1572
 6006TIP3    H242214   4.737   2.347   1.413 -0.0320 -0.0971 -1.1781
 6007TIP3   OH242215   5.549   6.722   2.568  0.6656  0.0984 -0.0757
 6007TIP3    H142216   5.458   6.739   2.546  0.6440  1.1673  0.7857
 6007TIP3    H242217   5.599   6.767   2.499  0.5635  1.7933  0.8982
 6008TIP3   OH242218   3.456   1.166   2.130  0.3045  0.2288  0.7388
 6008TIP3    H142219   3.460   1.261   2.141 -0.7992  0.5319 -1.1793
 6008TIP3    H242220   3.522   1.146   2.063  0.0692 -0.2802  0.6541
 6009TIP3   OH242221   3.432   5.900   1.472 -0.2702 -0.0401 -0.5336
 6009TIP3    H142222   3.418   5.930   1.562  0.1654  1.5151 -0.9535
 6009TIP3    H242223   3.527   5.895   1.463 -0.3072 -2.4495 -0.2386
 6010TIP3   OH242224   1.969   0.376   1.926 -0.5242 -0.1293 -0.5614
 6010TIP3    H142225   2.031   0.437   1.967 -1.3400  0.1020  0.3678
 6010TIP3    H242226   2.024   0.311   1.882  0.3830  1.5430 -2.0233
 6011TIP3   OH242227   0.963   0.642   2.214 -0.1281  0.5900 -0.0373
 6011TIP3    H142228   0.887   0.640   2.157 -0.9671  1.9349  0.9631
 6011TIP3    H242229   1.022   0.704   2.173 -0.3604  0.9072  0.1028
 6012TIP3   OH242230   6.828   4.476   1.633  0.0117  0.2033 -0.7934
 6012TIP3    H142231   6.734   4.489   1.651 -0.2102 -0.6860 -1.2791
 6012TIP3    H242232   6.863   4.565   1.627 -0.5737  0.5600  0.4997
 6013TIP3   OH242233   0.165   4.169   0.881 -0.2066  0.0350 -0.1976
 6013TIP3    H142234   0.231   4.171   0.812  0.1167  0.6266  0.1244
 6013TIP3    H242235   0.184   4.245   0.936 -0.8459 -0.0705  0.1881
 6014TIP3   OH242236   2.233   4.786   3.867  0.5171 -0.0177  0.4099
 6014TIP3    H142237   2.291   4.810   3.795 -0.9571 -0.4723 -0.9903
 6014TIP3    H242238   2.270   4.705   3.901  0.9432 -0.0911 -0.2063
 6015TIP3   OH242239   2.487   4.630   2.797  0.1431  0.0828  0.0795
 6015TIP3    H142240   2.563   4.573   2.806 -0.0091 -0.3649 -1.2538
 6015TIP3    H242241   2.478   4.672   2.882  2.3778  0.7768  0.0351
 6016TIP3   OH242242   0.431   5.503   1.983  0.2187 -0.4263  0.1881
 6016TIP3    H142243   0.421   5.495   2.078  0.7788 -0.7264  0.2272
 6016TIP3    H242244   0.344   5.527   1.951  0.6602  2.9000  1.1246
 6017TIP3   OH242245   1.120   2.782   3.173 -0.0732  0.0906  0.5093
 6017TIP3    H142246   1.155   2.700   3.138 -0.0951 -0.1362  1.0068
 6017TIP3    H242247   1.108   2.765   3.267 -2.0180 -0.0197  0.2801
 6018TIP3   OH242248   2.680   5.719   3.902 -0.5034  0.0539 -0.1042
 6018TIP3    H142249   2.643   5.791   3.953 -1.7164 -1.0043  0.5758
 6018TIP3    H242250   2.755   5.689   3.953  0.8417  1.6543 -1.0554
 6019TIP3   OH242251   3.618   2.061   1.407  0.5927  0.2165 -0.4809
 6019TIP3    H142252   3.648   2.081   1.495  2.9501  0.9700 -1.3448
 6019TIP3    H242253   3.580   2.143   1.375 -2.3128 -0.6363  0.4807
 6020TIP3   OH242254   3.424   1.000   2.353 -0.4921 -0.8926 -0.4072
 6020TIP3    H142255   3.519   0.992   2.362 -0.4220  0.5297  0.4691
 6020TIP3    H242256   3.411   1.047   2.270 -0.1558  2.5751  1.3398
 6021TIP3   OH242257   6.553   6.453   2.569 -0.6514  0.4049 -0.9657
 6021TIP3    H142258   6.469   6.492   2.545 -1.1387 -1.1581 -1.9260
 6021TIP3    H242259   6.617   6.522   2.551 -1.3310  0.4288 -3.8311
 6022TIP3   OH242260   2.813   6.372   3.899  0.2246 -0.3198  0.0972
 6022TIP3    H142261   2.890   6.319   3.917 -0.0301 -0.6295  0.2867
 6022TIP3    H242262   2.848   6.453   3.861  0.5364 -1.5146 -2.3902
 6023TIP3   OH242263   0.614   3.166   2.416  0.5098 -0.0824 -0.2525
 6023TIP3    H142264   0.600   3.215   2.497  1.4804  1.7707 -1.1516
 6023TIP3    H242265   0.635   3.077   2.446 -0.2963  0.2615  1.4662
 6024TIP3   OH242266   4.338   2.168   1.014  0.1931 -0.4640 -0.4230
 6024TIP3    H142267   4.329   2.128   1.101 -1.0159  0.1642 -0.2265
 6024TIP3    H242268   4.395   2.244   1.028  0.5677 -0.7660 -0.3158
 6025TIP3   OH242269   0.606   6.520   2.306 -0.2915  0.2417 -0.3363
 6025TIP3    H142270   0.576   6.574   2.233 -0.5961  0.7403  0.1530
 6025TIP3    H242271   0.654   6.448   2.264  0.2753  0.9844 -0.9836
 6026TIP3   OH242272   5.321   0.219   2.572 -0.2176  0.2259 -0.7233
 6026TIP3    H142273   5.317   0.123   2.579 -1.0414 -0.0370 -3.4873
 6026TIP3    H242274   5.410   0.236   2.540 -0.3156  0.3298 -0.9357
 6027TIP3   OH242275   6.347   2.208   2.250 -0.0031 -0.4256  0.4833
 6027TIP3    H142276   6.353   2.288   2.302  0.7046 -0.8703  1.1135
 6027TIP3    H242277   6.437   2.173   2.250  0.4276  0.4201 -2.4549
 6028TIP3   OH242278   0.537   0.962   1.610 -0.2663  0.0388 -0.0456
 6028TIP3    H142279   0.579   1.010   1.538 -0.6260  1.7204  0.7979
 6028TIP3    H242280   0.608   0.912   1.650  0.1928  0.0560 -0.8226
 6029TIP3   OH242281   2.608   4.917   0.624  0.4263 -0.1967  0.1183
 6029TIP3    H142282   2.538   4.966   0.667  0.8111 -0.3945  0.9876
 6029TIP3    H242283   2.570   4.831   0.606  0.0945  0.0591 -0.4368
 6030TIP3   OH242284   3.982   0.978   1.907 -0.7221  0.4240  0.2408
 6030TIP3    H142285   4.027   1.054   1.870  0.9647  0.3381  1.9655
 6030TIP3    H242286   4.044   0.942   1.971 -1.7898 -1.9326  0.0585
 6031TIP3   OH242287   6.391   1.515   2.110  0.2087 -0.0204  0.1488
 6031TIP3    H142288   6.329   1.533   2.181 -0.2777 -1.0580  0.0193
 6031TIP3    H242289   6.401   1.598   2.065 -0.0470  0.4845  0.9904
 6032TIP3   OH242290   2.573   6.428   2.349 -0.0967  0.0462  0.4638
 6032TIP3    H142291   2.482   6.455   2.336  0.0167  0.2922  0.1749
 6032TIP3    H242292   2.570   6.370   2.425 -0.5879 -0.4463  0.0812
 6033TIP3   OH242293   0.412   0.991   3.801 -0.2034 -0.0334  0.4472
 6033TIP3    H142294   0.462   0.933   3.858 -2.4966 -0.7412  1.8530
 6033TIP3    H242295   0.436   0.963   3.712  2.4877  0.2670  0.9875
 6034TIP3   OH242296   3.821   2.415   0.858  0.3761  0.1417 -0.7235
 6034TIP3    H142297   3.799   2.478   0.790  2.2447  0.5009 -1.0340
 6034TIP3    H242298   3.893   2.455   0.906  1.7494 -1.8030 -1.0480
 6035TIP3   OH242299   0.121   5.552   2.964 -0.3266  0.2054  0.0412
 6035TIP3    H142300   0.190   5.568   3.028  0.7896  2.3353 -1.5427
 6035TIP3    H242301   0.161   5.495   2.899  0.0477  1.5268 -0.9348
 6036TIP3   OH242302   5.955   2.892   3.640  0.1225  0.2755 -0.8004
 6036TIP3    H142303   5.966   2.987   3.637 -0.9154  0.4710  0.6612
 6036TIP3    H242304   5.890   2.877   3.708 -0.1607 -1.4655 -1.3988
 6037TIP3   OH242305   6.302   4.213   1.594  0.2998  0.0525  0.4746
 6037TIP3    H142306   6.279   4.227   1.502 -0.3719  1.8684  0.8776
 6037TIP3    H242307   6.337   4.124   1.597 -1.7528 -0.8865 -1.1287
 6038TIP3   OH242308   5.221   4.419   0.899  0.3946 -0.2720  0.2398
 6038TIP3    H142309   5.280   4.475   0.849 -0.1054 -1.1464 -1.4188
 6038TIP3    H242310   5.244   4.330   0.871 -0.4338 -0.7404  1.0030
 6039TIP3   OH242311   3.878   5.930   2.800  0.6233  0.3376 -0.2878
 6039TIP3    H142312   3.840   5.945   2.887  2.0801  1.2408  0.2457
 6039TIP3    H242313   3.867   5.837   2.784  1.8147 -0.1845  1.6360
 6040TIP3   OH242314   3.285   5.122   2.868 -0.0257  0.5170 -0.2211
 6040TIP3    H142315   3.315   5.119   2.959  2.4714  2.6346 -0.8421
 6040TIP3    H242316   3.264   5.031   2.847  1.1239 -0.3203  1.9273
 6041TIP3   OH242317   3.672   1.273   2.949  0.0245  0.1723  0.8033
 6041TIP3    H142318   3.734   1.311   2.887 -0.2372 -0.2798  0.2516
 6041TIP3    H242319   3.667   1.336   3.020 -0.6361  1.3229 -0.2302
 6042TIP3   OH242320   4.237   0.383   0.996 -0.1674 -0.7386  0.0312
 6042TIP3    H142321   4.154   0.367   1.040  0.3375  1.1415  1.8112
 6042TIP3    H242322   4.212   0.415   0.909 -1.2069 -2.6482 -0.4324
 6043TIP3   OH242323   3.798   0.945   1.681 -0.1664 -0.3856 -0.3622
 6043TIP3    H142324   3.836   0.964   1.767 -1.4449 -1.7345  0.5492
 6043TIP3    H242325   3.838   1.010   1.623  1.4206 -0.0191  1.0493
 6044TIP3   OH242326   1.907   6.260   4.441 -0.4141 -0.2856 -0.4898
 6044TIP3    H142327   1.835   6.320   4.419 -1.2180 -1.0740 -0.0987
 6044TIP3    H242328   1.921   6.274   4.535  1.8898  1.8904 -1.0686
 6045TIP3   OH242329   5.055   6.167   0.789 -0.1385  0.3054 -0.2095
 6045TIP3    H142330   5.139   6.120   0.790 -0.1441  0.2773  0.9183
 6045TIP3    H242331   5.055   6.215   0.707  0.6940 -0.2172 -0.5311
 6046TIP3   OH242332   0.527   3.189   1.174 -0.5096  0.6833  0.5393
 6046TIP3    H142333   0.526   3.140   1.257 -0.6083  1.6531  1.1264
 6046TIP3    H242334   0.590   3.142   1.119 -2.0419 -1.2531  0.3554
 6047TIP3   OH242335   0.003   0.176   0.485 -0.0272 -0.3381  0.2609
 6047TIP3    H142336   0.015   0.143   0.396  0.2983  1.2521 -0.3291
 6047TIP3    H242337  -0.029   0.101   0.535 -0.2371 -1.2552 -1.1971
 6048TIP3   OH242338   1.848   0.777   4.228  0.0664 -0.5000  0.5763
 6048TIP3    H142339   1.819   0.852   4.281 -1.2625  0.6281 -1.5698
 6048TIP3    H242340   1.909   0.816   4.164 -2.9086 -0.4707 -2.5348
 6049TIP3   OH242341   2.182   0.569   1.194 -0.3870 -0.3995 -0.2959
 6049TIP3    H142342   2.092   0.592   1.218 -0.5252  1.2175 -2.1229
 6049TIP3    H242343   2.174   0.483   1.153 -1.4203  0.4745 -2.0291
 6050TIP3   OH242344   2.063   2.522   1.365  0.0274 -0.3638  0.1749
 6050TIP3    H142345   2.031   2.605   1.401  1.1409  0.8860 -1.5418
 6050TIP3    H242346   2.008   2.507   1.288  0.7516 -0.4727 -0.3257
 6051TIP3   OH242347   4.884   0.156   3.646  0.5682 -1.0020  0.4476
 6051TIP3    H142348   4.789   0.144   3.642  0.3834  0.5287 -0.0341
 6051TIP3    H242349   4.898   0.215   3.721  1.3205 -2.6742  1.7046
 6052TIP3   OH242350   6.514   0.400   1.518  0.3886 -0.0271 -0.3500
 6052TIP3    H142351   6.505   0.437   1.431  0.3695 -1.7237 -1.1117
 6052TIP3    H242352   6.442   0.338   1.525 -0.6393  1.2841  1.5623
 6053TIP3   OH242353   3.243   5.582   3.072  0.0037  0.3921  0.0104
 6053TIP3    H142354   3.156   5.543   3.082 -0.1027  0.7916  0.7560
 6053TIP3    H242355   3.287   5.527   3.008 -0.2766 -0.7206  0.7466
 6054TIP3   OH242356   3.069   2.635   2.285 -0.3428  0.2003 -0.7619
 6054TIP3    H142357   2.980   2.623   2.317 -0.3124 -0.4636 -0.9031
 6054TIP3    H242358   3.093   2.549   2.249  1.2081 -0.3685  1.4121
 6055TIP3   OH242359   2.393   6.088   1.574  0.2704 -0.4164  0.0103
 6055TIP3    H142360   2.456   6.052   1.637 -0.7049 -0.6405  0.8884
 6055TIP3    H242361   2.314   6.035   1.587 -0.1354 -0.0734 -1.0022
 6056TIP3   OH242362   6.618   5.038   1.096 -0.4652 -0.3697 -0.0529
 6056TIP3    H142363   6.684   5.069   1.035 -0.7128 -1.5288 -0.9295
 6056TIP3    H242364   6.535   5.067   1.059 -0.6034 -0.8741 -0.1352
 6057TIP3   OH242365   5.912   6.566   2.855  0.2680 -0.1841  0.0648
 6057TIP3    H142366   5.837   6.552   2.913 -1.8824  0.6456 -2.3409
 6057TIP3    H242367   5.954   6.481   2.849  0.0411 -0.4798  2.1200
 6058TIP3   OH242368   0.639   5.529   4.135  0.0166  0.4295 -0.4730
 6058TIP3    H142369   0.734   5.527   4.131  0.0148  1.7236 -1.9344
 6058TIP3    H242370   0.619   5.527   4.229  1.3801 -1.6115 -0.1648
 6059TIP3   OH242371   3.530   1.852   1.933 -0.4108 -0.2499 -0.0709
 6059TIP3    H142372   3.455   1.890   1.886  1.6196  0.1337 -3.3369
 6059TIP3    H242373   3.552   1.774   1.883  0.6217 -1.0609  1.5824
 6060TIP3   OH242374   6.589   4.624   1.642 -0.3614  0.2669 -0.3435
 6060TIP3    H142375   6.602   4.676   1.722  0.7391  1.4658 -1.2549
 6060TIP3    H242376   6.527   4.676   1.590 -0.4689 -0.1255 -0.6112
 6061TIP3   OH242377   3.430   0.077   0.915 -0.3130 -0.6347  0.0188
 6061TIP3    H142378   3.368   0.150   0.912 -1.1826 -1.3433  0.4445
 6061TIP3    H242379   3.375  -0.001   0.918  0.6027 -1.2784  0.3430
 6062TIP3   OH242380   5.393   5.633   1.728  0.3331 -0.4080 -0.2251
 6062TIP3    H142381   5.315   5.687   1.726  0.8362  0.4743  1.4923
 6062TIP3    H242382   5.466   5.695   1.722  0.9619 -0.5642  3.2770
 6063TIP3   OH242383   2.311   5.926   0.953 -0.7136  0.1720  0.0670
 6063TIP3    H142384   2.364   5.891   0.881  0.1818 -0.8529  1.1731
 6063TIP3    H242385   2.238   5.970   0.910  2.1390  3.7221 -1.6865
 6064TIP3   OH242386   0.859   5.957   3.390  0.5581 -0.4054 -0.1527
 6064TIP3    H142387   0.828   5.980   3.303 -1.6079 -0.1993  0.6186
 6064TIP3    H242388   0.850   6.037   3.441 -1.8445 -1.4377  1.1783
 6065TIP3   OH242389   0.294   4.692   2.496  0.5165 -0.0688 -0.3837
 6065TIP3    H142390   0.351   4.626   2.457  1.1784 -0.2875  0.8941
 6065TIP3    H242391   0.213   4.645   2.517  1.3293 -0.7495  1.3966
 6066TIP3   OH242392   1.474   0.868   3.120  0.4231  0.1365 -0.5922
 6066TIP3    H142393   1.556   0.859   3.168 -0.2770 -0.9922  0.4341
 6066TIP3    H242394   1.441   0.779   3.111 -2.4181  0.7136  2.1539
 6067TIP3   OH242395   0.450   6.348   3.859 -0.0581 -0.5429  0.7068
 6067TIP3    H142396   0.429   6.406   3.932  1.3185 -0.2098  0.8680
 6067TIP3    H242397   0.481   6.268   3.901  1.0513 -0.2334  0.5158
 6068TIP3   OH242398   1.923   4.966   3.008  0.1367 -0.2921 -0.1667
 6068TIP3    H142399   1.894   4.877   2.988 -0.2271 -0.2826  0.2988
 6068TIP3    H242400   2.019   4.961   3.007  0.1258 -0.8820  0.6609
 6069TIP3   OH242401   1.631   4.508   3.740  0.3415  0.6040  0.3692
 6069TIP3    H142402   1.599   4.420   3.718  1.7823  0.3600 -0.8904
 6069TIP3    H242403   1.611   4.518   3.833 -1.2728 -0.4147  0.1732
 6070TIP3   OH242404   1.353   2.161   4.032  0.0556  0.3645  0.4102
 6070TIP3    H142405   1.392   2.179   4.117  1.3373 -2.6802  0.5815
 6070TIP3    H242406   1.269   2.121   4.052  0.7256 -1.1314  0.3050
 6071TIP3   OH242407   3.176   6.075   2.826  0.0726  0.2039 -0.4018
 6071TIP3    H142408   3.083   6.053   2.824 -0.5569  2.5658  0.0170
 6071TIP3    H242409   3.196   6.102   2.736 -0.2594  1.8640 -0.0016
 6072TIP3   OH242410   4.311   5.269   1.467 -0.0235  0.0845 -0.1214
 6072TIP3    H142411   4.389   5.251   1.414  0.2354 -0.9121  0.5695
 6072TIP3    H242412   4.289   5.359   1.446 -0.2386 -0.4236 -2.3012
 6073TIP3   OH242413   0.762   5.210   2.564 -0.6267 -0.0441  0.2523
 6073TIP3    H142414   0.783   5.134   2.619  0.0707  0.0329  0.1060
 6073TIP3    H242415   0.802   5.284   2.610 -0.8447  0.1545  0.1227
 6074TIP3   OH242416   5.688   2.349   3.481 -0.2829 -0.3629 -0.6349
 6074TIP3    H142417   5.772   2.341   3.526 -0.5529 -0.8293 -0.2090
 6074TIP3    H242418   5.651   2.261   3.482 -1.4642  0.1123  0.5500
 6075TIP3   OH242419   6.013   0.140   0.748  0.1439  0.1276 -0.1473
 6075TIP3    H142420   5.956   0.128   0.823 -1.4470 -0.2172 -1.3573
 6075TIP3    H242421   6.043   0.231   0.754 -0.8301  0.4261  0.3209
 6076TIP3   OH242422   0.242   5.262   1.572 -0.3846  0.1832 -0.2628
 6076TIP3    H142423   0.299   5.285   1.645  0.3878  0.1352 -0.8341
 6076TIP3    H242424   0.156   5.298   1.596 -0.6419 -1.4087  1.5048
 6077TIP3   OH242425   2.612   5.952   2.367 -0.2537 -0.3979  0.3121
 6077TIP3    H142426   2.569   5.870   2.342  0.8687 -0.3297 -2.1511
 6077TIP3    H242427   2.542   6.018   2.360 -0.4047 -0.6614 -1.2063
 6078TIP3   OH242428   3.299   0.909   0.983 -0.1489  0.4256  0.2801
 6078TIP3    H142429   3.350   0.980   0.946  0.1299 -0.2227 -0.6059
 6078TIP3    H242430   3.302   0.924   1.078 -0.1901  1.6435  0.1020
 6079TIP3   OH242431   5.221   1.051   2.112 -0.4656 -0.0108 -0.1135
 6079TIP3    H142432   5.313   1.074   2.117 -0.7065  2.2557 -3.1717
 6079TIP3    H242433   5.181   1.093   2.189  0.9195 -0.6996  1.0300
 6080TIP3   OH242434   2.079   1.431   3.682  0.0869 -0.3733 -0.6544
 6080TIP3    H142435   2.032   1.369   3.626  1.0865 -1.3095 -0.4931
 6080TIP3    H242436   2.137   1.376   3.735  1.1648  0.7152 -0.6605
 6081TIP3   OH242437   0.603   4.819   1.284 -0.1514  0.5789 -0.8657
 6081TIP3    H142438   0.658   4.816   1.362 -1.0159 -1.4599 -0.2724
 6081TIP3    H242439   0.630   4.899   1.238  2.0092  0.5872  0.3092
 6082TIP3   OH242440   2.231   6.768   1.353 -0.5868 -0.3900  0.2168
 6082TIP3    H142441   2.264   6.853   1.325  0.5818 -0.4314  1.3665
 6082TIP3    H242442   2.214   6.721   1.271  2.9737 -0.6324 -0.5640
 6083TIP3   OH242443   3.343   1.755   0.817  0.5942 -0.0579  0.1906
 6083TIP3    H142444   3.264   1.797   0.849  2.5163  2.8607  1.5417
 6083TIP3    H242445   3.332   1.752   0.722 -0.5138  1.7486  0.2237
 6084TIP3   OH242446   0.076   5.157   2.102  0.2703  0.5059 -0.9782
 6084TIP3    H142447  -0.000   5.116   2.061  0.2658 -1.8282  1.1018
 6084TIP3    H242448   0.151   5.126   2.051  0.2635 -2.3138  0.5378
 6085TIP3   OH242449   5.561   6.769   2.993 -0.1572 -0.3780  0.0217
 6085TIP3    H142450   5.555   6.703   2.924 -1.6500 -0.0076 -0.2311
 6085TIP3    H242451   5.537   6.723   3.073 -0.8958 -0.2281 -0.1073
 6086TIP3   OH242452   0.609   6.081   1.732 -0.0717 -1.0095 -0.1784
 6086TIP3    H142453   0.600   6.012   1.667  0.2634 -1.9682  0.7756
 6086TIP3    H242454   0.699   6.072   1.765 -0.2421 -0.5494  0.4354
 6087TIP3   OH242455   6.325   5.633   0.919 -0.2650 -0.2042 -0.9098
 6087TIP3    H142456   6.350   5.725   0.923  0.1569 -0.3312  2.0339
 6087TIP3    H242457   6.393   5.591   0.867  0.3928  0.9179 -0.9824
 6088TIP3   OH242458   5.421   3.030   1.635 -0.3262  0.2231 -0.2696
 6088TIP3    H142459   5.448   3.112   1.676 -0.5903  0.5615 -0.7722
 6088TIP3    H242460   5.385   3.055   1.550 -3.8592  0.0280  1.0101
 6089TIP3   OH242461   0.671   0.374   3.260  0.2190  0.2862  0.3462
 6089TIP3    H142462   0.741   0.405   3.319  0.9582  1.3590 -1.0409
 6089TIP3    H242463   0.706   0.294   3.222 -0.4972 -0.7339  1.7438
 6090TIP3   OH242464   4.085   2.982   2.831 -0.0463 -0.0784 -0.2641
 6090TIP3    H142465   4.016   2.960   2.769 -1.4807  0.7025  1.0146
 6090TIP3    H242466   4.122   3.064   2.799 -0.6337  0.2071 -0.2229
 6091TIP3   OH242467   5.519   1.846   3.165  0.3328  0.1123 -0.3186
 6091TIP3    H142468   5.597   1.856   3.111 -0.3274  1.9944 -1.0124
 6091TIP3    H242469   5.454   1.806   3.107  0.5008 -0.6397 -0.0014
 6092TIP3   OH242470   4.345   4.939   0.706 -0.9578  0.7340  0.2399
 6092TIP3    H142471   4.307   4.989   0.778  0.1510 -0.8491  2.0216
 6092TIP3    H242472   4.363   5.004   0.638  0.3928  2.7884  2.4244
 6093TIP3   OH242473   5.618   6.007   2.498 -0.1466  0.4939  0.2714
 6093TIP3    H142474   5.567   5.976   2.573 -1.2082  0.8993 -0.2538
 6093TIP3    H242475   5.558   5.998   2.424  1.4460 -1.5700 -0.8787
 6094TIP3   OH242476   2.655   5.240   2.591  0.1465 -0.1321 -0.0177
 6094TIP3    H142477   2.708   5.199   2.659  0.1348 -1.7776 -0.9395
 6094TIP3    H242478   2.718   5.289   2.538  0.5543 -0.8798 -0.2478
 6095TIP3   OH242479   0.605   3.627   1.650  0.0903  0.8899 -0.0336
 6095TIP3    H142480   0.518   3.659   1.674  0.3122  1.1758  0.4044
 6095TIP3    H242481   0.601   3.533   1.670 -0.7098  0.5039 -1.7575
 6096TIP3   OH242482   0.130   6.125   2.644  0.2656 -0.2225  0.7258
 6096TIP3    H142483   0.160   6.037   2.621 -1.2987 -0.7497  0.5911
 6096TIP3    H242484   0.089   6.158   2.564  0.8405  0.6411  0.7791
 6097TIP3   OH242485   4.260   1.049   1.185 -0.4301  0.4909  0.0051
 6097TIP3    H142486   4.259   1.067   1.279 -0.9616  0.6105 -0.0155
 6097TIP3    H242487   4.310   0.968   1.176 -1.8334 -0.4949  0.5931
 6098TIP3   OH242488   1.076   2.417   2.951  0.3878  0.7614 -0.4003
 6098TIP3    H142489   1.057   2.344   2.892  0.5380  1.4026 -1.2590
 6098TIP3    H242490   0.991   2.438   2.990  0.4587 -0.2896  0.3687
 6099TIP3   OH242491   1.168   3.748   1.592  0.5500 -0.9480 -0.6821
 6099TIP3    H142492   1.232   3.708   1.651  0.9143 -0.5954 -0.8347
 6099TIP3    H242493   1.084   3.709   1.617  0.7576 -1.0744 -0.1807
 6100TIP3   OH242494   0.461   5.811   3.442  0.2942 -0.0607  0.3890
 6100TIP3    H142495   0.430   5.893   3.480 -0.5064  0.1006 -0.5943
 6100TIP3    H242496   0.382   5.759   3.429  0.6780 -0.5468 -0.0268
 6101TIP3   OH242497   5.272   5.944   2.006 -0.1102 -0.2071  0.2308
 6101TIP3    H142498   5.304   5.966   1.918 -0.9556  2.1960  0.4580
 6101TIP3    H242499   5.181   5.919   1.993 -0.2603  0.2323  0.4052
 6102TIP3   OH242500   0.138   0.542   2.085  0.3009  0.4164  0.3724
 6102TIP3    H142501   0.193   0.553   2.163  1.4618  2.5697 -0.6331
 6102TIP3    H242502   0.151   0.451   2.059  1.4738  0.2063  1.5682
 6103TIP3   OH242503   4.642   3.551   1.366 -0.1139  0.1739  0.3582
 6103TIP3    H142504   4.698   3.475   1.349 -0.2147  0.0860  0.4246
 6103TIP3    H242505   4.557   3.527   1.329 -0.3133  0.0139  0.9210
 6104TIP3   OH242506   2.352   3.047   2.435  0.1932  0.4740  0.4313
 6104TIP3    H142507   2.333   3.131   2.394 -0.5573 -0.6953 -1.8191
 6104TIP3    H242508   2.447   3.047   2.448  0.4248  1.1111 -0.9925
 6105TIP3   OH242509   1.440   3.385   1.924 -0.0480  0.3365  0.1243
 6105TIP3    H142510   1.411   3.399   1.834  1.3346 -0.1567 -0.4360
 6105TIP3    H242511   1.436   3.471   1.965 -0.2074  0.6607 -0.5655
 6106TIP3   OH242512   6.461   4.778   0.765 -0.0002  0.4004  0.0726
 6106TIP3    H142513   6.464   4.716   0.838 -0.0826  0.2362 -0.0603
 6106TIP3    H242514   6.552   4.806   0.753  0.1134 -0.0713 -0.1808
 6107TIP3   OH242515   1.321   0.304   1.007  0.1216  0.2678  1.2017
 6107TIP3    H142516   1.275   0.383   0.981  0.8285  0.5757  0.8606
 6107TIP3    H242517   1.371   0.329   1.085  1.4085  0.5527  0.3195
 6108TIP3   OH242518   2.452   3.663   2.710 -0.4376 -0.4442 -0.4376
 6108TIP3    H142519   2.401   3.607   2.650  1.7973 -0.7919 -2.1597
 6108TIP3    H242520   2.445   3.751   2.672 -2.0875  0.0948  0.9950
 6109TIP3   OH242521   4.346   6.707   2.913  0.5296  0.2537  0.3763
 6109TIP3    H142522   4.432   6.731   2.949  1.3266 -0.9149 -0.6429
 6109TIP3    H242523   4.304   6.791   2.895  1.8068  0.8744  0.1450
 6110TIP3   OH242524   5.476   2.873   2.487  0.2359  0.2401 -0.0207
 6110TIP3    H142525   5.394   2.832   2.461  0.4161  0.4951 -1.0399
 6110TIP3    H242526   5.470   2.882   2.582  0.2089 -2.1817  0.2759
 6111TIP3   OH242527   1.053   3.552   1.748 -0.0171 -0.3301  0.0304
 6111TIP3    H142528   1.133   3.520   1.708 -0.2894 -0.6171 -0.2903
 6111TIP3    H242529   1.062   3.531   1.841 -0.1992 -1.3593 -0.1758
 6112TIP3   OH242530   6.364   5.915   0.657 -0.6179  0.3375 -0.4984
 6112TIP3    H142531   6.331   5.839   0.609  0.6878  0.2875 -1.3594
 6112TIP3    H242532   6.313   5.989   0.622 -2.1166 -0.1449  0.5741
 6113TIP3   OH242533   0.927   0.617   3.612  0.2920 -0.1865 -0.3081
 6113TIP3    H142534   0.950   0.667   3.690 -1.6999  1.0842 -0.4822
 6113TIP3    H242535   0.937   0.679   3.539 -1.3718 -0.2432 -0.6228
 6114TIP3   OH242536   6.323   5.487   2.768 -0.0616 -0.1010  0.2336
 6114TIP3    H142537   6.398   5.428   2.769 -0.0632 -0.1182  1.2682
 6114TIP3    H242538   6.266   5.453   2.700  1.0576  0.1640 -0.8706
 6115TIP3   OH242539   1.534   6.639   1.071  0.6266 -0.4722  0.2270
 6115TIP3    H142540   1.605   6.693   1.106  0.7140  1.0921 -2.1106
 6115TIP3    H242541   1.575   6.590   1.000 -0.7449  1.3200 -1.9458
 6116TIP3   OH242542   2.442   3.469   1.938 -0.7679  0.0330 -0.2711
 6116TIP3    H142543   2.404   3.462   2.025 -1.2783 -0.5086 -0.5356
 6116TIP3    H242544   2.401   3.547   1.901  1.2296  1.7160  0.8321
 6117TIP3   OH242545   2.290   2.159   3.874  0.2720  0.7708 -0.4727
 6117TIP3    H142546   2.372   2.203   3.897  0.5755 -0.2083  0.4108
 6117TIP3    H242547   2.288   2.081   3.930 -1.2368  0.7433 -0.5153
 6118TIP3   OH242548   3.588   2.599   2.140 -0.5118 -0.7706  0.4976
 6118TIP3    H142549   3.649   2.665   2.108 -0.4939 -1.1304 -0.2217
 6118TIP3    H242550   3.612   2.586   2.232 -0.7671  0.4960  0.7549
 6119TIP3   OH242551   6.071   4.224   3.976  0.2754  0.0083 -0.2379
 6119TIP3    H142552   6.124   4.274   4.038  0.0467 -1.4551  1.2081
 6119TIP3    H242553   6.124   4.147   3.956  0.1632  0.2525 -1.5574
 6120TIP3   OH242554   1.905   6.808   0.998  0.0462 -0.5795 -0.4692
 6120TIP3    H142555   1.985   6.776   1.040  0.2202  0.5131  0.0876
 6120TIP3    H242556   1.838   6.802   1.067 -0.0708 -0.4075 -0.5664
 6121TIP3   OH242557   5.057   3.386   0.996  0.0801 -0.2741  0.0858
 6121TIP3    H142558   5.127   3.355   1.053  2.0310  1.3526 -1.2578
 6121TIP3    H242559   5.099   3.397   0.910 -1.8613  0.6512 -0.8104
 6122TIP3   OH242560   3.712   3.592   3.456  0.1413 -0.1199 -0.2126
 6122TIP3    H142561   3.747   3.655   3.393  2.3663 -0.6347  0.4393
 6122TIP3    H242562   3.780   3.583   3.522 -0.3609 -2.7184  0.0720
 6123TIP3   OH242563   4.785   2.833   0.451 -0.5282  0.1207 -0.3428
 6123TIP3    H142564   4.803   2.835   0.544 -1.0594 -3.1494 -0.0621
 6123TIP3    H242565   4.868   2.811   0.410 -0.4920  0.6845 -0.5911
 6124TIP3   OH242566   5.511   5.240   1.914 -0.2937 -0.8642 -0.1645
 6124TIP3    H142567   5.555   5.313   1.959 -0.5360 -0.2776 -0.8518
 6124TIP3    H242568   5.578   5.202   1.858  0.4261 -2.5309  1.7071
 6125TIP3   OH242569   3.000   1.428   2.419  0.3058  0.2621 -0.2510
 6125TIP3    H142570   2.987   1.455   2.328  0.0458  1.9773  0.2581
 6125TIP3    H242571   2.918   1.384   2.443 -0.7028  2.1612 -0.0699
 6126TIP3   OH242572   4.963   3.109   0.716 -0.2960 -0.5484 -0.3294
 6126TIP3    H142573   5.035   3.072   0.767  0.3711  1.9932  0.7017
 6126TIP3    H242574   4.890   3.049   0.731  0.8038 -1.6406  0.9300
 6127TIP3   OH242575   3.024   6.809   0.981 -0.0812 -0.2198  0.6803
 6127TIP3    H142576   2.996   6.895   1.014  0.8633  0.0094  0.8955
 6127TIP3    H242577   2.942   6.765   0.958 -0.5315  1.1449 -0.4637
 6128TIP3   OH242578   4.346   1.924   0.558 -0.3433  0.0175 -0.2703
 6128TIP3    H142579   4.416   1.860   0.544  1.1055  1.1091  1.4645
 6128TIP3    H242580   4.348   1.941   0.653 -0.3478  2.8978 -0.6872
 6129TIP3   OH242581   0.647   2.352   0.739 -1.2705 -0.3733  0.3272
 6129TIP3    H142582   0.658   2.430   0.685  0.5847 -0.8075  0.0002
 6129TIP3    H242583   0.642   2.385   0.829 -0.8497  0.1590  0.1600
 6130TIP3   OH242584   6.433   5.582   0.317  0.6503 -0.3222 -0.4905
 6130TIP3    H142585   6.499   5.548   0.376  0.5899 -0.9779 -0.7881
 6130TIP3    H242586   6.420   5.512   0.252 -0.2714 -0.1782 -0.4805
 6131TIP3   OH242587   0.487   5.232   3.957  0.0674  0.4680  0.4225
 6131TIP3    H142588   0.427   5.281   4.013 -1.3064  1.5015 -1.7941
 6131TIP3    H242589   0.456   5.142   3.960 -1.7802  1.0190 -0.8350
 6132TIP3   OH242590   4.740   5.148   2.972  0.3470  0.0331 -0.1886
 6132TIP3    H142591   4.654   5.161   3.011  0.3347  0.8203 -0.4731
 6132TIP3    H242592   4.797   5.212   3.015  0.8991 -0.7474  0.2905
 6133TIP3   OH242593   5.550   5.972   3.385  0.1343  0.4133 -0.2224
 6133TIP3    H142594   5.540   5.900   3.324 -1.3365  0.2308  0.1755
 6133TIP3    H242595   5.602   5.937   3.457  0.5361  0.1584 -0.6362
 6134TIP3   OH242596   6.646   6.521   0.410 -0.0661 -0.5252  0.2454
 6134TIP3    H142597   6.610   6.451   0.355 -0.1406 -0.9715  0.8478
 6134TIP3    H242598   6.708   6.477   0.469  0.1513 -0.0305  0.3984
 6135TIP3   OH242599   4.399   3.926   2.173 -0.1595  0.2174  0.2445
 6135TIP3    H142600   4.397   3.834   2.147  2.0027  0.1931 -0.0287
 6135TIP3    H242601   4.311   3.958   2.156 -0.6941 -1.5698 -0.5520
 6136TIP3   OH242602   5.233   5.181   1.470 -0.6998 -0.8633 -0.0193
 6136TIP3    H142603   5.286   5.226   1.405  1.2271 -0.3966  1.7383
 6136TIP3    H242604   5.162   5.242   1.491  0.6977  0.5525  0.8330
 6137TIP3   OH242605   1.270   2.388   3.191 -0.1729  0.0568 -0.0924
 6137TIP3    H142606   1.198   2.389   3.128 -0.2889  1.5002  0.0411
 6137TIP3    H242607   1.327   2.460   3.164 -0.6723  1.2685  1.9412
 6138TIP3   OH242608   2.564   2.758   3.205 -0.5540 -0.2990 -0.6080
 6138TIP3    H142609   2.568   2.698   3.279  0.5897  0.1313 -0.3069
 6138TIP3    H242610   2.625   2.829   3.228  0.1473 -0.3725 -2.1334
 6139TIP3   OH242611   4.115   0.919   3.314 -0.3676 -0.2571  0.1064
 6139TIP3    H142612   4.070   0.869   3.382 -1.6014 -0.8044 -1.0785
 6139TIP3    H242613   4.179   0.857   3.278  0.3648  0.0671  0.7973
 6140TIP3   OH242614   0.382   0.246   2.478  0.5582 -0.1954 -0.5189
 6140TIP3    H142615   0.359   0.180   2.543  0.7044  0.6776  0.4369
 6140TIP3    H242616   0.306   0.249   2.419 -0.5709  0.6011  0.9184
 6141TIP3   OH242617   4.940   1.979   3.328 -0.2063 -0.3042  0.1493
 6141TIP3    H142618   4.935   2.046   3.259  0.6173  0.2868  0.6418
 6141TIP3    H242619   5.005   1.917   3.296 -0.2240 -0.3186  0.1420
 6142TIP3   OH242620   3.108   6.778   2.425 -0.2085  0.2711 -0.0108
 6142TIP3    H142621   3.030   6.730   2.396  0.6977 -2.1337  1.2400
 6142TIP3    H242622   3.084   6.814   2.510 -0.5354  1.1230 -0.4579
 6143TIP3   OH242623   0.874   2.637   3.948  0.3176 -0.2586 -0.6414
 6143TIP3    H142624   0.929   2.559   3.935  2.3975  1.1883 -0.9241
 6143TIP3    H242625   0.869   2.677   3.862 -0.1218  0.3182 -0.3490
 6144TIP3   OH242626   1.390   5.883   3.439 -0.0741  0.1896  0.1569
 6144TIP3    H142627   1.480   5.878   3.407 -0.2894 -0.7604 -0.3438
 6144TIP3    H242628   1.386   5.819   3.511 -0.8273 -1.2539 -1.0994
 6145TIP3   OH242629   0.960   3.004   0.663 -0.2840 -0.1221  0.3199
 6145TIP3    H142630   0.872   2.971   0.648 -0.4330 -0.5542  2.0475
 6145TIP3    H242631   0.953   3.099   0.647 -0.9879 -0.1943  0.1875
 6146TIP3   OH242632   4.370   3.209   2.952 -0.0912  0.3136 -0.3374
 6146TIP3    H142633   4.378   3.118   2.923  2.8789  0.2393  0.3381
 6146TIP3    H242634   4.408   3.260   2.880 -1.6151  1.0407 -0.6506
 6147TIP3   OH242635   3.935   4.307   2.952  0.0852 -0.2976  0.3067
 6147TIP3    H142636   3.930   4.334   3.044 -1.1148 -1.9971  0.8093
 6147TIP3    H242637   3.852   4.260   2.937 -0.2538  0.9075 -1.9868
 6148TIP3   OH242638   6.245   0.826   1.402 -0.4094  0.1006 -0.4630
 6148TIP3    H142639   6.153   0.804   1.383 -0.3600  0.2986 -0.9259
 6148TIP3    H242640   6.291   0.814   1.319 -0.2632  1.3293 -0.5835
 6149TIP3   OH242641   5.991   6.315   2.316  0.1113 -0.2368  0.1081
 6149TIP3    H142642   6.063   6.293   2.257  1.0047  1.4553  0.4905
 6149TIP3    H242643   5.934   6.239   2.314 -0.1763 -0.0500 -3.2960
 6150TIP3   OH242644   2.488   1.488   2.816 -0.7169  0.1364 -0.0804
 6150TIP3    H142645   2.473   1.580   2.795 -0.2842  0.4682  0.9722
 6150TIP3    H242646   2.573   1.468   2.776 -0.6287  0.3103  0.0181
 6151TIP3   OH242647   1.506   2.056   2.937  1.0124 -0.3834 -0.4322
 6151TIP3    H142648   1.520   1.965   2.914 -1.6553 -0.6232 -1.4978
 6151TIP3    H242649   1.515   2.104   2.855  2.0045  0.2818  0.0456
 6152TIP3   OH242650   2.188   2.422   4.011  0.2584 -0.3169 -0.8552
 6152TIP3    H142651   2.178   2.470   3.929 -0.5106 -2.3416 -2.0199
 6152TIP3    H242652   2.099   2.396   4.034  0.5636 -0.4868  0.1839
 6153TIP3   OH242653   5.820   3.329   0.927 -0.2301 -0.2105  0.4458
 6153TIP3    H142654   5.877   3.393   0.884 -1.1412  0.2374 -0.1223
 6153TIP3    H242655   5.868   3.305   1.006  0.8258  0.0306 -0.0864
 6154TIP3   OH242656   3.707   0.688   0.797  0.5376 -0.3076  0.2409
 6154TIP3    H142657   3.755   0.768   0.774 -0.1774  0.2256  0.5410
 6154TIP3    H242658   3.767   0.617   0.777  1.8498  0.3714  1.5885
 6155TIP3   OH242659   6.455   2.713   2.147  0.4456 -0.0591  0.3722
 6155TIP3    H142660   6.429   2.755   2.229  0.0897  1.4141 -0.4716
 6155TIP3    H242661   6.378   2.721   2.090  1.1043  0.0212 -0.5236
 6156TIP3   OH242662   5.531   0.956   3.530 -0.1035  0.1120 -0.4106
 6156TIP3    H142663   5.525   0.959   3.625  1.4115 -1.3646 -0.2196
 6156TIP3    H242664   5.576   1.037   3.506 -3.0655  1.9925 -0.2377
 6157TIP3   OH242665   1.596   3.335   1.166  0.3388  0.5912  0.2473
 6157TIP3    H142666   1.667   3.386   1.203  1.0991 -1.5700  1.9326
 6157TIP3    H242667   1.523   3.348   1.226  0.1364  0.6666 -0.0102
 6158TIP3   OH242668   5.495   1.546   1.899 -0.0968  0.4867  0.0916
 6158TIP3    H142669   5.516   1.555   1.806  0.2553 -0.3747  0.0780
 6158TIP3    H242670   5.512   1.632   1.936  1.3470  0.4184 -0.3482
 6159TIP3   OH242671   2.228   2.956   1.852 -0.2241  0.2787  0.7427
 6159TIP3    H142672   2.199   2.871   1.885  0.2206 -0.3077 -0.3062
 6159TIP3    H242673   2.298   2.934   1.790 -0.3606  1.3822  0.1776
 6160TIP3   OH242674   3.678   3.587   1.148  0.1660  0.3232  0.0295
 6160TIP3    H142675   3.637   3.568   1.232  0.8071  0.2620  0.3358
 6160TIP3    H242676   3.646   3.675   1.125 -0.4635  0.1014  0.0510
 6161TIP3   OH242677   0.040   4.408   3.152  0.6580 -0.7311  0.0166
 6161TIP3    H142678   0.083   4.387   3.069  0.4424  0.0903 -0.3021
 6161TIP3    H242679   0.066   4.336   3.210  1.0834 -1.1358 -0.6575
 6162TIP3   OH242680   0.388   5.334   3.638  0.4320  0.1822  0.5997
 6162TIP3    H142681   0.438   5.273   3.693  1.9431 -1.0493 -1.9093
 6162TIP3    H242682   0.329   5.277   3.589 -0.7399  1.2172  0.7852
 6163TIP3   OH242683   0.932   2.802   1.230 -0.4470  0.0431  0.4447
 6163TIP3    H142684   0.883   2.878   1.261 -1.7825 -0.6841  0.1860
 6163TIP3    H242685   0.982   2.773   1.306  0.6908  1.6140  0.3476
 6164TIP3   OH242686   5.475   1.199   2.495 -0.1243 -0.2745 -0.3740
 6164TIP3    H142687   5.541   1.149   2.544  0.8264  1.1417 -0.1421
 6164TIP3    H242688   5.448   1.140   2.425  1.3308 -0.9460 -0.4130
 6165TIP3   OH242689   0.347   1.445   3.445 -0.0258 -0.5394  0.0355
 6165TIP3    H142690   0.401   1.511   3.400 -0.1489  1.2235  2.2797
 6165TIP3    H242691   0.265   1.491   3.464  0.0359 -1.1711  2.0143
 6166TIP3   OH242692   4.479   6.601   2.051 -0.1662  0.1304 -0.4827
 6166TIP3    H142693   4.566   6.566   2.036  0.2176  1.3464 -1.2771
 6166TIP3    H242694   4.446   6.623   1.964 -1.5760 -0.9720 -0.2673
 6167TIP3   OH242695   6.369   6.698   4.251  0.2308 -0.4279 -0.7323
 6167TIP3    H142696   6.310   6.624   4.267 -1.4444  1.1708  1.1092
 6167TIP3    H242697   6.370   6.708   4.155 -2.1021 -0.8757 -0.8587
 6168TIP3   OH242698   5.737   4.099   3.241  0.2745  0.1612  0.0992
 6168TIP3    H142699   5.672   4.029   3.248 -0.0125  0.5314  1.5702
 6168TIP3    H242700   5.779   4.101   3.327  0.2895  1.7717  0.0820
 6169TIP3   OH242701   4.141   6.604   9.369  0.0184  0.3522  0.0129
 6169TIP3    H142702   4.084   6.627   9.442 -0.1809  1.5314 -0.4920
 6169TIP3    H242703   4.199   6.537   9.404 -1.0204 -0.1438  0.8257
 6170TIP3   OH242704   4.756   4.228   0.918 -0.2040  0.2354 -0.7281
 6170TIP3    H142705   4.700   4.154   0.942  0.2891 -0.2357 -1.0038
 6170TIP3    H242706   4.845   4.198   0.937 -0.0368  0.9363 -0.3913
 6171TIP3   OH242707   4.451   5.583   2.279  0.1063 -0.0935 -0.3976
 6171TIP3    H142708   4.410   5.620   2.201  1.6076 -0.4139 -1.3890
 6171TIP3    H242709   4.424   5.491   2.278  0.3044 -0.1511 -0.6815
 6172TIP3   OH242710   4.642   1.128   3.253  0.0582 -0.2473 -0.0712
 6172TIP3    H142711   4.704   1.063   3.287 -0.9333 -1.5175 -0.6165
 6172TIP3    H242712   4.569   1.076   3.220  0.2850  0.9676 -2.7433
 6173TIP3   OH242713   1.755   6.180   3.343  0.2366 -0.0202  0.2057
 6173TIP3    H142714   1.829   6.165   3.402 -0.6221 -1.3218  0.9988
 6173TIP3    H242715   1.724   6.093   3.321  0.8868  0.3882 -2.7247
 6174TIP3   OH242716   1.546   1.173   2.516 -0.0307  0.0463  0.1498
 6174TIP3    H142717   1.581   1.249   2.469 -0.7511 -0.5947 -1.4807
 6174TIP3    H242718   1.604   1.101   2.491 -0.5055 -0.3276  0.1218
 6175TIP3   OH242719   3.492   5.477   1.891  0.0522 -0.0304  0.2827
 6175TIP3    H142720   3.559   5.545   1.904 -0.2865  0.2430  0.6036
 6175TIP3    H242721   3.541   5.402   1.856  0.5056  0.2093  0.3915
 6176TIP3   OH242722   3.632   1.063   1.360 -0.2841 -0.9094 -0.1311
 6176TIP3    H142723   3.633   0.990   1.422 -0.0236  0.1356  1.1438
 6176TIP3    H242724   3.723   1.072   1.332 -0.0720 -0.2709  0.7203
 6177TIP3   OH242725   6.608   2.334   3.341 -0.4538 -0.2582  0.0962
 6177TIP3    H142726   6.680   2.359   3.284 -0.6484 -0.7962 -0.3920
 6177TIP3    H242727   6.646   2.337   3.429  0.6982 -2.2236 -0.2731
 6178TIP3   OH242728   6.331   6.243   2.000  0.4502  0.3384  0.2901
 6178TIP3    H142729   6.277   6.217   2.075  2.3405 -1.6467  1.0979
 6178TIP3    H242730   6.374   6.323   2.028 -0.0656  0.4854  0.6803
 6179TIP3   OH242731   2.484   0.266   4.127 -0.5334  0.2907 -0.1815
 6179TIP3    H142732   2.427   0.246   4.052 -1.5248  1.3490  0.2649
 6179TIP3    H242733   2.560   0.209   4.115 -2.1960 -2.0888 -0.1609
 6180TIP3   OH242734   2.596   1.574   2.483  0.1011 -0.0788 -0.2599
 6180TIP3    H142735   2.522   1.513   2.486  1.0807 -1.2545  1.0644
 6180TIP3    H242736   2.653   1.547   2.555  0.9696  1.9257 -0.1262
 6181TIP3   OH242737   5.748   2.996   1.221  0.1320 -0.4875  0.2438
 6181TIP3    H142738   5.727   3.035   1.306 -0.6616  0.3519 -0.3137
 6181TIP3    H242739   5.701   3.050   1.158  2.6371  0.3974 -0.9662
 6182TIP3   OH242740   4.646   6.381   3.679 -0.1218 -0.3838  0.1290
 6182TIP3    H142741   4.590   6.455   3.659 -1.1578 -1.0629  0.4261
 6182TIP3    H242742   4.592   6.323   3.733  0.9514 -0.9405  0.6581
 6183TIP3   OH242743   5.028   1.282   1.088  0.1132  0.0998  0.3339
 6183TIP3    H142744   5.016   1.324   1.002 -0.5559  0.2791  0.5112
 6183TIP3    H242745   4.963   1.212   1.089 -1.6953  1.7127  1.7174
 6184TIP3   OH242746   6.006   1.329   2.701  0.3842  0.3420 -0.2393
 6184TIP3    H142747   6.045   1.251   2.741 -1.7656 -2.1424 -2.5996
 6184TIP3    H242748   6.045   1.334   2.614 -0.8682  0.7455 -0.8055
 6185TIP3   OH242749   3.002   4.054   1.100 -0.0922 -0.1015  0.2548
 6185TIP3    H142750   2.909   4.045   1.082  0.0518 -2.6730  0.3907
 6185TIP3    H242751   3.045   4.026   1.019  0.5474 -0.4599  0.7093
 6186TIP3   OH242752   5.164   4.753   2.831 -0.1053  0.1986  0.2399
 6186TIP3    H142753   5.228   4.684   2.815  0.2917  0.3776  1.0181
 6186TIP3    H242754   5.081   4.707   2.838  0.0396 -0.1143 -0.0289
 6187TIP3   OH242755   1.990   5.951   1.480 -0.3421  0.1808 -0.2641
 6187TIP3    H142756   2.039   6.003   1.416  0.2660  0.6188  0.5325
 6187TIP3    H242757   2.050   5.942   1.554 -1.0666 -0.2266  0.2859
 6188TIP3   OH242758   3.872   3.348   3.185 -0.1019  0.2031 -0.5509
 6188TIP3    H142759   3.914   3.279   3.134 -0.7217 -1.0114  0.5075
 6188TIP3    H242760   3.908   3.338   3.273 -2.0482 -0.4593  0.2285
 6189TIP3   OH242761   6.102   0.794   3.130 -0.1822 -0.0292  0.3755
 6189TIP3    H142762   6.162   0.721   3.142  0.6110  0.4987 -0.2423
 6189TIP3    H242763   6.113   0.848   3.209  0.0724  0.0019  0.3195
 6190TIP3   OH242764   5.403   0.360   1.730 -0.0395 -0.6273 -0.0951
 6190TIP3    H142765   5.444   0.354   1.643  1.5730 -1.6349  0.6957
 6190TIP3    H242766   5.462   0.313   1.788 -0.5463  0.9267  1.7791
 6191TIP3   OH242767   4.904   0.179   0.987 -0.4540 -0.2069 -0.6423
 6191TIP3    H142768   4.831   0.167   0.925  0.0742  1.7449 -1.7189
 6191TIP3    H242769   4.875   0.134   1.066 -2.6273  0.0573 -1.2078
 6192TIP3   OH242770   2.000   1.354   1.046 -0.0929  0.1980  0.1441
 6192TIP3    H142771   2.004   1.440   1.003 -0.5436  0.7119  1.0924
 6192TIP3    H242772   2.051   1.296   0.989  1.5315  1.4242  0.2807
 6193TIP3   OH242773   1.128   4.678   2.862  0.4595 -0.3221 -0.8362
 6193TIP3    H142774   1.171   4.705   2.781 -2.3779 -1.2830 -2.8477
 6193TIP3    H242775   1.043   4.644   2.833 -0.5972 -0.9345  2.5609
 6194TIP3   OH242776   1.507   5.199   1.328  0.7807  0.4871  0.1052
 6194TIP3    H142777   1.473   5.280   1.291  0.1322 -0.3302 -1.1693
 6194TIP3    H242778   1.429   5.146   1.344  1.2745 -0.4497 -0.4882
 6195TIP3   OH242779   0.458   3.468   3.219 -0.1913 -0.0447 -0.1779
 6195TIP3    H142780   0.543   3.512   3.217 -0.3929  0.3942  0.6984
 6195TIP3    H242781   0.394   3.539   3.221 -0.5747 -0.3753 -0.4800
 6196TIP3   OH242782   5.605   3.457   1.062  0.3440 -0.2903  0.2671
 6196TIP3    H142783   5.634   3.539   1.024 -0.6193 -0.2979 -0.5269
 6196TIP3    H242784   5.674   3.394   1.040 -0.0674 -0.2424 -1.2889
 6197TIP3   OH242785   1.152   6.376   0.808  0.3488 -0.1271 -0.3632
 6197TIP3    H142786   1.068   6.373   0.854  1.1323 -0.3499  1.1377
 6197TIP3    H242787   1.167   6.287   0.778 -0.3562  0.1034 -1.4428
 6198TIP3   OH242788   6.419   6.583   0.549 -0.7537 -0.0973  0.0237
 6198TIP3    H142789   6.442   6.523   0.620 -1.0555 -0.0223  0.1847
 6198TIP3    H242790   6.487   6.569   0.484 -0.7053 -0.4661  0.1490
 6199TIP3   OH242791   4.818   6.478   3.261 -0.3678 -0.1197 -0.3761
 6199TIP3    H142792   4.805   6.530   3.340 -0.4372  1.3969 -1.3377
 6199TIP3    H242793   4.821   6.388   3.291 -0.4906  0.4212  1.3357
 6200TIP3   OH242794   1.002   6.208   2.702  0.1390 -0.2114 -0.2134
 6200TIP3    H142795   0.918   6.160   2.702 -0.2648  0.4826 -0.4307
 6200TIP3    H242796   1.068   6.139   2.707 -0.4553 -0.7366  0.9866
 6201TIP3   OH242797   1.198   3.729   3.013  0.1014  0.2019 -0.3915
 6201TIP3    H142798   1.107   3.703   3.030  0.7951 -2.1285  0.1527
 6201TIP3    H242799   1.224   3.676   2.938  0.8997  1.1541 -0.7931
 6202TIP3   OH242800   2.115   0.280   3.077 -0.4411 -0.1424  0.2431
 6202TIP3    H142801   2.068   0.197   3.069 -2.9423  1.1210  0.8536
 6202TIP3    H242802   2.208   0.256   3.071 -1.0327 -3.0541  1.1967
 6203TIP3   OH242803   3.901   4.617   1.141  0.2374 -0.7318 -0.6443
 6203TIP3    H142804   3.813   4.601   1.176 -0.3822 -0.1091 -1.8899
 6203TIP3    H242805   3.950   4.653   1.215 -1.0088  0.4457 -0.3670
 6204TIP3   OH242806   6.507   2.110   0.768  0.4566  0.7216  0.0197
 6204TIP3    H142807   6.534   2.202   0.762  1.0163  0.5212 -0.7390
 6204TIP3    H242808   6.428   2.105   0.715  1.4073  0.4191 -1.4088
 6205TIP3   OH242809   0.556   5.154   0.532  0.1649  0.8675  0.1558
 6205TIP3    H142810   0.635   5.101   0.543 -1.4396 -1.6453  0.3869
 6205TIP3    H242811   0.536   5.185   0.620  1.3657  2.3581 -0.0497
 6206TIP3   OH242812   6.785   4.597   3.508 -0.7974  0.2519 -0.5494
 6206TIP3    H142813   6.783   4.542   3.586 -0.7156 -0.1197 -0.8064
 6206TIP3    H242814   6.873   4.633   3.505 -0.5306 -0.4214 -0.9411
 6207TIP3   OH242815   0.573   1.378   1.704 -0.0048  0.2319  0.1198
 6207TIP3    H142816   0.521   1.369   1.624 -0.8661  1.0510  0.5627
 6207TIP3    H242817   0.617   1.463   1.694  1.8332 -0.7297 -0.5481
 6208TIP3   OH242818   6.676   6.654   2.038  0.1415 -0.1781 -0.5335
 6208TIP3    H142819   6.763   6.694   2.033  0.7143 -1.2398  0.4826
 6208TIP3    H242820   6.676   6.606   2.121 -0.5341 -2.2097 -1.6567
 6209TIP3   OH242821   6.315   1.721   3.458 -0.6967  0.3214  0.0349
 6209TIP3    H142822   6.331   1.683   3.544 -0.9394  1.8621  0.8020
 6209TIP3    H242823   6.284   1.810   3.476 -1.1856  0.5385 -1.6358
 6210TIP3   OH242824   2.022   1.614   1.003  0.4200 -0.5788  0.0367
 6210TIP3    H142825   2.016   1.604   0.908  1.4623  1.1377 -0.2603
 6210TIP3    H242826   2.115   1.632   1.019 -0.0820  1.3746  1.0886
 6211TIP3   OH242827   2.268   2.887   3.167 -0.1380 -0.2534 -0.2267
 6211TIP3    H142828   2.355   2.859   3.197 -0.2818  0.3092  0.7716
 6211TIP3    H242829   2.286   2.953   3.100  0.2274  0.4761  0.5643
 6212TIP3   OH242830   2.937   5.758   1.015  0.2114 -0.0202  0.1619
 6212TIP3    H142831   2.994   5.823   1.056 -0.9239  0.5065  0.9690
 6212TIP3    H242832   2.926   5.788   0.925 -3.6432  3.4196  1.4869
 6213TIP3   OH242833   6.811   1.484   3.742  0.2129 -0.0647  0.0727
 6213TIP3    H142834   6.867   1.439   3.805  1.8657 -0.8997 -1.8828
 6213TIP3    H242835   6.769   1.554   3.792 -0.7741 -2.3751  2.7223
 6214TIP3   OH242836   0.571   5.546   0.729 -0.1030 -0.0497 -0.0054
 6214TIP3    H142837   0.665   5.553   0.746  0.0411 -1.8858  0.1455
 6214TIP3    H242838   0.531   5.612   0.786  1.1768  2.1005 -1.4566
 6215TIP3   OH242839   0.204   2.838   2.195  0.1850 -0.7671  0.0289
 6215TIP3    H142840   0.251   2.849   2.112 -1.1116 -0.7498 -0.7494
 6215TIP3    H242841   0.118   2.879   2.178  0.1983  0.0230  1.6767
 6216TIP3   OH242842   6.011   4.367   2.574 -0.5020  0.4095 -0.4233
 6216TIP3    H142843   6.058   4.304   2.630  0.4838  1.4347 -0.0477
 6216TIP3    H242844   6.064   4.372   2.495  1.3545  3.1201  0.8004
 6217TIP3   OH242845   5.168   6.571   1.797  0.2515  0.0565  0.6818
 6217TIP3    H142846   5.076   6.551   1.818 -0.1363 -1.8157 -2.2835
 6217TIP3    H242847   5.164   6.647   1.739  0.7668  1.0394  1.8896
 6218TIP3   OH242848   1.256   5.030   1.318 -0.1485  0.4176  0.2371
 6218TIP3    H142849   1.203   5.086   1.375  0.7805  1.6167 -0.0191
 6218TIP3    H242850   1.236   5.061   1.229  1.1125  1.0521  0.1471
 6219TIP3   OH242851   5.167   4.648   1.874 -0.1008  0.3150  0.3154
 6219TIP3    H142852   5.247   4.665   1.824 -0.1487 -0.7797 -0.1620
 6219TIP3    H242853   5.198   4.624   1.961  0.0931 -0.0316  0.1539
 6220TIP3   OH242854   0.144   4.769   2.002 -0.5443 -0.0385  0.1251
 6220TIP3    H142855   0.165   4.677   1.985  0.2625 -0.2122  1.8510
 6220TIP3    H242856   0.049   4.772   2.006 -0.7819 -0.1799 -2.9241
 6221TIP3   OH242857   1.403   0.004   3.210  0.4160  0.5068 -0.4804
 6221TIP3    H142858   1.308   0.008   3.223  0.4721 -0.6693  0.5853
 6221TIP3    H242859   1.427  -0.084   3.239  1.6910  0.3686 -1.8148
 6222TIP3   OH242860   6.083   0.886   2.862 -0.1319 -0.3408 -0.1718
 6222TIP3    H142861   6.093   0.841   2.947 -0.0167  0.0831  0.0391
 6222TIP3    H242862   6.088   0.979   2.883  0.8106 -0.2431 -0.7559
 6223TIP3   OH242863   6.282   4.830   2.878  0.0601  0.2973  0.3258
 6223TIP3    H142864   6.289   4.889   2.953  0.3037  0.3318  0.2748
 6223TIP3    H242865   6.307   4.883   2.803  2.1499 -0.3782  0.4973
 6224TIP3   OH242866   0.074   0.824   4.181  0.0503  0.0992  0.7317
 6224TIP3    H142867   0.128   0.750   4.210  1.2842  0.6986  0.0840
 6224TIP3    H242868   0.087   0.826   4.086  0.6702  1.5956  0.8264
 6225TIP3   OH242869   4.159   5.538   2.757 -0.5133  0.3179  0.1399
 6225TIP3    H142870   4.213   5.513   2.832 -1.0610  0.9266  0.7501
 6225TIP3    H242871   4.222   5.566   2.690 -0.0736  3.1341  1.5912
 6226TIP3   OH242872   6.812   3.211   2.715  0.2221 -0.1249  0.0949
 6226TIP3    H142873   6.883   3.203   2.651 -0.1500 -1.5952 -0.1697
 6226TIP3    H242874   6.732   3.216   2.662  0.1075  2.0216  0.3710
 6227TIP3   OH242875   1.057   0.806   4.232  0.6252 -0.2738 -0.2676
 6227TIP3    H142876   1.106   0.879   4.270 -0.1709  0.4570 -0.6093
 6227TIP3    H242877   1.086   0.730   4.281  0.8222  0.4067  0.7098
 6228TIP3   OH242878   3.373   5.208   2.058 -0.9000  0.4844 -0.1140
 6228TIP3    H142879   3.377   5.146   1.985 -0.4126 -1.2167  1.2994
 6228TIP3    H242880   3.460   5.202   2.099 -1.2189  1.2896  0.7113
 6229TIP3   OH242881   2.078   1.717   4.571 -0.8261 -0.0393  0.0492
 6229TIP3    H142882   2.069   1.650   4.639 -0.4986  0.2912  0.4233
 6229TIP3    H242883   2.164   1.702   4.533 -0.6942  0.2546  0.2291
 6230TIP3   OH242884   1.649   2.087   3.483 -0.2991 -0.1869  0.0385
 6230TIP3    H142885   1.622   1.995   3.481  0.0633 -0.2735 -0.8026
 6230TIP3    H242886   1.608   2.126   3.406  1.2051 -0.1079 -0.7443
 6231TIP3   OH242887   4.107   5.351   3.258  0.5657 -0.1353 -0.6565
 6231TIP3    H142888   4.164   5.276   3.279  0.5007 -0.4042 -1.4144
 6231TIP3    H242889   4.049   5.318   3.190 -0.4910  0.1493  0.0799
 6232TIP3   OH242890   3.901   4.268   3.682 -0.3319  0.1095  0.3379
 6232TIP3    H142891   3.948   4.341   3.722  1.6007 -1.1327  0.4503
 6232TIP3    H242892   3.840   4.238   3.750 -0.1367  0.7344  0.7960
 6233TIP3   OH242893   5.533   0.652   1.953 -0.3283 -0.2310 -0.4133
 6233TIP3    H142894   5.570   0.596   1.885 -1.0987 -0.4704 -0.6455
 6233TIP3    H242895   5.583   0.734   1.946  0.9540 -0.9419  0.0762
 6234TIP3   OH242896   0.435   2.857   1.293  0.1229  0.1870 -0.5555
 6234TIP3    H142897   0.523   2.878   1.325  0.4514  1.3562 -2.1560
 6234TIP3    H242898   0.448   2.785   1.232 -0.2974 -0.8866  0.5698
 6235TIP3   OH242899   3.354   5.408   2.859  0.2812 -0.4562 -0.5015
 6235TIP3    H142900   3.308   5.460   2.792  1.9808 -2.9507 -3.9330
 6235TIP3    H242901   3.327   5.318   2.842  0.4175 -1.2023  2.6753
 6236TIP3   OH242902   2.873   5.138   3.167  0.1020 -0.1217 -0.5519
 6236TIP3    H142903   2.955   5.090   3.171  1.0658  1.5416  0.6169
 6236TIP3    H242904   2.898   5.228   3.145 -1.4388  0.3332 -0.5797
 6237TIP3   OH242905   1.602   6.121   1.367  0.5418 -0.7784  0.0557
 6237TIP3    H142906   1.668   6.126   1.437  0.4340  0.0715  0.1102
 6237TIP3    H242907   1.572   6.211   1.357  0.8168 -0.8246 -1.3354
 6238TIP3   OH242908   0.019   1.039   2.812  0.3205 -0.1724  0.5148
 6238TIP3    H142909   0.003   1.133   2.798 -0.5109 -0.4908 -0.8867
 6238TIP3    H242910   0.112   1.028   2.790  0.6421  0.4468  1.4970
 6239TIP3   OH242911   5.814   5.077   2.050 -0.0801 -0.2182 -0.0711
 6239TIP3    H142912   5.868   5.156   2.044 -0.4810  0.0142 -0.7688
 6239TIP3    H242913   5.799   5.051   1.960 -1.9939  0.3398  0.0257
 6240TIP3   OH242914   3.913   1.068   2.795 -0.1340  0.0558 -1.0711
 6240TIP3    H142915   3.898   0.978   2.766 -1.9006 -0.0175 -0.0646
 6240TIP3    H242916   3.943   1.059   2.886  1.2925  0.4483 -1.4721
 6241TIP3   OH242917   0.420   5.421   2.236 -0.3345 -1.0039  0.0163
 6241TIP3    H142918   0.439   5.329   2.221 -0.5882 -1.2593  1.1583
 6241TIP3    H242919   0.500   5.456   2.275 -1.2827 -1.5159  2.5712
 6242TIP3   OH242920   0.972   2.545   0.960 -1.0161  0.3083 -0.1316
 6242TIP3    H142921   1.051   2.523   1.010 -1.7413 -1.3710  0.3257
 6242TIP3    H242922   0.980   2.493   0.880 -2.1725 -0.7410  0.4108
 6243TIP3   OH242923   0.507   1.924   3.151  0.1843 -0.2960  0.1161
 6243TIP3    H142924   0.549   1.867   3.217 -0.7777  0.2598  1.2425
 6243TIP3    H242925   0.508   2.011   3.191  0.4964  0.2622 -1.0626
 6244TIP3   OH242926   1.032   4.914   3.271  0.5594  0.6710  0.0977
 6244TIP3    H142927   1.001   4.989   3.321 -1.1496  0.1349 -0.0977
 6244TIP3    H242928   1.070   4.951   3.191 -1.3198  1.3024 -0.5416
 6245TIP3   OH242929   0.601   0.555   4.128  0.5832 -0.1843 -0.3618
 6245TIP3    H142930   0.549   0.477   4.149 -0.4266  0.2627 -1.1252
 6245TIP3    H242931   0.566   0.623   4.185  0.7464 -0.0173 -0.4591
 6246TIP3   OH242932   5.300   3.071   3.043 -0.0454  0.6287  0.4521
 6246TIP3    H142933   5.395   3.063   3.040  0.2149  3.0302 -2.5737
 6246TIP3    H242934   5.268   2.988   3.008  0.7992 -0.6109  2.4394
 6247TIP3   OH242935   5.519   4.954   1.728 -0.5106  0.1069  0.4367
 6247TIP3    H142936   5.510   4.888   1.659 -1.5665  0.8374 -0.1478
 6247TIP3    H242937   5.430   4.986   1.742  0.0559  1.8483  0.2556
 6248TIP3   OH242938   5.383   1.687   0.864  0.2003 -0.1875  0.3632
 6248TIP3    H142939   5.475   1.660   0.873  0.9881  2.7474  3.0565
 6248TIP3    H242940   5.342   1.659   0.946 -1.4134 -1.4830 -0.8227
 6249TIP3   OH242941   0.600   4.849   4.467 -0.0383  0.4830  0.1366
 6249TIP3    H142942   0.673   4.849   4.405 -0.2303 -2.6424 -0.2304
 6249TIP3    H242943   0.522   4.839   4.412 -0.2151 -2.2592  0.7587
 6250TIP3   OH242944   6.705   0.549   3.467 -0.0630  0.0891 -0.0800
 6250TIP3    H142945   6.780   0.498   3.437 -1.6289 -2.9867  0.8249
 6250TIP3    H242946   6.685   0.608   3.394  1.5527 -0.9200 -1.4127
 6251TIP3   OH242947   3.617   1.329   1.661  0.1050 -0.2265  0.1171
 6251TIP3    H142948   3.649   1.399   1.605  0.0691 -1.3492 -1.3793
 6251TIP3    H242949   3.696   1.290   1.699  0.6146 -2.3845 -2.8268
 6252TIP3   OH242950   1.583   3.737   2.570 -0.5727  0.4813 -0.1039
 6252TIP3    H142951   1.495   3.775   2.568 -0.7680  0.0319 -1.2212
 6252TIP3    H242952   1.573   3.656   2.620 -0.9723  0.0590 -0.8456
 6253TIP3   OH242953   2.538   4.739   0.926 -0.1269  0.1020 -0.3265
 6253TIP3    H142954   2.518   4.734   1.020  0.2618 -0.5338 -0.2687
 6253TIP3    H242955   2.631   4.719   0.920 -0.3586 -0.8635 -0.9312
 6254TIP3   OH242956   5.853   4.321   2.315 -0.1034  0.2244 -0.3030
 6254TIP3    H142957   5.887   4.410   2.328  1.6248 -0.5363  0.6844
 6254TIP3    H242958   5.827   4.292   2.403 -1.2023 -0.0673 -0.7031
 6255TIP3   OH242959   0.595   0.590   1.561 -0.0722  0.2997  0.1967
 6255TIP3    H142960   0.690   0.597   1.549  0.0898 -0.2156  1.1465
 6255TIP3    H242961   0.581   0.596   1.655 -1.0511  1.0325  0.0256
 6256TIP3   OH242962   4.849   6.253   2.741  0.1201  0.3493  0.4249
 6256TIP3    H142963   4.778   6.201   2.779 -0.7494  0.7122 -0.6229
 6256TIP3    H242964   4.824   6.344   2.758  0.4446  0.4701  0.2595
 6257TIP3   OH242965   6.323   6.445   1.422  0.0466 -0.7297  0.0315
 6257TIP3    H142966   6.273   6.398   1.489  0.3693  1.7293  2.1721
 6257TIP3    H242967   6.412   6.409   1.428 -0.3026 -1.6532 -0.2528
 6258TIP3   OH242968   5.462   2.615   2.679  0.3255  0.3733  0.3987
 6258TIP3    H142969   5.439   2.700   2.715 -1.8821 -0.1045  0.2590
 6258TIP3    H242970   5.550   2.597   2.713 -0.0484  1.7436  2.2103
 6259TIP3   OH242971   1.846   1.286   2.476  0.4546 -0.1033 -0.1895
 6259TIP3    H142972   1.867   1.204   2.431 -0.5110 -0.1599 -0.5652
 6259TIP3    H242973   1.823   1.347   2.406  2.1601  0.8255  0.0090
 6260TIP3   OH242974   5.940   3.979   3.040  0.3066 -0.0531 -0.4134
 6260TIP3    H142975   6.010   4.040   3.017 -0.2897  0.5904 -0.5999
 6260TIP3    H242976   5.889   4.026   3.107 -0.9643  0.2674 -1.5406
 6261TIP3   OH242977   1.703   4.973   1.633 -0.6656  0.3630 -0.2085
 6261TIP3    H142978   1.609   4.988   1.621 -0.7771 -0.6350 -0.7243
 6261TIP3    H242979   1.708   4.903   1.698 -0.2279  1.1996  0.6880
 6262TIP3   OH242980   1.436   0.417   1.487 -0.4873  0.1200 -0.2098
 6262TIP3    H142981   1.524   0.422   1.522 -0.7251  0.7237  0.3187
 6262TIP3    H242982   1.447   0.382   1.398  0.2270 -0.2708  0.0286
 6263TIP3   OH242983   3.345   0.747   2.635 -0.0760 -0.5125 -0.5215
 6263TIP3    H142984   3.369   0.663   2.675  1.2714 -1.0268 -2.2920
 6263TIP3    H242985   3.415   0.807   2.661 -1.1140  0.1510  0.8647
 6264TIP3   OH242986   1.048   1.139   1.889 -0.4915 -0.4604  0.2958
 6264TIP3    H142987   0.980   1.199   1.920 -1.5869 -0.2850 -2.2536
 6264TIP3    H242988   1.119   1.196   1.859  0.6253 -0.6349  2.3953
 6265TIP3   OH242989   4.016   1.173   1.123  0.3933  0.3625 -0.0476
 6265TIP3    H142990   3.964   1.212   1.194 -1.0484  0.1873 -0.9763
 6265TIP3    H242991   4.075   1.113   1.168 -1.7464 -1.1476  0.9405
 6266TIP3   OH242992   5.591   1.809   0.684 -0.0327  0.0175 -0.2522
 6266TIP3    H142993   5.516   1.770   0.637 -0.8128  1.1116  0.0458
 6266TIP3    H242994   5.642   1.733   0.713 -0.8783 -0.7553 -0.6981
 6267TIP3   OH242995   5.362   5.257   2.593 -0.0733 -0.1201 -0.0643
 6267TIP3    H142996   5.453   5.230   2.607  0.5004  1.3339 -0.7587
 6267TIP3    H242997   5.367   5.323   2.524 -1.3777  1.6180  1.3993
 6268TIP3   OH242998   1.804   4.092   2.700  0.2981  0.4046 -0.3698
 6268TIP3    H142999   1.758   4.163   2.655  0.7613  0.7658 -0.2816
 6268TIP3    H243000   1.750   4.074   2.778 -1.3314 -1.2500 -1.7820
 6269TIP3   OH243001   6.171   1.877   2.540  0.2792  0.7543 -0.3769
 6269TIP3    H143002   6.264   1.890   2.558  0.1015  0.2111  1.0758
 6269TIP3    H243003   6.169   1.839   2.452  1.5175 -0.2018 -0.0306
 6270TIP3   OH243004   2.222   1.835   2.098 -0.6989  1.1589 -0.4069
 6270TIP3    H143005   2.238   1.906   2.036  2.2071 -0.1662 -1.3758
 6270TIP3    H243006   2.209   1.757   2.043 -1.2066  0.4860  0.6285
 6271TIP3   OH243007   1.932   2.927   2.157  0.1355  0.1853  0.1216
 6271TIP3    H143008   1.911   2.983   2.081  3.2378  1.1645 -0.1677
 6271TIP3    H243009   1.976   2.851   2.119  0.8819  0.2361  0.8657
 6272TIP3   OH243010   6.821   5.749   2.056  0.0436 -0.2623 -0.4191
 6272TIP3    H143011   6.786   5.670   2.099  0.2982 -0.4990 -0.6436
 6272TIP3    H243012   6.754   5.815   2.070  0.2177 -0.2749  0.5401
 6273TIP3   OH243013   3.626   0.324   2.748  0.4362 -0.0641 -0.0756
 6273TIP3    H143014   3.574   0.304   2.670 -0.8605  1.2615  0.4092
 6273TIP3    H243015   3.652   0.416   2.736  1.2781 -0.2251  0.4740
 6274TIP3   OH243016   3.326   4.834   2.080  0.1951  0.4660  0.4586
 6274TIP3    H143017   3.369   4.906   2.033  2.3586  0.4060  2.1873
 6274TIP3    H243018   3.247   4.874   2.116 -0.5933  0.9605 -1.6329
 6275TIP3   OH243019   5.065   1.330   1.869  0.3013  0.1455 -0.4689
 6275TIP3    H143020   5.032   1.310   1.781  1.4704  1.5360 -1.2740
 6275TIP3    H243021   5.044   1.422   1.882 -1.8209 -0.5488  1.6687
 6276TIP3   OH243022   2.911   6.444   3.227 -0.1214  0.5092  0.5246
 6276TIP3    H143023   2.831   6.488   3.255 -0.1921  1.1719 -0.6508
 6276TIP3    H243024   2.965   6.514   3.190 -0.0315 -0.2950 -0.9565
 6277TIP3   OH243025   0.702   6.258   3.771  0.5467  0.4706  0.2749
 6277TIP3    H143026   0.611   6.284   3.786  0.5445  0.2732  0.6112
 6277TIP3    H243027   0.748   6.282   3.852  1.0167  1.5352 -0.2811
 6278TIP3   OH243028   0.687   1.736   0.790 -0.2526 -0.0451 -0.2205
 6278TIP3    H143029   0.782   1.746   0.781 -0.4113  1.1830 -0.8754
 6278TIP3    H243030   0.661   1.809   0.846 -0.7103 -0.9512  0.7762
 6279TIP3   OH243031   4.427   5.028   1.584 -0.0714 -0.4252  0.1536
 6279TIP3    H143032   4.355   5.081   1.549 -0.4989 -0.4930  0.8920
 6279TIP3    H243033   4.475   4.998   1.507 -1.5779 -1.4223 -0.4495
 6280TIP3   OH243034   3.576   2.437   0.435  0.0016 -0.2901 -0.3991
 6280TIP3    H143035   3.553   2.363   0.379  0.6571 -1.6378  1.0533
 6280TIP3    H243036   3.533   2.512   0.394  1.8585 -0.8364 -3.7207
 6281TIP3   OH243037   3.288   3.747   0.764 -0.8445 -0.3827  0.3175
 6281TIP3    H143038   3.213   3.784   0.717 -2.5908 -2.9962  0.8717
 6281TIP3    H243039   3.269   3.654   0.771  2.0579 -1.0078  1.3209
 6282TIP3   OH243040   1.240   1.537   2.282  0.2602  0.1866 -0.1706
 6282TIP3    H143041   1.301   1.602   2.318  1.0254  0.9593 -2.6383
 6282TIP3    H243042   1.156   1.584   2.278 -0.0588 -0.1982  1.3049
 6283TIP3   OH243043   3.800   0.392   2.449  0.4397  0.1785 -0.5597
 6283TIP3    H143044   3.720   0.434   2.420  0.6299  0.9070 -0.0573
 6283TIP3    H243045   3.845   0.366   2.369 -0.1741 -0.0077 -0.8456
 6284TIP3   OH243046   2.974   1.324   2.808  0.1488  0.1647  0.2352
 6284TIP3    H143047   2.996   1.397   2.866  0.5213  0.4071 -0.2012
 6284TIP3    H243048   3.036   1.255   2.832 -0.1050  0.0421  0.5459
 6285TIP3   OH243049   1.041   2.410   2.545 -0.6307 -0.1795  0.8699
 6285TIP3    H143050   0.987   2.462   2.605 -1.6844 -0.5501  0.2686
 6285TIP3    H243051   0.980   2.348   2.506  0.4530 -1.3264  0.9510
 6286TIP3   OH243052   0.902   0.429   3.405 -0.1787 -0.2491  0.0083
 6286TIP3    H143053   0.900   0.489   3.480 -0.8724 -0.2525 -0.0000
 6286TIP3    H243054   0.969   0.364   3.428  2.7199  2.0450 -1.1929
 6287TIP3   OH243055   5.329   6.794   2.392 -0.2795  0.0224 -0.2447
 6287TIP3    H143056   5.347   6.855   2.321 -1.8628  0.4406 -0.3185
 6287TIP3    H243057   5.241   6.817   2.423  0.6714  0.4470  2.4624
 6288TIP3   OH243058   1.979   4.767   1.792  0.3315  0.4275  0.2555
 6288TIP3    H143059   1.915   4.715   1.743 -1.4408  2.3476  0.4238
 6288TIP3    H243060   2.037   4.802   1.724  0.6480 -0.5108  0.0108
 6289TIP3   OH243061   2.305   1.379   3.100  0.0247 -0.8598 -0.4683
 6289TIP3    H143062   2.339   1.290   3.101  2.1748 -0.0793 -0.4698
 6289TIP3    H243063   2.256   1.385   3.018  0.3936 -1.8278 -0.7714
 6290TIP3   OH243064   2.638   6.398   0.832  0.3357  0.2191  0.2187
 6290TIP3    H143065   2.601   6.311   0.848 -0.0982  0.3968  0.1712
 6290TIP3    H243066   2.704   6.408   0.902  1.2122 -0.6158 -0.4555
 6291TIP3   OH243067   5.501   4.684   2.625  0.2425 -0.1330  0.0429
 6291TIP3    H143068   5.420   4.707   2.579  0.2245  0.0334  0.1598
 6291TIP3    H243069   5.471   4.639   2.704  0.2398  0.6051  0.4712
 6292TIP3   OH243070   2.781   0.653   2.465 -0.0464  0.8358 -0.1928
 6292TIP3    H143071   2.799   0.572   2.418  0.0271 -0.3693  1.8204
 6292TIP3    H243072   2.702   0.635   2.516  1.6550  0.8818  2.6764
 6293TIP3   OH243073   6.022   0.475   2.913 -0.3979 -0.5512 -0.3654
 6293TIP3    H143074   5.935   0.479   2.874 -0.9523 -1.1885  0.7623
 6293TIP3    H243075   6.016   0.530   2.991  0.3786 -0.1626 -0.5671
 6294TIP3   OH243076   3.699   4.961   1.480  0.0113  0.4554 -0.1900
 6294TIP3    H143077   3.755   4.927   1.410  0.7108 -0.7832  0.9159
 6294TIP3    H243078   3.758   5.014   1.534 -0.3265  0.6848 -0.0438
 6295TIP3   OH243079   3.484   6.568   1.284 -0.0937 -0.0604 -0.0350
 6295TIP3    H143080   3.501   6.569   1.378  1.7845 -1.6945 -0.2953
 6295TIP3    H243081   3.390   6.587   1.277 -0.3491 -0.2280  2.1815
 6296TIP3   OH243082   2.145   6.579   1.100  0.7292 -0.3824 -0.3206
 6296TIP3    H143083   2.237   6.552   1.104  1.0827  0.6526 -1.0259
 6296TIP3    H243084   2.128   6.590   1.006  0.0904  0.1046 -0.1489
 6297TIP3   OH243085   5.188   0.679   1.566 -0.6235 -0.0633  0.4018
 6297TIP3    H143086   5.270   0.722   1.542 -1.3557  0.7798 -0.7381
 6297TIP3    H243087   5.158   0.725   1.645 -0.3857  0.1582  0.3618
 6298TIP3   OH243088   0.611   6.538   1.950 -0.6158 -0.3197 -0.7110
 6298TIP3    H143089   0.620   6.447   1.923  0.0767 -0.1959 -0.9085
 6298TIP3    H243090   0.689   6.556   2.003 -1.0670 -0.0311 -0.1307
 6299TIP3   OH243091   4.171   2.466   1.317 -0.3449 -0.0899 -0.3095
 6299TIP3    H143092   4.132   2.493   1.401  0.3548  0.1196 -0.0460
 6299TIP3    H243093   4.240   2.530   1.301  1.9773 -2.1632  0.7788
 6300TIP3   OH243094   3.274   3.779   1.783  0.2676  0.8056  0.2952
 6300TIP3    H143095   3.268   3.791   1.878  1.9132  1.0550  0.4065
 6300TIP3    H243096   3.289   3.685   1.772 -1.2287  0.5561  0.1691
 6301TIP3   OH243097   1.683   0.222   3.502  0.8802 -0.3782  0.2390
 6301TIP3    H143098   1.657   0.250   3.414  1.3569  0.2363  0.2862
 6301TIP3    H243099   1.662   0.296   3.558  0.3423 -0.8646  0.6904
 6302TIP3   OH243100   5.261   3.419   1.779 -0.5599  0.1087  0.2122
 6302TIP3    H143101   5.197   3.363   1.735 -1.2790  0.9492  0.1478
 6302TIP3    H243102   5.223   3.507   1.774  1.2835  0.9073 -1.1528
 6303TIP3   OH243103   3.243   2.816   3.865  0.3387 -0.3046  0.2191
 6303TIP3    H143104   3.190   2.885   3.905 -0.9395 -0.1458 -1.5996
 6303TIP3    H243105   3.181   2.743   3.852 -0.3724  0.7940 -4.3730
 6304TIP3   OH243106   0.551   4.647   4.661 -0.0803 -0.4156 -0.2299
 6304TIP3    H143107   0.575   4.614   4.574 -1.4936 -0.3513 -0.6782
 6304TIP3    H243108   0.588   4.735   4.664  0.5762 -0.6769 -0.4934
 6305TIP3   OH243109   0.902   1.304   1.163  0.2782  0.2571  0.5815
 6305TIP3    H143110   0.834   1.351   1.114  2.0707 -0.3027 -2.7139
 6305TIP3    H243111   0.966   1.371   1.185  1.5087 -0.0591 -1.7233
 6306TIP3   OH243112   6.561   3.189   1.787  0.2481 -0.4102 -0.0600
 6306TIP3    H143113   6.616   3.175   1.710 -0.6492 -3.4632 -0.2904
 6306TIP3    H243114   6.475   3.157   1.762 -1.1876  2.2758  0.9949
 6307TIP3   OH243115   6.234   5.680   0.470  0.5528  0.0747  0.8387
 6307TIP3    H143116   6.183   5.603   0.496  2.2342 -2.0546 -1.6586
 6307TIP3    H243117   6.294   5.648   0.403  1.0138  3.7020 -0.7247
 6308TIP3   OH243118   0.290   2.153   2.737 -0.2665 -0.0269 -0.1488
 6308TIP3    H143119   0.199   2.141   2.765 -0.4665  0.2458 -0.6897
 6308TIP3    H243120   0.338   2.164   2.819 -0.8936  1.0573  0.0873
 6309TIP3   OH243121   1.911   1.763   2.025  0.5229 -0.2366  0.0112
 6309TIP3    H143122   1.980   1.696   2.023  1.5726  0.4115  4.7147
 6309TIP3    H243123   1.831   1.714   2.044  0.9671 -0.3817  1.5881
 6310TIP3   OH243124   4.648   5.467   2.812  1.0261  0.4550 -0.0680
 6310TIP3    H143125   4.694   5.512   2.741 -0.1128 -0.3491 -1.3573
 6310TIP3    H243126   4.705   5.393   2.834  1.5767  0.9378  0.1489
 6311TIP3   OH243127   0.684   6.833   1.227  0.1069  0.3800  0.3844
 6311TIP3    H143128   0.655   6.924   1.225 -1.0336  0.0200 -0.4797
 6311TIP3    H243129   0.734   6.822   1.146  1.1624  0.4946  0.9906
 6312TIP3   OH243130   1.663   1.645   2.017  0.4303 -0.1208 -0.2412
 6312TIP3    H143131   1.701   1.587   1.950  1.0623 -0.8408  0.7199
 6312TIP3    H243132   1.616   1.586   2.075 -0.7877  0.5874 -0.4612
 6313TIP3   OH243133   0.022   4.216   1.656  0.2695 -0.0016 -0.1266
 6313TIP3    H143134   0.116   4.199   1.656  0.7206  2.1219 -1.6441
 6313TIP3    H243135   0.015   4.310   1.644 -2.0718 -0.1821 -0.6188
 6314TIP3   OH243136   1.050   3.083   2.489  0.2524 -0.3299  0.7131
 6314TIP3    H143137   1.027   2.996   2.456 -0.0825 -0.5859  1.5980
 6314TIP3    H243138   1.083   3.068   2.577 -0.5941  0.5198  1.1946
 6315TIP3   OH243139   5.012   2.781   2.821 -0.5482 -0.0195  0.0758
 6315TIP3    H143140   4.921   2.809   2.808 -0.6778 -1.0771 -1.5626
 6315TIP3    H243141   5.023   2.707   2.761  1.6289  0.5988 -0.3582
 6316TIP3   OH243142   0.633   2.611   1.257  0.3148 -0.3794 -0.4264
 6316TIP3    H143143   0.704   2.547   1.248  1.6335  1.2000 -2.1407
 6316TIP3    H243144   0.666   2.674   1.320 -1.4447 -1.8490  2.1407
 6317TIP3   OH243145   1.894   1.454   2.260  1.0077  0.3359 -0.0269
 6317TIP3    H143146   1.935   1.444   2.174  1.2138 -1.4203  0.2451
 6317TIP3    H243147   1.891   1.549   2.274  0.4039  0.6975 -2.2299
 6318TIP3   OH243148   5.746   0.858   0.909  0.3031 -0.2127 -0.4589
 6318TIP3    H143149   5.790   0.773   0.901 -0.6691 -0.9496  1.2641
 6318TIP3    H243150   5.660   0.844   0.868  0.4378  0.1912 -0.8789
 6319TIP3   OH243151   2.495   3.729   2.240 -0.1551  0.8300 -0.3962
 6319TIP3    H143152   2.467   3.776   2.318  1.5110 -0.3571  1.0105
 6319TIP3    H243153   2.466   3.639   2.254  1.3794  0.3009 -0.4283
 6320TIP3   OH243154   4.102   2.320   3.737  0.0244 -0.2275 -0.2118
 6320TIP3    H143155   4.078   2.337   3.828 -0.2646 -2.3510  0.1634
 6320TIP3    H243156   4.100   2.225   3.729 -2.4588 -0.0812 -3.1086
 6321TIP3   OH243157   4.005   2.745   2.204 -0.3033  0.0706 -0.1520
 6321TIP3    H143158   4.021   2.835   2.173 -3.4406  0.6636 -0.3766
 6321TIP3    H243159   4.031   2.747   2.297  0.7000  0.8773 -0.4320
 6322TIP3   OH243160   0.814   5.554   3.163 -0.1245 -0.0721 -0.8056
 6322TIP3    H143161   0.730   5.545   3.208 -0.5456  0.7253 -1.4033
 6322TIP3    H243162   0.866   5.479   3.193  0.1429  1.1632  2.1370
 6323TIP3   OH243163   4.650   3.963   1.963 -0.0937 -0.2230 -0.3430
 6323TIP3    H143164   4.589   3.969   2.036  1.2622 -0.5951  0.8651
 6323TIP3    H243165   4.653   3.870   1.940  1.1949 -0.4717  0.6925
 6324TIP3   OH243166   3.167   0.903   2.474  0.5877 -0.0380  0.0543
 6324TIP3    H143167   3.244   0.890   2.530  0.3539 -0.7477  0.2125
 6324TIP3    H243168   3.201   0.900   2.385  1.2090  2.5364  0.1199
 6325TIP3   OH243169   6.289   4.159   1.907 -0.4737  0.1394  0.3749
 6325TIP3    H143170   6.224   4.163   1.836  0.1441  0.3840 -0.1842
 6325TIP3    H243171   6.356   4.099   1.875  1.0758  2.1452 -0.3376
 6326TIP3   OH243172   6.544   6.259   2.284  0.6359  0.2123  0.1486
 6326TIP3    H143173   6.631   6.220   2.285  1.3554  1.7586  0.0972
 6326TIP3    H243174   6.559   6.351   2.263 -0.9149  0.7553  1.2528
 6327TIP3   OH243175   1.055   0.549   4.030  0.3424 -0.3374 -0.3198
 6327TIP3    H143176   1.028   0.473   3.980 -0.2912 -1.5394  1.7176
 6327TIP3    H243177   1.018   0.535   4.117 -0.9433  2.9482 -0.1768
 6328TIP3   OH243178   1.354   1.079   1.878 -0.4306 -0.0189  0.3253
 6328TIP3    H143179   1.343   1.174   1.884 -0.5144 -0.0555  0.8566
 6328TIP3    H243180   1.310   1.055   1.797 -0.4022  0.4000  0.1835
 6329TIP3   OH243181   6.185   6.661   2.794  0.3553  0.4610 -0.1616
 6329TIP3    H143182   6.192   6.755   2.811  1.6385  0.4992 -0.8205
 6329TIP3    H243183   6.101   6.652   2.749  1.1202  1.5830 -1.9040
 6330TIP3   OH243184   2.941   4.764   3.096 -0.1767  0.7009  0.4091
 6330TIP3    H143185   3.018   4.728   3.139 -0.8345 -0.7102  0.4585
 6330TIP3    H243186   2.970   4.787   3.008  0.7156  1.8420  0.9812
 6331TIP3   OH243187   5.840   4.563   2.982 -0.0689  0.3996  0.1743
 6331TIP3    H143188   5.819   4.611   3.062 -1.4906 -0.5632  0.3946
 6331TIP3    H243189   5.936   4.558   2.982 -0.0492  0.1516  1.9707
 6332TIP3   OH243190   0.798   0.331   2.086 -0.3165 -0.1588 -0.4920
 6332TIP3    H143191   0.831   0.264   2.025  1.0561 -0.0470  0.0972
 6332TIP3    H243192   0.837   0.308   2.170  0.2980  1.4691 -0.3109
 6333TIP3   OH243193   2.928   0.969   0.905 -0.0616  0.4136 -0.2060
 6333TIP3    H143194   2.835   0.951   0.903  0.2308 -1.1943 -0.3928
 6333TIP3    H243195   2.946   1.015   0.823 -0.7303  1.0386 -0.0103
 6334TIP3   OH243196   5.742   3.820   0.690  0.0634 -0.0703  0.0255
 6334TIP3    H143197   5.835   3.819   0.712  0.1546 -0.3734 -0.3716
 6334TIP3    H243198   5.737   3.779   0.604 -0.3506  0.6491 -0.3057
 6335TIP3   OH243199   6.330   6.786   3.988  0.0756  0.0490  1.1173
 6335TIP3    H143200   6.336   6.875   3.953  0.2067  0.2279  1.5820
 6335TIP3    H243201   6.402   6.738   3.947  1.7660  0.8925  2.9605
 6336TIP3   OH243202   2.125   4.315   1.272 -0.3317  0.2423  0.2049
 6336TIP3    H143203   2.081   4.358   1.198  1.1537 -0.3575 -1.0493
 6336TIP3    H243204   2.192   4.378   1.300  0.5511 -0.4249 -0.3765
 6337TIP3   OH243205   6.711   6.030   2.479  0.0927 -0.1273  0.3915
 6337TIP3    H143206   6.616   6.027   2.464  0.1229 -0.4775  0.2457
 6337TIP3    H243207   6.743   5.948   2.440  0.8298  1.2909 -2.2317
 6338TIP3   OH243208   0.448   2.042   2.130 -0.3597 -0.5549  0.1511
 6338TIP3    H143209   0.419   2.118   2.081  0.0587 -1.6359 -1.8907
 6338TIP3    H243210   0.385   1.973   2.108 -0.3613 -0.9977  1.4422
 6339TIP3   OH243211   4.121   2.799   1.264 -0.0604  0.1746  0.0325
 6339TIP3    H143212   4.070   2.858   1.319  0.9480  0.9453  0.1560
 6339TIP3    H243213   4.140   2.724   1.321  0.6576  0.7975  0.6196
 6340TIP3   OH243214   0.585   2.079   2.596 -0.4100 -0.1225  0.7356
 6340TIP3    H143215   0.593   1.992   2.635  2.3604 -0.7391 -0.9668
 6340TIP3    H243216   0.512   2.072   2.535 -0.2440 -1.2559  0.6494
 6341TIP3   OH243217   5.574   5.667   1.305  0.2139 -0.2601 -0.5893
 6341TIP3    H143218   5.499   5.612   1.283  0.1037 -0.5391  0.4310
 6341TIP3    H243219   5.651   5.612   1.288  0.1065 -0.7296  0.3756
 6342TIP3   OH243220   1.593   1.027   1.624  0.5574  0.0821  0.2531
 6342TIP3    H143221   1.519   1.087   1.630  0.5660  0.1326 -0.1374
 6342TIP3    H243222   1.670   1.083   1.635  0.5679  0.1558 -0.1748
 6343TIP3   OH243223   2.210   5.282   0.753  0.2004  0.0241  0.4602
 6343TIP3    H143224   2.266   5.303   0.678  0.4669  0.5447  0.8009
 6343TIP3    H243225   2.151   5.357   0.760 -1.2882 -0.9995 -0.5722
 6344TIP3   OH243226   2.676   4.639   2.517 -0.1710  0.6022  0.0233
 6344TIP3    H143227   2.688   4.709   2.581  0.9230  1.7505 -1.3674
 6344TIP3    H243228   2.600   4.667   2.465 -1.3990 -0.5910  1.0965
 6345TIP3   OH243229   6.727   6.098   2.058  0.0853  0.5729  0.3903
 6345TIP3    H143230   6.657   6.038   2.032 -0.4414  1.7863 -1.1550
 6345TIP3    H243231   6.710   6.178   2.007  3.7622  0.2221 -1.7237
 6346TIP3   OH243232   2.226   6.286   2.371  0.4176 -0.2615 -0.0478
 6346TIP3    H143233   2.301   6.268   2.314  0.3192  1.6511 -0.8847
 6346TIP3    H243234   2.165   6.334   2.314 -0.0462  0.9941  1.4298
 6347TIP3   OH243235   0.025   6.430   2.933 -0.6655 -0.2123 -0.0701
 6347TIP3    H143236  -0.043   6.428   3.000 -0.4410  0.0541  0.1671
 6347TIP3    H243237  -0.008   6.492   2.868 -1.5454 -1.5158 -0.9292
 6348TIP3   OH243238   6.241   6.023   1.063 -0.1055  0.5497 -0.1834
 6348TIP3    H143239   6.265   6.060   0.978 -0.4101  0.8444 -0.1439
 6348TIP3    H243240   6.164   6.074   1.090  0.9097  1.5060  0.9969
 6349TIP3   OH243241   5.135   0.251   1.789  0.1543 -0.7087  0.0606
 6349TIP3    H143242   5.205   0.278   1.729  0.8165 -0.8697  0.7402
 6349TIP3    H243243   5.142   0.312   1.863 -0.1662 -0.9772  0.3148
 6350TIP3   OH243244   6.203   4.591   2.076  0.2681  0.1064 -0.1282
 6350TIP3    H143245   6.215   4.497   2.061  0.3062  0.2379 -0.9231
 6350TIP3    H243246   6.271   4.613   2.139  1.2116 -0.1139 -1.0394
 6351TIP3   OH243247   4.604   5.560   0.806  0.0985  0.2046 -0.7400
 6351TIP3    H143248   4.605   5.466   0.823 -1.1563  0.5214  1.4409
 6351TIP3    H243249   4.511   5.580   0.791  0.2291  1.2342 -0.2537
 6352TIP3   OH243250   5.722   0.397   2.801 -0.6037  0.2323  0.1959
 6352TIP3    H143251   5.708   0.303   2.798 -1.2071  0.3386 -0.3968
 6352TIP3    H243252   5.645   0.431   2.847 -1.0041  0.5538 -0.6949
 6353TIP3   OH243253   2.113   2.532   3.335  0.3165 -0.0814  0.0566
 6353TIP3    H143254   2.131   2.614   3.380  0.1892 -0.7629  1.4001
 6353TIP3    H243255   2.193   2.480   3.348  0.7996  0.1724 -1.6418
 6354TIP3   OH243256   4.000   0.210   3.464  0.1060 -0.0908  0.1950
 6354TIP3    H143257   3.965   0.233   3.550  0.2141 -1.0723  0.5123
 6354TIP3    H243258   3.945   0.138   3.434 -1.3856  1.6576 -1.5722
 6355TIP3   OH243259   2.256   2.958   2.663 -0.1353 -0.3836 -0.3710
 6355TIP3    H143260   2.285   3.001   2.583 -1.9047 -0.4769 -1.1073
 6355TIP3    H243261   2.262   2.864   2.643 -2.6396 -0.4304 -1.2711
 6356TIP3   OH243262   4.224   5.387   1.725 -0.0546  0.1327 -0.5571
 6356TIP3    H143263   4.229   5.314   1.663  0.3523  0.2425 -0.6591
 6356TIP3    H243264   4.304   5.437   1.709 -1.6848  2.2802 -2.5624
 6357TIP3   OH243265   0.442   3.363   0.706  0.1447  0.3418  0.3774
 6357TIP3    H143266   0.399   3.351   0.791  0.1434 -0.4791  0.2614
 6357TIP3    H243267   0.518   3.305   0.709 -0.3173 -0.3326 -0.5019
 6358TIP3   OH243268   6.383   4.594   3.413  0.0372 -0.0413  1.0496
 6358TIP3    H143269   6.471   4.581   3.379  0.4879 -0.6035  2.3493
 6358TIP3    H243270   6.390   4.672   3.468 -0.6081  0.6940  0.1201
 6359TIP3   OH243271   1.981   0.174   1.238 -0.7309 -0.2541 -0.5751
 6359TIP3    H143272   1.909   0.118   1.267 -0.2563 -0.7896 -0.4035
 6359TIP3    H243273   2.025   0.201   1.319  0.4629 -1.5708 -0.7377
 6360TIP3   OH243274   5.458   4.449   1.772  0.2439 -0.0535 -0.8868
 6360TIP3    H143275   5.416   4.507   1.707 -0.7495  0.5109  0.2228
 6360TIP3    H243276   5.399   4.375   1.779 -1.5644  1.4824  1.8676
 6361TIP3   OH243277   4.812   4.853   2.659 -0.2631 -0.7876  0.5241
 6361TIP3    H143278   4.794   4.768   2.620  0.9467 -0.4184 -0.8803
 6361TIP3    H243279   4.845   4.907   2.588  1.3860  0.1158  1.8970
 6362TIP3   OH243280   0.953   6.183   1.848 -0.6356  0.3773  0.2544
 6362TIP3    H143281   0.946   6.148   1.759 -1.3331 -1.2699  0.9193
 6362TIP3    H243282   1.038   6.226   1.850  0.4785 -1.6425 -0.5435
 6363TIP3   OH243283   3.158   1.978   2.391 -0.1377  0.0330  0.2496
 6363TIP3    H143284   3.221   1.946   2.326  0.3649  0.5939  0.4463
 6363TIP3    H243285   3.090   1.911   2.395  1.2169 -1.3335  1.1400
 6364TIP3   OH243286   6.074   4.520   0.664  0.0817 -0.2541 -0.5344
 6364TIP3    H143287   6.102   4.430   0.650  0.6133 -0.7446  2.7853
 6364TIP3    H243288   5.990   4.512   0.709  1.4678  0.6710  2.4749
 6365TIP3   OH243289   3.057   4.297   2.064  0.2747 -0.2625  0.9254
 6365TIP3    H143290   2.965   4.284   2.038  0.5743 -1.7120  0.4642
 6365TIP3    H243291   3.054   4.368   2.128 -1.4376 -1.5946  2.4475
 6366TIP3   OH243292   2.847   6.232   1.978  0.1933 -0.3126  0.0046
 6366TIP3    H143293   2.821   6.179   2.054 -0.2245  0.5534  0.4921
 6366TIP3    H243294   2.941   6.243   1.988  0.3599 -1.3132 -0.3418
 6367TIP3   OH243295   4.647   0.413   3.051  0.5708  0.0309  0.2089
 6367TIP3    H143296   4.577   0.461   3.006 -0.6867 -0.6344  1.3861
 6367TIP3    H243297   4.686   0.478   3.110  0.4134  0.2054  0.1203
 6368TIP3   OH243298   6.517   3.834   2.246 -0.1949 -0.3677 -0.1284
 6368TIP3    H143299   6.467   3.915   2.237 -2.1711 -1.5201 -0.1345
 6368TIP3    H243300   6.537   3.807   2.156  0.2644 -0.0353 -0.1327
 6369TIP3   OH243301   2.591   6.755   2.160  0.0388  0.1031  0.6387
 6369TIP3    H143302   2.544   6.780   2.239 -1.1388 -0.8829  0.2852
 6369TIP3    H243303   2.670   6.710   2.191 -0.2228  0.0560  1.2354
 6370TIP3   OH243304   1.721   2.989   4.164  0.2410 -0.1665  0.5070
 6370TIP3    H143305   1.682   2.945   4.238  0.7589  0.9549  1.4876
 6370TIP3    H243306   1.664   3.065   4.148 -0.3205 -0.8248 -0.7773
 6371TIP3   OH243307   5.557   3.428   2.480 -0.2455 -0.4950  0.3495
 6371TIP3    H143308   5.569   3.334   2.465 -2.2196 -0.3019 -3.9282
 6371TIP3    H243309   5.599   3.470   2.404 -0.4452  2.0576  1.5315
 6372TIP3   OH243310   0.292   4.041   2.255 -0.3254 -0.5031  0.0269
 6372TIP3    H143311   0.255   4.054   2.168  0.2757  1.1103 -0.0189
 6372TIP3    H243312   0.360   4.108   2.262 -1.4731  0.5420  2.3541
 6373TIP3   OH243313   3.166   6.686   3.328 -0.1214  0.2968 -0.3302
 6373TIP3    H143314   3.179   6.754   3.394  0.6963  0.6662 -0.8569
 6373TIP3    H243315   3.234   6.702   3.263 -1.3588  0.4123 -1.6643
 6374TIP3   OH243316   1.335   2.978   0.913  0.1483  0.2216  0.2607
 6374TIP3    H143317   1.247   2.951   0.939 -0.3245  2.5882  1.4640
 6374TIP3    H243318   1.384   2.984   0.995  0.3728  2.2215  0.0438
 6375TIP3   OH243319   1.754   3.708   2.335 -0.1336 -0.5181  0.7434
 6375TIP3    H143320   1.762   3.794   2.376 -0.6951 -1.3001  2.6139
 6375TIP3    H243321   1.666   3.678   2.360 -0.7358 -0.8592 -1.5210
 6376TIP3   OH243322   3.604   0.034   2.091  0.0791 -0.3819  0.5397
 6376TIP3    H143323   3.601  -0.046   2.143  1.0961 -0.7254  0.0978
 6376TIP3    H243324   3.667   0.016   2.022  0.3435  0.8034  0.4368
 6377TIP3   OH243325   2.050   5.691   3.248  0.2736 -0.4217  0.2420
 6377TIP3    H143326   2.013   5.718   3.164 -0.4292 -0.0617  0.6568
 6377TIP3    H243327   1.974   5.663   3.300  0.5860  0.2183  1.0708
 6378TIP3   OH243328   1.036   0.250   2.647 -0.1643 -0.8939 -0.0524
 6378TIP3    H143329   1.016   0.343   2.657 -0.5041 -1.0065  0.3689
 6378TIP3    H243330   1.096   0.245   2.573  0.8344 -0.2130  0.6924
 6379TIP3   OH243331   5.546   0.565   3.986 -0.4617  0.0774  0.0612
 6379TIP3    H143332   5.630   0.603   3.962 -0.2848 -1.1501 -1.3960
 6379TIP3    H243333   5.566   0.476   4.015 -1.2396 -0.3071 -0.5068
 6380TIP3   OH243334   0.708   4.029   1.049  0.5736 -0.3500 -0.3121
 6380TIP3    H143335   0.690   4.009   0.957 -1.2287  0.8178 -0.2732
 6380TIP3    H243336   0.702   4.125   1.054  2.9219 -0.1650  0.6244
 6381TIP3   OH243337   5.575   3.134   2.466  0.2179  0.1663  0.2686
 6381TIP3    H143338   5.577   3.039   2.475 -1.3412  0.1080  0.2443
 6381TIP3    H243339   5.570   3.149   2.372  0.3668  0.2699  0.2771
 6382TIP3   OH243340   3.749   3.758   1.816 -0.6948  0.2647  0.1268
 6382TIP3    H143341   3.791   3.843   1.831 -1.9336  0.6590  1.6902
 6382TIP3    H243342   3.771   3.707   1.894 -0.7304 -0.5257 -0.3733
 6383TIP3   OH243343   5.979   6.260   0.589  0.1187 -0.2224  0.4433
 6383TIP3    H143344   5.890   6.289   0.608 -0.0561  0.9608 -1.7456
 6383TIP3    H243345   6.030   6.341   0.585  0.3308 -0.3956 -2.5953
 6384TIP3   OH243346   2.615   0.317   3.562  0.2286 -0.0306  0.1803
 6384TIP3    H143347   2.585   0.404   3.589 -2.0392 -0.1454 -1.6348
 6384TIP3    H243348   2.609   0.264   3.642 -2.2166  0.5847  0.4911
 6385TIP3   OH243349   6.666   2.082   4.433  0.3729 -0.4271  0.1327
 6385TIP3    H143350   6.741   2.076   4.375  0.6843  1.7972  0.2403
 6385TIP3    H243351   6.621   1.998   4.422  2.8089 -1.8276  0.0517
 6386TIP3   OH243352   1.206   5.202   0.788 -0.3117 -0.3842 -0.1322
 6386TIP3    H143353   1.122   5.246   0.794 -0.4095 -0.3434 -1.5658
 6386TIP3    H243354   1.214   5.176   0.696  0.7085 -1.4465  0.2294
 6387TIP3   OH243355   4.962   2.582   1.573  0.3029 -0.3249 -0.3075
 6387TIP3    H143356   5.032   2.639   1.605  0.2420 -0.3044 -0.2080
 6387TIP3    H243357   4.882   2.635   1.580 -0.1618 -1.2055  2.1478
 6388TIP3   OH243358   3.266   5.749   2.444 -0.0474 -0.0708 -0.8344
 6388TIP3    H143359   3.355   5.739   2.410  0.3896 -0.8075  0.4402
 6388TIP3    H243360   3.269   5.828   2.498  0.6072 -1.5170  1.3815
 6389TIP3   OH243361   6.387   0.960   0.921  0.2737  0.0696 -0.2924
 6389TIP3    H143362   6.394   1.056   0.921 -0.0843  0.1328  1.2882
 6389TIP3    H243363   6.295   0.944   0.900 -0.8123  0.3253  3.4754
 6390TIP3   OH243364   1.196   2.110   3.235  0.3113 -0.2354  0.1344
 6390TIP3    H143365   1.247   2.187   3.210 -2.3262  1.6675  0.1313
 6390TIP3    H243366   1.108   2.144   3.251 -1.2222 -3.4262 -0.7067
 6391TIP3   OH243367   5.721   6.790   1.526 -0.1518 -0.6891  0.0774
 6391TIP3    H143368   5.799   6.763   1.576  0.2098 -2.1243 -1.1845
 6391TIP3    H243369   5.648   6.751   1.573  0.2588 -2.8137 -0.9361
 6392TIP3   OH243370   1.038   2.086   1.762 -0.2185  0.0763 -0.9609
 6392TIP3    H143371   1.110   2.024   1.765 -0.7337 -0.5089 -0.3132
 6392TIP3    H243372   0.961   2.034   1.783 -0.4319  1.2338  1.5974
 6393TIP3   OH243373   2.333   5.554   3.482  0.1851  0.2031  0.4659
 6393TIP3    H143374   2.297   5.466   3.479 -0.6951  0.5645 -0.4931
 6393TIP3    H243375   2.281   5.600   3.548 -0.2995  0.3783 -0.0290
 6394TIP3   OH243376   1.967   3.677   1.707  0.1872 -0.0423  0.4843
 6394TIP3    H143377   1.972   3.583   1.722  0.0887 -0.2178 -0.4984
 6394TIP3    H243378   2.051   3.699   1.666  1.0869  0.6861  2.5861
 6395TIP3   OH243379   0.486   1.498   1.134 -0.0786 -0.3141 -0.9097
 6395TIP3    H143380   0.578   1.472   1.133 -0.3063 -1.9091  2.4556
 6395TIP3    H243381   0.442   1.433   1.080  0.3810 -2.2151  0.8509
 6396TIP3   OH243382   5.002   0.718   9.853  0.1530  0.0787  0.4326
 6396TIP3    H143383   4.918   0.760   9.869  0.6617  1.0160  0.7015
 6396TIP3    H243384   5.008   0.650   9.920 -1.5940 -1.9188 -1.2528
 6397TIP3   OH243385   6.248   4.227   1.316 -0.5278 -0.1055  0.2362
 6397TIP3    H143386   6.268   4.154   1.258 -1.0124 -0.0739  0.0267
 6397TIP3    H243387   6.153   4.228   1.322 -0.5790  1.0157 -0.4198
 6398TIP3   OH243388   6.164   4.706   1.638  0.0725 -0.0013  0.1331
 6398TIP3    H143389   6.219   4.635   1.671 -1.0246 -0.6182  0.7107
 6398TIP3    H243390   6.089   4.661   1.599 -0.9134  0.8436  1.0105
 6399TIP3   OH243391   6.290   6.552   2.516 -0.6580 -0.1248 -0.2206
 6399TIP3    H143392   6.220   6.518   2.572  0.1479 -1.6615 -0.0937
 6399TIP3    H243393   6.252   6.552   2.428 -0.4371 -2.2974 -0.3851
 6400TIP3   OH243394   6.677   1.844   3.850  0.0892 -0.3350 -0.0678
 6400TIP3    H143395   6.714   1.853   3.937  2.4373 -0.2464 -1.0024
 6400TIP3    H243396   6.639   1.755   3.849  1.5904 -1.0094  0.5224
 6401TIP3   OH243397   0.508   0.234   1.250  0.4245  0.5218  0.4204
 6401TIP3    H143398   0.422   0.208   1.281  0.2229 -0.2521 -0.6933
 6401TIP3    H243399   0.511   0.329   1.261 -0.7035  0.5984  0.1793
 6402TIP3   OH243400   5.474   0.640   1.129 -0.5387 -0.0086 -0.0038
 6402TIP3    H143401   5.441   0.708   1.070 -0.3858  0.6591  0.6742
 6402TIP3    H243402   5.427   0.561   1.102 -1.7171  0.6418  0.0607
 6403TIP3   OH243403   0.683   1.232   4.557 -0.4533 -0.3990  0.1619
 6403TIP3    H143404   0.664   1.169   4.625 -2.8556  0.6342  0.5736
 6403TIP3    H243405   0.616   1.300   4.567  1.6008  1.9312 -0.6261
 6404TIP3   OH243406   3.379   3.368   0.513 -0.0791 -0.2267 -0.8790
 6404TIP3    H143407   3.461   3.417   0.515  0.7067 -1.4322  1.8119
 6404TIP3    H243408   3.404   3.279   0.487  0.1224 -1.3876  2.7473
 6405TIP3   OH243409   6.629   5.151   1.695 -0.6569  0.0809  0.6210
 6405TIP3    H143410   6.589   5.143   1.608 -2.8177  0.0358  1.5532
 6405TIP3    H243411   6.677   5.234   1.692 -0.3272 -0.1366 -0.7393
 6406TIP3   OH243412   3.975   5.268   3.017 -0.6720 -0.1514 -0.1212
 6406TIP3    H143413   4.047   5.223   2.971 -0.0619  1.5129 -0.8811
 6406TIP3    H243414   3.903   5.266   2.955 -0.2143  1.0696 -0.7232
 6407TIP3   OH243415   5.407   2.642   0.696 -0.2994 -0.2188 -0.0642
 6407TIP3    H143416   5.351   2.660   0.772  0.2538  0.5784  0.1607
 6407TIP3    H243417   5.427   2.548   0.703 -0.0415 -0.1048  0.9309
 6408TIP3   OH243418   4.101   2.560   2.808 -0.1952 -0.2771 -0.4988
 6408TIP3    H143419   4.056   2.475   2.810  0.6337 -0.7306  1.1029
 6408TIP3    H243420   4.186   2.542   2.769 -0.2978 -0.0170 -0.8485
 6409TIP3   OH243421   5.217   3.242   2.804  1.0593 -0.0530 -0.1485
 6409TIP3    H143422   5.152   3.177   2.833  0.5440 -0.7537 -2.6874
 6409TIP3    H243423   5.295   3.222   2.856 -0.4769  0.4570  2.5974
 6410TIP3   OH243424   3.604   2.272   2.543 -0.1349  0.6196  0.1703
 6410TIP3    H143425   3.547   2.336   2.500  1.2303  1.6141 -0.2455
 6410TIP3    H243426   3.678   2.324   2.575  0.5530 -0.6190  0.6719
 6411TIP3   OH243427   0.104   3.791   2.632  0.2217 -0.2989  0.4736
 6411TIP3    H143428   0.117   3.706   2.589 -1.8218 -0.1903 -0.4995
 6411TIP3    H243429   0.146   3.854   2.574 -0.4446 -0.4080 -0.1462
 6412TIP3   OH243430   3.520   4.194   2.281 -0.2633 -0.3464 -0.6105
 6412TIP3    H143431   3.573   4.220   2.205  2.0429 -1.7780  0.4040
 6412TIP3    H243432   3.503   4.101   2.267 -2.0363 -0.0458 -0.5948
 6413TIP3   OH243433   2.818   3.467   2.119 -0.2827  0.0779  0.5080
 6413TIP3    H143434   2.730   3.432   2.132 -0.3677  0.8746  2.3139
 6413TIP3    H243435   2.876   3.392   2.135 -0.5880 -0.1470  0.5854
 6414TIP3   OH243436   0.755   5.779   0.494 -0.2611 -0.2193  0.3714
 6414TIP3    H143437   0.711   5.861   0.471 -1.1688 -0.5324  0.9524
 6414TIP3    H243438   0.848   5.801   0.493 -0.4911  0.7946  0.4234
 6415TIP3   OH243439   1.705   1.246   3.848 -0.6591 -0.6818  0.2185
 6415TIP3    H143440   1.615   1.241   3.816 -0.6356  0.7716 -0.1587
 6415TIP3    H243441   1.698   1.234   3.942 -1.0813 -1.9134  0.0474
 6416TIP3   OH243442   4.901   2.982   1.090 -0.1576  0.5108 -0.2882
 6416TIP3    H143443   4.946   2.905   1.056 -0.0899  0.5730 -0.3389
 6416TIP3    H243444   4.896   2.967   1.184  1.3147  1.1945 -0.0756
 6417TIP3   OH243445   3.337   1.609   2.239  0.4498  0.0489 -0.3279
 6417TIP3    H143446   3.314   1.527   2.283  0.5976  0.2036  0.0372
 6417TIP3    H243447   3.385   1.581   2.161 -1.4133 -0.3267 -1.4293
 6418TIP3   OH243448   5.233   2.432   2.129 -0.5547 -0.3258 -0.4573
 6418TIP3    H143449   5.153   2.445   2.179 -0.2173 -0.2061  0.0569
 6418TIP3    H243450   5.294   2.392   2.191  0.1953  0.7441 -0.4764
 6419TIP3   OH243451   3.036   1.673   3.408 -0.7600 -0.1138 -0.0137
 6419TIP3    H143452   3.073   1.752   3.447 -1.2466  0.2682 -0.3137
 6419TIP3    H243453   2.965   1.648   3.467  0.5534 -1.3960  1.0838
 6420TIP3   OH243454   4.902   4.130   1.578 -0.2232  0.1408 -0.4480
 6420TIP3    H143455   4.931   4.140   1.487 -2.8837 -1.1233 -1.5271
 6420TIP3    H243456   4.917   4.038   1.598  0.8333  0.5193  0.6307
 6421TIP3   OH243457   2.674   4.157   3.286  0.0935 -1.1279 -0.2861
 6421TIP3    H143458   2.707   4.111   3.209  0.8049 -0.9863 -0.0727
 6421TIP3    H243459   2.731   4.128   3.358  0.1128 -0.4437 -0.0174
 6422TIP3   OH243460   5.000   1.542   3.146  0.1555 -0.2171 -0.1630
 6422TIP3    H143461   4.980   1.540   3.240 -0.2281 -3.6691 -0.1813
 6422TIP3    H243462   4.926   1.588   3.107 -0.7776 -0.6230  1.0661
 6423TIP3   OH243463   0.072   3.143   2.137 -0.0053 -0.8001 -0.5996
 6423TIP3    H143464   0.162   3.133   2.106 -0.0687  0.0024 -1.0480
 6423TIP3    H243465   0.077   3.213   2.202  0.2051 -2.7101  1.5731
 6424TIP3   OH243466   5.280   2.498   2.478  0.0125  0.2051 -0.1723
 6424TIP3    H143467   5.236   2.574   2.438 -1.0117 -0.6102 -0.6562
 6424TIP3    H243468   5.325   2.533   2.554  0.1164  1.4194 -0.7710
 6425TIP3   OH243469   5.256   2.584   1.379  0.1073  0.6871 -0.2472
 6425TIP3    H143470   5.330   2.626   1.335  1.7093 -0.9306  0.7218
 6425TIP3    H243471   5.232   2.644   1.450  0.1534  1.4569 -0.8735
 6426TIP3   OH243472   2.600   1.641   2.113 -0.5525  0.2867  0.4411
 6426TIP3    H143473   2.583   1.693   2.035 -0.2278 -1.0973 -0.5814
 6426TIP3    H243474   2.613   1.706   2.183 -0.4595  1.5554 -0.7231
 6427TIP3   OH243475   3.619   6.506   2.710 -0.3502 -0.0137  0.1672
 6427TIP3    H143476   3.609   6.595   2.676 -0.8007 -0.9972 -2.5204
 6427TIP3    H243477   3.563   6.504   2.788 -1.4535  1.6735 -0.5101
 6428TIP3   OH243478   3.418   1.369   1.465 -0.1352  0.5780  0.2985
 6428TIP3    H143479   3.485   1.310   1.500  0.8260  2.2864  1.5524
 6428TIP3    H243480   3.466   1.428   1.407 -1.1111  0.0425 -1.1173
 6429TIP3   OH243481   0.863   0.779   2.633 -0.1765  0.3566  0.3832
 6429TIP3    H143482   0.925   0.707   2.627 -0.1948  0.3672  0.0607
 6429TIP3    H243483   0.823   0.785   2.546 -0.3176  0.6263  0.4625
 6430TIP3   OH243484   3.829   3.633   2.295 -0.4094 -0.7298  0.0060
 6430TIP3    H143485   3.773   3.597   2.365  0.2475  0.2850  1.0789
 6430TIP3    H243486   3.918   3.619   2.326 -0.1181  0.2003 -0.3840
 6431TIP3   OH243487   5.126   4.857   0.709  0.0146 -0.6674 -0.0206
 6431TIP3    H143488   5.130   4.762   0.696 -1.6002 -0.9735  1.3641
 6431TIP3    H243489   5.042   4.872   0.752  0.6388  1.3035  0.6278
 6432TIP3   OH243490   3.039   2.034   0.566  0.0158 -0.2486  0.0869
 6432TIP3    H143491   3.046   2.107   0.627  1.2645 -0.4943  0.2676
 6432TIP3    H243492   3.090   2.061   0.490 -1.8284  0.2088 -1.0419
 6433TIP3   OH243493   6.641   4.322   2.461  0.3675  0.0951 -0.6134
 6433TIP3    H143494   6.563   4.289   2.505  0.3099  1.5023  0.4311
 6433TIP3    H243495   6.706   4.253   2.472 -0.1256 -0.2391  0.3232
 6434TIP3   OH243496   2.886   2.557   1.936 -0.4259 -0.5380  0.0094
 6434TIP3    H143497   2.870   2.638   1.889 -1.7425 -0.8219 -0.0828
 6434TIP3    H243498   2.829   2.493   1.893  0.1690 -1.3746  0.4353
 6435TIP3   OH243499   3.943   6.144   0.943  0.4430 -0.0552  0.3233
 6435TIP3    H143500   3.854   6.179   0.944  1.3082  2.3339  1.5041
 6435TIP3    H243501   3.945   6.084   0.868 -0.9153  3.2469 -2.6070
 6436TIP3   OH243502   0.501   5.300   3.198  0.0908  0.1167 -0.1836
 6436TIP3    H143503   0.556   5.296   3.119 -0.2747  0.0250 -0.4349
 6436TIP3    H243504   0.521   5.386   3.236  1.9581 -0.7230  0.8676
 6437TIP3   OH243505   1.478   5.601   2.776 -0.4685  0.2160  0.2639
 6437TIP3    H143506   1.516   5.516   2.796  0.2373  0.0756 -1.4827
 6437TIP3    H243507   1.422   5.584   2.699 -0.6770  1.2439  0.1780
 6438TIP3   OH243508   0.065   6.120   2.911  0.0539 -0.3439 -0.1809
 6438TIP3    H143509   0.003   6.192   2.921 -0.9560 -1.2761  0.5214
 6438TIP3    H243510   0.077   6.112   2.817 -1.0451 -0.2482 -0.3500
 6439TIP3   OH243511   6.234   2.306   4.306  0.1407 -0.1125 -0.0669
 6439TIP3    H143512   6.176   2.231   4.317  0.1588 -0.1883 -0.4812
 6439TIP3    H243513   6.321   2.268   4.293  0.2005 -0.0109  0.0259
 6440TIP3   OH243514   4.444   4.820   2.424 -0.0331 -0.3977  0.3053
 6440TIP3    H143515   4.530   4.804   2.386 -0.1117  0.3023 -0.1802
 6440TIP3    H243516   4.435   4.751   2.491  0.4522 -1.1260 -0.3531
 6441TIP3   OH243517   2.207   2.537   3.695  0.1880 -0.0660  0.2604
 6441TIP3    H143518   2.229   2.630   3.707  0.6225  0.0777 -1.4035
 6441TIP3    H243519   2.280   2.501   3.645 -0.6514 -0.9553 -0.3637
 6442TIP3   OH243520   0.725   0.722   0.686 -0.0094 -0.1716 -0.2291
 6442TIP3    H143521   0.679   0.798   0.651  0.0484 -0.5459 -1.1414
 6442TIP3    H243522   0.761   0.753   0.770  0.3995  0.9459 -0.7892
 6443TIP3   OH243523   1.456   2.052   2.414 -0.7421  0.4668  0.1655
 6443TIP3    H143524   1.389   2.055   2.346  0.6208 -2.0889 -1.4745
 6443TIP3    H243525   1.517   2.121   2.390 -0.1004 -0.6206 -1.5181
 6444TIP3   OH243526   6.698   4.755   0.976  0.0389  0.4893 -0.1790
 6444TIP3    H143527   6.690   4.834   1.029  0.1671 -0.3196  1.0836
 6444TIP3    H243528   6.638   4.693   1.016 -3.6523  1.2252 -3.8331
 6445TIP3   OH243529   1.364   5.726   0.878  0.3318  0.7859 -0.0400
 6445TIP3    H143530   1.284   5.776   0.894  0.7055  1.9877 -1.6426
 6445TIP3    H243531   1.335   5.635   0.874 -1.9245  1.3948 -4.9757
 6446TIP3   OH243532   6.072   1.275   1.059 -0.0133  0.1212  0.2152
 6446TIP3    H143533   6.015   1.199   1.044  1.2376 -0.3858 -2.4560
 6446TIP3    H243534   6.106   1.261   1.148 -1.2664 -1.4438  0.5005
 6447TIP3   OH243535   0.322   1.063   3.247  0.1602  0.4410  0.1063
 6447TIP3    H143536   0.405   1.064   3.201  1.4194  1.3526  2.2729
 6447TIP3    H243537   0.280   1.146   3.224 -0.2134 -0.0142 -0.9734
 6448TIP3   OH243538   1.434   3.971   2.799  0.3036  0.1144  0.3475
 6448TIP3    H143539   1.501   4.036   2.821  0.7455 -0.1881 -0.0833
 6448TIP3    H243540   1.452   3.897   2.856 -0.1806  0.3509  0.8155
 6449TIP3   OH243541   5.920   2.623   3.568 -0.5137 -0.2346 -0.2398
 6449TIP3    H143542   5.912   2.607   3.474 -0.2566 -0.9532 -0.1441
 6449TIP3    H243543   5.943   2.715   3.574 -1.1525 -0.0207 -0.8527
 6450TIP3   OH243544   1.863   1.103   3.242 -0.9734 -0.0713  0.2962
 6450TIP3    H143545   1.930   1.165   3.272 -0.1472 -0.8531  0.1054
 6450TIP3    H243546   1.856   1.121   3.148 -0.9482 -0.0653  0.2953
 6451TIP3   OH243547   3.717   4.573   2.216  0.4408  0.3979  0.5136
 6451TIP3    H143548   3.624   4.568   2.193  0.5504  0.0235  0.1476
 6451TIP3    H243549   3.722   4.530   2.301  0.3666 -0.0786  0.2795
 6452TIP3   OH243550   0.107   1.483   1.190  0.2978 -0.3555  0.6534
 6452TIP3    H143551   0.016   1.485   1.161  0.2261 -0.7609  0.8469
 6452TIP3    H243552   0.157   1.509   1.113  0.2967 -3.7603 -0.6759
 6453TIP3   OH243553   0.425   4.287   2.824  0.5667  0.0834  0.1492
 6453TIP3    H143554   0.495   4.240   2.779 -0.5511 -0.8268 -0.7148
 6453TIP3    H243555   0.425   4.374   2.785  1.4493  0.2175  0.4290
 6454TIP3   OH243556   2.605   0.956   1.129  0.0641 -0.3492 -0.5322
 6454TIP3    H143557   2.541   0.999   1.073  0.0782  0.1944 -0.1380
 6454TIP3    H243558   2.661   0.908   1.068  1.7924  2.4219 -1.3169
 6455TIP3   OH243559   2.453   6.640   4.458 -0.3813  0.1488 -0.3455
 6455TIP3    H143560   2.385   6.705   4.438 -1.3045 -1.0021 -1.0992
 6455TIP3    H243561   2.411   6.556   4.441  0.5822 -0.6960  1.2026
 6456TIP3   OH243562   6.456   3.846   2.804 -0.3957  0.4663  0.5481
 6456TIP3    H143563   6.417   3.865   2.718 -0.0537 -0.6131  0.1296
 6456TIP3    H243564   6.548   3.830   2.785 -0.1406  1.0472  1.2507
 6457TIP3   OH243565   3.503   6.008   3.085 -0.0243  0.2242  0.2395
 6457TIP3    H143566   3.591   5.979   3.063 -0.2159 -0.1223 -0.0775
 6457TIP3    H243567   3.495   6.095   3.045 -0.0473 -0.0143 -0.2831
 6458TIP3   OH243568   6.222   6.822   0.854  0.0973  0.3493 -0.1163
 6458TIP3    H143569   6.218   6.884   0.927  0.8433  1.1586 -0.7438
 6458TIP3    H243570   6.153   6.851   0.795  0.0381  0.2043 -0.1172
 6459TIP3   OH243571   1.612   5.574   1.899 -0.7351 -0.6494 -0.0358
 6459TIP3    H143572   1.567   5.636   1.842 -0.5210  0.0466  0.5467
 6459TIP3    H243573   1.630   5.623   1.979  0.1938 -1.2040  0.1070
 6460TIP3   OH243574   5.362   3.922   1.550 -0.5695 -0.3181 -0.2919
 6460TIP3    H143575   5.395   3.836   1.527  0.6803  0.3374 -1.0529
 6460TIP3    H243576   5.308   3.949   1.476  0.0783  0.0714 -0.6296
 6461TIP3   OH243577   4.604   2.524   1.908  0.1468  0.8266  0.0967
 6461TIP3    H143578   4.685   2.485   1.942  0.2174  0.2449 -0.7077
 6461TIP3    H243579   4.570   2.576   1.981  0.7031  0.2439  0.7910
 6462TIP3   OH243580   5.616   6.297   2.109 -0.8368 -0.6321 -0.2128
 6462TIP3    H143581   5.633   6.391   2.117  3.5690 -1.0575 -2.0445
 6462TIP3    H243582   5.521   6.291   2.097 -1.1633  3.6774 -1.4579
 6463TIP3   OH243583   6.360   0.262   0.868  0.1344  0.1110 -0.2473
 6463TIP3    H143584   6.382   0.207   0.793  1.1160  0.8732 -0.5339
 6463TIP3    H243585   6.336   0.200   0.937  1.6131 -0.6924 -0.4306
 6464TIP3   OH243586   1.909   6.492   0.797  0.2052 -0.4166  0.2722
 6464TIP3    H143587   1.979   6.558   0.792  0.0655 -0.2771  0.1588
 6464TIP3    H243588   1.949   6.413   0.760  0.1454 -0.2013 -0.2689
 6465TIP3   OH243589   2.096   1.562   0.737  0.3872  0.1574  0.1810
 6465TIP3    H143590   2.138   1.476   0.730 -0.7839 -0.4170 -0.1406
 6465TIP3    H243591   2.007   1.548   0.704 -0.1293  1.2727  1.0177
 6466TIP3   OH243592   1.389   5.221   2.834  0.1997  0.0855 -0.0239
 6466TIP3    H143593   1.308   5.250   2.791  0.1211  0.8607  0.6250
 6466TIP3    H243594   1.378   5.247   2.926  1.5083  0.9016 -0.0739
 6467TIP3   OH243595   6.131   6.208   1.812  0.7529  0.0841 -0.3998
 6467TIP3    H143596   6.196   6.233   1.878  0.2927  1.2751 -0.3761
 6467TIP3    H243597   6.047   6.235   1.849  0.2750 -1.0258 -0.6283
 6468TIP3   OH243598   2.450   4.242   2.565  0.2842  0.0650  0.2505
 6468TIP3    H143599   2.405   4.215   2.645 -0.4009 -1.5843 -0.6343
 6468TIP3    H243600   2.518   4.303   2.595  0.9314 -1.5053  2.2510
 6469TIP3   OH243601   3.214   0.164   1.201 -0.1450  0.2545  0.2269
 6469TIP3    H143602   3.214   0.236   1.264 -0.2220  0.8452 -0.4263
 6469TIP3    H243603   3.285   0.107   1.229 -0.3593  0.3528  1.0091
 6470TIP3   OH243604   2.413   3.948   2.741  0.2445 -0.2880  0.1118
 6470TIP3    H143605   2.330   3.934   2.786 -0.4099 -0.8617 -1.2049
 6470TIP3    H243606   2.478   3.955   2.811 -0.9395  0.4171  1.1813
 6471TIP3   OH243607   6.701   6.268   1.850 -0.2777 -0.6582 -0.0758
 6471TIP3    H143608   6.787   6.279   1.811  0.3240 -1.0195  1.1029
 6471TIP3    H243609   6.664   6.356   1.855  0.6542 -0.3013  0.7907
 6472TIP3   OH243610   6.179   5.098   1.959  0.2083  0.0932  0.8336
 6472TIP3    H143611   6.128   5.018   1.966  1.0293 -0.4227  1.1104
 6472TIP3    H243612   6.128   5.164   2.006 -0.8799 -0.0400 -0.0990
 6473TIP3   OH243613   6.178   1.563   2.274 -0.1512  0.2409 -0.0917
 6473TIP3    H143614   6.109   1.629   2.282 -0.9464 -0.7476  1.6012
 6473TIP3    H243615   6.204   1.544   2.364  0.4275 -1.3687 -0.5659
 6474TIP3   OH243616   2.088   0.692   2.173 -0.9450  0.2516  0.2588
 6474TIP3    H143617   2.165   0.727   2.218 -0.8921 -0.3759  0.6599
 6474TIP3    H243618   2.014   0.735   2.217 -0.8095  2.3443 -1.3745
 6475TIP3   OH243619   5.201   1.480   2.848  0.2425 -0.0840 -0.7139
 6475TIP3    H143620   5.144   1.430   2.906  2.1997 -1.1250  0.4144
 6475TIP3    H243621   5.218   1.421   2.774  0.9010 -0.3324 -0.3800
 6476TIP3   OH243622   2.096   3.080   1.642  0.1085 -0.5237  0.4994
 6476TIP3    H143623   2.087   3.052   1.733 -2.4925 -1.6385 -0.0078
 6476TIP3    H243624   2.167   3.144   1.643  0.7483 -1.1765  3.1360
 6477TIP3   OH243625   0.054   3.746   0.892  0.2028 -0.1665 -0.6853
 6477TIP3    H143626   0.112   3.726   0.819  0.5881 -0.4428 -0.3134
 6477TIP3    H243627  -0.034   3.736   0.857  0.3867 -0.6423 -1.0139
 6478TIP3   OH243628   2.815   1.657   0.973  0.7151 -0.1608  0.4646
 6478TIP3    H143629   2.827   1.699   1.059  1.3749 -1.8075  1.2187
 6478TIP3    H243630   2.728   1.616   0.979  1.3814 -1.5557  0.9473
 6479TIP3   OH243631   1.822   0.542   1.778 -0.1886  0.2271  0.1109
 6479TIP3    H143632   1.878   0.511   1.849 -0.0635  0.7185  0.2307
 6479TIP3    H243633   1.861   0.625   1.751 -0.6803  0.4228 -0.0128
 6480TIP3   OH243634   5.719   0.915   1.231 -0.1663  0.3670 -0.2692
 6480TIP3    H143635   5.687   0.883   1.315 -2.2486  1.4676 -0.5809
 6480TIP3    H243636   5.700   0.845   1.169 -0.1779  0.2266 -0.1052
 6481TIP3   OH243637   4.375   3.703   1.746 -0.5150  0.1359  0.4990
 6481TIP3    H143638   4.364   3.794   1.719 -1.6027  0.1529  0.9528
 6481TIP3    H243639   4.385   3.655   1.664 -1.0366  0.5335  0.1908
 6482TIP3   OH243640   3.466   6.491   3.267  0.1027  0.4220  0.2263
 6482TIP3    H143641   3.386   6.468   3.314  0.4109 -1.2026  0.0120
 6482TIP3    H243642   3.503   6.563   3.317 -1.3293  0.9977  0.5015
 6483TIP3   OH243643   0.577   6.487   3.375  0.1702  0.3474 -0.0225
 6483TIP3    H143644   0.500   6.436   3.352 -0.3089  1.0495 -0.0084
 6483TIP3    H243645   0.651   6.431   3.352 -0.2666  0.7663 -2.7302
 6484TIP3   OH243646   5.892   0.063   0.994  0.3187  0.0230  0.1390
 6484TIP3    H143647   5.865  -0.027   0.973  0.9010  0.0283 -0.6508
 6484TIP3    H243648   5.874   0.071   1.088  1.4062 -1.3298  0.4938
 6485TIP3   OH243649   5.267   0.510   2.987  0.3522  0.1848  0.2092
 6485TIP3    H143650   5.245   0.521   3.079  0.0657  0.9415  0.0539
 6485TIP3    H243651   5.361   0.491   2.987  0.4455  0.6238  0.6255
 6486TIP3   OH243652   1.630   5.316   2.703  0.6703  0.0240  0.3978
 6486TIP3    H143653   1.544   5.282   2.727 -0.0816  1.7948  0.3559
 6486TIP3    H243654   1.691   5.272   2.762 -0.1647 -1.7214 -0.0002
 6487TIP3   OH243655   0.376   1.873   1.384 -0.0989  0.2037 -0.8920
 6487TIP3    H143656   0.437   1.917   1.323  1.8375  0.1957  0.9233
 6487TIP3    H243657   0.318   1.942   1.414  0.9451  0.8860 -0.4022
 6488TIP3   OH243658   2.264   3.161   0.870 -0.0549 -0.4612  0.0331
 6488TIP3    H143659   2.209   3.169   0.791  0.9378  0.6681 -0.5851
 6488TIP3    H243660   2.209   3.114   0.932 -1.0890 -0.8789 -1.1390
 6489TIP3   OH243661   2.362   0.475   4.262  0.1262  0.0382  0.1196
 6489TIP3    H143662   2.395   0.403   4.209  1.1184  0.5957 -0.0528
 6489TIP3    H243663   2.368   0.443   4.352  1.7723  0.3317  0.1458
 6490TIP3   OH243664   1.420   0.983   3.478  0.2679  1.0309 -0.1315
 6490TIP3    H143665   1.482   0.916   3.451  0.6119  0.9718  0.7557
 6490TIP3    H243666   1.473   1.062   3.489  0.2034  0.9650  0.6947
 6491TIP3   OH243667   4.469   0.892   1.645 -0.5098  0.1462 -0.5049
 6491TIP3    H143668   4.389   0.945   1.638 -1.6183 -1.0776  1.6322
 6491TIP3    H243669   4.499   0.907   1.735  1.3260  0.0434 -1.0586
 6492TIP3   OH243670   2.238   0.075   2.033  0.3448  0.1246  0.0682
 6492TIP3    H143671   2.196  -0.011   2.034  1.0527 -0.3061 -2.2540
 6492TIP3    H243672   2.329   0.057   2.011 -0.2600  1.6123 -4.8199
 6493TIP3   OH243673   5.556   0.166   1.164  0.4051  0.2090 -0.0107
 6493TIP3    H143674   5.479   0.113   1.182  1.5341 -1.3576  0.4349
 6493TIP3    H243675   5.532   0.220   1.089 -0.3876 -1.8582 -1.3137
 6494TIP3   OH243676   4.074   0.755   1.512 -0.0095  0.2266 -0.3962
 6494TIP3    H143677   4.101   0.839   1.476  0.6546 -0.2372 -1.0143
 6494TIP3    H243678   4.113   0.752   1.599  0.0245  0.5248 -0.4011
 6495TIP3   OH243679   0.052   6.194   2.364  0.1742 -0.0910  0.4680
 6495TIP3    H143680  -0.011   6.131   2.398  2.7109 -2.3955  1.2350
 6495TIP3    H243681   0.081   6.157   2.281 -2.1875  2.9226 -1.9265
 6496TIP3   OH243682   6.189   4.366   0.970  0.2453  0.2248 -0.6055
 6496TIP3    H143683   6.115   4.426   0.959  0.9289  1.1513 -0.2008
 6496TIP3    H243684   6.243   4.406   1.038  0.1923 -1.3726  0.4434
 6497TIP3   OH243685   1.076   5.281   1.138 -0.4674 -0.5791  0.4980
 6497TIP3    H143686   1.107   5.202   1.092  0.0561 -0.6492  0.9592
 6497TIP3    H243687   0.995   5.253   1.181  0.3751 -1.2459  1.7075
 6498TIP3   OH243688   2.890   1.504   1.849  0.3604 -0.2283 -0.4521
 6498TIP3    H143689   2.943   1.427   1.828  0.1141 -0.1803 -1.3197
 6498TIP3    H243690   2.817   1.470   1.900 -0.6441 -0.8593 -2.2191
 6499TIP3   OH243691   0.643   4.028   3.148 -0.2907 -0.6230  0.0977
 6499TIP3    H143692   0.621   3.935   3.158 -2.4887 -0.0536  1.1678
 6499TIP3    H243693   0.583   4.060   3.081 -0.8050  0.3932  1.0141
 6500TIP3   OH243694   5.284   1.788   2.365  0.4698 -0.0557 -0.6517
 6500TIP3    H143695   5.315   1.877   2.381 -0.7702  0.0742  1.3201
 6500TIP3    H243696   5.189   1.793   2.376  0.5473 -1.9848  1.6693
 6501TIP3   OH243697   6.189   5.250   1.502 -0.2305  0.1610  0.2748
 6501TIP3    H143698   6.242   5.222   1.428 -1.3527 -1.9220  0.1924
 6501TIP3    H243699   6.250   5.252   1.576  0.2935 -0.6810 -0.1247
 6502TIP3   OH243700   2.013   6.046   1.862 -0.3365 -0.1496  0.8327
 6502TIP3    H143701   1.980   6.033   1.951  0.1418  3.0437  1.6241
 6502TIP3    H243702   1.946   6.099   1.819  0.8670  1.1464  0.4528
 6503TIP3   OH243703   3.216   4.082   0.762  0.0038 -0.1532 -0.4057
 6503TIP3    H143704   3.223   4.175   0.783 -0.1105 -0.3258  0.4224
 6503TIP3    H243705   3.279   4.040   0.820 -0.2230 -0.6295 -0.5050
 6504TIP3   OH243706   4.222   5.585   3.237  0.4896 -0.0240 -0.1766
 6504TIP3    H143707   4.172   5.637   3.175 -0.8349  0.4955  1.2588
 6504TIP3    H243708   4.190   5.495   3.224  0.6001  0.0000 -0.6079
 6505TIP3   OH243709   3.061   4.686   2.510 -0.1998  0.3478 -0.7502
 6505TIP3    H143710   3.150   4.664   2.483 -0.9405 -1.9428 -1.5483
 6505TIP3    H243711   3.060   4.671   2.605 -0.1274 -1.2935 -0.9795
 6506TIP3   OH243712   3.135   0.241   0.664  0.0140 -0.3924 -0.0234
 6506TIP3    H143713   3.170   0.161   0.625 -0.5144 -1.1125  0.9097
 6506TIP3    H243714   3.158   0.234   0.757  1.8835  1.6092 -0.2559
 6507TIP3   OH243715   0.055   3.592   0.587 -0.8884  0.6947 -0.0750
 6507TIP3    H143716   0.141   3.575   0.626 -0.7550  0.5161 -0.4357
 6507TIP3    H243717   0.024   3.506   0.560 -0.5942  0.8937 -1.1339
 6508TIP3   OH243718   3.251   4.445   2.658  0.1791  0.1860 -0.0972
 6508TIP3    H143719   3.209   4.434   2.573  0.5444  0.1833 -0.2793
 6508TIP3    H243720   3.345   4.441   2.639  0.2642  0.3607  0.2811
 6509TIP3   OH243721   6.395   5.821   1.133 -0.9363 -0.1254  0.4430
 6509TIP3    H143722   6.369   5.898   1.082  1.9357  0.7432  0.1497
 6509TIP3    H243723   6.348   5.831   1.216  0.3207  2.6986  0.9291
 6510TIP3   OH243724   0.124   6.307   1.771 -0.1162  0.0621 -0.3418
 6510TIP3    H143725   0.098   6.254   1.696 -0.4553 -0.1329 -0.0907
 6510TIP3    H243726   0.219   6.295   1.777 -0.4216 -2.4064  1.0937
 6511TIP3   OH243727   4.446   4.219   1.227 -0.3450 -0.2243 -0.4062
 6511TIP3    H143728   4.539   4.208   1.249 -0.2144  0.1844 -0.7363
 6511TIP3    H243729   4.420   4.297   1.274 -0.2373  0.2742 -1.1511
 6512TIP3   OH243730   2.204   2.022   2.419 -0.7756 -0.5086 -0.4449
 6512TIP3    H143731   2.292   2.036   2.383 -1.0766 -0.7526 -1.2986
 6512TIP3    H243732   2.168   2.111   2.428 -0.4233 -0.4063 -0.0504
 6513TIP3   OH243733   2.789   3.967   1.768  0.7224  0.6984  1.0378
 6513TIP3    H143734   2.782   3.986   1.862 -0.2701 -0.5522  1.2373
 6513TIP3    H243735   2.776   4.052   1.726  1.7666  1.3815  2.0367
 6514TIP3   OH243736   0.968   6.756   1.778 -0.0600  0.0668  0.0533
 6514TIP3    H143737   0.953   6.662   1.791 -1.7187  0.1693 -0.8907
 6514TIP3    H243738   0.923   6.798   1.852 -1.9634  0.2221 -1.1250
 6515TIP3   OH243739   4.348   2.152   2.467  0.1531  0.0172 -0.2028
 6515TIP3    H143740   4.297   2.082   2.426  0.8593 -0.1948 -0.7311
 6515TIP3    H243741   4.345   2.224   2.404  2.0717 -0.6533 -1.1057
 6516TIP3   OH243742   0.862   5.290   1.647 -0.0931 -0.4266  0.1719
 6516TIP3    H143743   0.870   5.210   1.594 -0.0860 -0.5000  0.2821
 6516TIP3    H243744   0.916   5.354   1.601 -1.4469  0.0218 -0.8756
 6517TIP3   OH243745   3.059   3.159   3.684 -0.3614 -0.7938 -0.0811
 6517TIP3    H143746   2.990   3.166   3.750 -0.5192 -1.0011 -0.2224
 6517TIP3    H243747   3.109   3.240   3.693  0.3151 -1.3091  1.0620
 6518TIP3   OH243748   3.104   5.965   1.138  0.1309 -0.0155 -0.2422
 6518TIP3    H143749   3.183   5.978   1.190  1.3908  1.0196 -2.3000
 6518TIP3    H243750   3.087   6.050   1.098 -1.1899 -0.5909 -0.9625
 6519TIP3   OH243751   1.343   1.584   0.747 -0.1927  0.1102  0.1416
 6519TIP3    H143752   1.300   1.634   0.816 -0.9477 -0.2863 -0.0285
 6519TIP3    H243753   1.275   1.527   0.713 -0.5701  2.0677 -2.7009
 6520TIP3   OH243754   1.866   2.610   1.684 -0.4033  0.1619 -0.4408
 6520TIP3    H143755   1.892   2.678   1.746  1.2593 -0.8646  0.0780
 6520TIP3    H243756   1.844   2.657   1.604  2.2600  1.2979 -0.6213
 6521TIP3   OH243757   4.380   1.147   0.814 -0.0154  0.2727  0.3572
 6521TIP3    H143758   4.334   1.175   0.893  0.7710  1.1195  0.5322
 6521TIP3    H243759   4.458   1.101   0.846 -0.2417 -0.3193  0.0694
 6522TIP3   OH243760   0.030   4.066   2.952 -0.1570  0.2847 -0.1216
 6522TIP3    H143761  -0.038   4.099   3.010  1.1267  0.4254  1.3449
 6522TIP3    H243762   0.058   4.142   2.902 -0.3529  0.4320 -0.0078
 6523TIP3   OH243763   0.499   0.533   1.191 -0.1100 -0.8939  0.4698
 6523TIP3    H143764   0.567   0.577   1.141 -0.2606  0.3378  1.3215
 6523TIP3    H243765   0.471   0.597   1.256 -2.7122 -1.0425 -0.3921
 6524TIP3   OH243766   1.026   2.674   3.408  0.6521  0.4486 -0.4516
 6524TIP3    H143767   1.079   2.632   3.476  1.1583  1.9962  0.1460
 6524TIP3    H243768   0.963   2.607   3.382  1.5880 -0.7568  0.2779
 6525TIP3   OH243769   6.340   3.406   0.738 -0.2010  0.5066 -0.1111
 6525TIP3    H143770   6.267   3.347   0.756 -0.2850  0.8353  0.6227
 6525TIP3    H243771   6.388   3.363   0.667 -0.9363  0.1440 -0.3947
 6526TIP3   OH243772   4.872   1.352   2.113 -0.1826 -0.1376  0.0703
 6526TIP3    H143773   4.965   1.349   2.088  0.2377  1.2349  1.3234
 6526TIP3    H243774   4.860   1.276   2.169  0.0627 -0.5617 -0.4405
 6527TIP3   OH243775   4.432   2.038   3.384  0.3151 -0.1923  0.4805
 6527TIP3    H143776   4.435   1.954   3.430 -0.3803 -1.1292 -1.1052
 6527TIP3    H243777   4.514   2.081   3.409  1.0557 -1.6647  0.7374
 6528TIP3   OH243778   3.332   2.820   2.334 -0.0285  0.9249 -0.5572
 6528TIP3    H143779   3.328   2.724   2.329  2.8905  0.6100  1.1294
 6528TIP3    H243780   3.240   2.847   2.337 -0.9415 -1.8667 -0.1705
 6529TIP3   OH243781   5.711   3.906   1.140 -0.4707  0.0234 -0.1796
 6529TIP3    H143782   5.669   3.972   1.085 -0.8693 -0.9284 -1.0663
 6529TIP3    H243783   5.762   3.956   1.203 -1.3333  1.1834 -0.3594
 6530TIP3   OH243784   2.297   0.066   0.950  0.2489 -0.1465  0.1686
 6530TIP3    H143785   2.323   0.092   1.038 -3.0430  0.2279  1.1457
 6530TIP3    H243786   2.334   0.134   0.893  0.8543  0.6560  1.4741
 6531TIP3   OH243787   1.877   4.588   0.655 -0.5630  0.4627  0.1802
 6531TIP3    H143788   1.806   4.634   0.701 -1.1970 -0.9761  0.6814
 6531TIP3    H243789   1.929   4.659   0.616 -2.2883  1.5676 -0.2503
 6532TIP3   OH243790   2.174   5.058   2.083  0.1034 -0.8024  0.2412
 6532TIP3    H143791   2.157   5.128   2.146 -0.9608 -0.2440 -0.6198
 6532TIP3    H243792   2.260   5.077   2.047 -0.0010 -0.1628  0.3254
 6533TIP3   OH243793   5.548   4.572   1.377 -0.0004 -0.1658 -0.1619
 6533TIP3    H143794   5.526   4.481   1.399  0.2474  0.0820  1.2127
 6533TIP3    H243795   5.469   4.607   1.336 -0.4069 -0.7344  0.1200
 6534TIP3   OH243796   5.111   5.566   2.062  0.1278 -0.0948 -0.8104
 6534TIP3    H143797   5.055   5.592   2.136  0.5632  0.2532 -0.5957
 6534TIP3    H243798   5.197   5.601   2.085  0.1317  0.5510 -1.7706
 6535TIP3   OH243799   0.128   0.858   3.148  0.0254 -0.6020  1.0339
 6535TIP3    H143800   0.194   0.927   3.140 -0.2235 -0.5598 -2.0376
 6535TIP3    H243801   0.175   0.784   3.186  2.0279 -0.6895 -1.3841
 6536TIP3   OH243802   4.691   6.025   2.849 -0.5845 -0.2008  0.2322
 6536TIP3    H143803   4.658   6.078   2.922 -1.2775 -1.8615  1.1647
 6536TIP3    H243804   4.686   5.935   2.880 -1.9026 -1.0739 -2.2632
 6537TIP3   OH243805   4.664   2.604   1.294  0.2970 -0.1842  0.0514
 6537TIP3    H143806   4.715   2.547   1.236  1.4361  1.6254 -0.7894
 6537TIP3    H243807   4.730   2.645   1.350 -0.2096  2.0854 -0.9416
 6538TIP3   OH243808   1.614   4.115   2.473  0.5473  0.3015 -0.1028
 6538TIP3    H143809   1.640   4.131   2.383  0.1458  2.6809  0.1342
 6538TIP3    H243810   1.532   4.067   2.467  1.0632 -0.4991 -0.9563
 6539TIP3   OH243811   2.592   0.149   2.011 -0.0576  0.2462 -0.3827
 6539TIP3    H143812   2.687   0.158   2.019  0.0820  0.1578 -1.6302
 6539TIP3    H243813   2.571   0.070   2.061  0.4312  0.6085  0.4133
 6540TIP3   OH243814   3.747   6.247   1.322 -0.2953  0.3722 -0.2064
 6540TIP3    H143815   3.692   6.301   1.379 -1.5472  0.5603 -1.5188
 6540TIP3    H243816   3.732   6.157   1.352  1.2910  0.6427  1.5631
 6541TIP3   OH243817   2.283   1.206   1.109 -0.3777 -0.5747  0.1584
 6541TIP3    H143818   2.355   1.227   1.051 -0.0945  0.1648  0.7640
 6541TIP3    H243819   2.218   1.164   1.053  0.2210 -0.6019 -0.5236
 6542TIP3   OH243820   1.600   5.336   0.577 -0.3841 -0.3811 -0.2301
 6542TIP3    H143821   1.689   5.359   0.550 -0.6169  1.6181  0.5588
 6542TIP3    H243822   1.613   5.269   0.645  0.6718  1.2374  1.2506
 6543TIP3   OH243823   1.775   6.614   3.080  0.2232 -0.2299 -0.4032
 6543TIP3    H143824   1.768   6.659   3.164  0.5726  0.0090 -0.4981
 6543TIP3    H243825   1.763   6.683   3.014  1.2442 -0.1739 -0.5516
 6544TIP3   OH243826   1.994   1.348   2.022  0.0721  0.0200  0.0362
 6544TIP3    H143827   1.982   1.255   2.038 -2.0924  0.2366 -0.0477
 6544TIP3    H243828   1.959   1.363   1.934  2.3916  0.5866 -0.8658
 6545TIP3   OH243829   3.758   6.136   1.678  0.1766 -0.2360 -1.0004
 6545TIP3    H143830   3.816   6.212   1.688 -0.5242  0.0193  2.4231
 6545TIP3    H243831   3.815   6.060   1.686  0.4951 -0.0325 -1.3224
 6546TIP3   OH243832   4.750   1.099   2.750  0.1278  0.5463 -0.5542
 6546TIP3    H143833   4.741   1.164   2.820  1.5245  0.7105 -0.4839
 6546TIP3    H243834   4.817   1.039   2.783 -0.4617 -0.3939 -1.0216
 6547TIP3   OH243835   4.291   3.372   0.517 -0.2208  0.3311  0.3385
 6547TIP3    H143836   4.212   3.325   0.490 -1.3198  2.3735 -0.2552
 6547TIP3    H243837   4.258   3.454   0.554  1.6233  1.0588  0.4681
 6548TIP3   OH243838   1.350   0.627   2.896  0.4595 -0.6957 -0.1839
 6548TIP3    H143839   1.427   0.665   2.853 -1.1926  2.7679 -0.4014
 6548TIP3    H243840   1.279   0.640   2.833 -1.1156  0.2290  1.6791
 6549TIP3   OH243841   3.075   1.600   0.565 -0.5617 -0.5234  0.3035
 6549TIP3    H143842   3.157   1.596   0.515 -0.0302  0.6843  1.0395
 6549TIP3    H243843   3.101   1.575   0.654 -1.5812 -3.1228 -0.0467
 6550TIP3   OH243844   2.109   4.600   3.674 -0.3600 -0.2423  0.2185
 6550TIP3    H143845   2.197   4.562   3.676  0.0996  0.7939  0.5491
 6550TIP3    H243846   2.115   4.677   3.730 -0.8587  1.1307 -1.4924
 6551TIP3   OH243847   0.557   0.086   2.308  0.3562 -0.3051 -0.2479
 6551TIP3    H143848   0.566   0.166   2.257  0.7723 -0.5884 -0.6260
 6551TIP3    H243849   0.531   0.116   2.395 -1.3544  0.1108 -0.8809
 6552TIP3   OH243850   4.862   1.983   2.188  0.6265  0.0211 -0.8202
 6552TIP3    H143851   4.881   1.909   2.129  0.6417 -0.9155  0.3197
 6552TIP3    H243852   4.766   1.983   2.196  0.7279 -1.4242  1.0373
 6553TIP3   OH243853   0.356   0.014   0.991 -0.3275 -0.1909  0.4550
 6553TIP3    H143854   0.445   0.044   1.012 -0.6026  1.0077 -0.0597
 6553TIP3    H243855   0.369  -0.077   0.962  0.7095 -0.0987  0.5650
 6554TIP3   OH243856   2.489   4.988   1.522 -0.2751 -0.5230 -0.1735
 6554TIP3    H143857   2.437   5.030   1.591  0.8695  0.7950 -0.0601
 6554TIP3    H243858   2.579   4.993   1.553 -0.0749 -3.4683 -0.0094
 6555TIP3   OH243859   4.142   4.455   1.445 -0.2821  0.3245  0.2210
 6555TIP3    H143860   4.120   4.457   1.538 -1.3100  0.3137 -0.0074
 6555TIP3    H243861   4.139   4.363   1.421  2.1772  0.0579  0.6370
 6556TIP3   OH243862   1.478   2.288   2.040 -0.2327 -0.2004  0.7568
 6556TIP3    H143863   1.417   2.336   1.984 -0.5910  0.0245  1.3235
 6556TIP3    H243864   1.434   2.286   2.126  0.3245 -0.4907  1.0373
 6557TIP3   OH243865   5.289   3.813   2.790  0.0046 -0.2298  0.1973
 6557TIP3    H143866   5.335   3.765   2.721  0.4025 -0.8903  0.8945
 6557TIP3    H243867   5.359   3.848   2.845 -0.2611  1.8743 -0.7374
 6558TIP3   OH243868   1.840   5.011   0.650  0.3176  0.2450 -0.3147
 6558TIP3    H143869   1.896   4.942   0.613  0.7025  0.0773  0.5723
 6558TIP3    H243870   1.891   5.091   0.640 -0.1598  0.4262 -1.4129
 6559TIP3   OH243871   6.247   2.666   1.701 -0.0019  0.0903 -0.1210
 6559TIP3    H143872   6.206   2.617   1.772 -3.2857  1.5194 -0.8478
 6559TIP3    H243873   6.304   2.729   1.746  0.1147 -0.8041  1.0497
 6560TIP3   OH243874   4.965   1.796   1.096  0.4988 -0.1052 -0.2886
 6560TIP3    H143875   5.022   1.727   1.133  1.1419  0.4586 -0.1993
 6560TIP3    H243876   5.011   1.825   1.018 -0.1072 -0.2351 -0.6967
 6561TIP3   OH243877   4.205   5.260   3.835  0.3725 -0.0582 -0.2046
 6561TIP3    H143878   4.291   5.237   3.798  0.9019  0.3396  0.7534
 6561TIP3    H243879   4.145   5.255   3.761  1.2024 -0.4781 -0.8610
 6562TIP3   OH243880   5.773   2.519   3.076 -0.2431 -0.2251  0.7452
 6562TIP3    H143881   5.845   2.465   3.043  0.0286  1.4855 -1.7049
 6562TIP3    H243882   5.694   2.471   3.052  0.0308 -0.2143 -0.2358
 6563TIP3   OH243883   2.317   2.521   1.502  0.2217  0.4384 -0.4796
 6563TIP3    H143884   2.230   2.536   1.463 -0.4355 -0.4542  0.5634
 6563TIP3    H243885   2.345   2.607   1.533 -0.0449  0.8329 -1.3149
 6564TIP3   OH243886   0.753   4.871   3.033 -0.7820 -0.3848 -0.0200
 6564TIP3    H143887   0.816   4.833   3.093  1.2643  2.6012 -0.0526
 6564TIP3    H243888   0.688   4.913   3.089 -0.7566 -0.4799  0.0798
 6565TIP3   OH243889   3.705   3.247   2.755  0.1752  0.7814  0.0669
 6565TIP3    H143890   3.664   3.329   2.727  0.3525  0.8485  0.0005
 6565TIP3    H243891   3.672   3.181   2.695 -0.9707  0.5598  0.8964
 6566TIP3   OH243892   5.031   2.545   2.303 -0.3758 -0.2680  0.0574
 6566TIP3    H143893   4.962   2.479   2.313 -2.5209  1.9932  1.3393
 6566TIP3    H243894   4.997   2.622   2.347  2.8240  1.1777  0.2802
 6567TIP3   OH243895   5.211   3.722   1.727 -0.3850  0.4661 -0.1513
 6567TIP3    H143896   5.131   3.739   1.678 -0.8089  1.9327  1.0143
 6567TIP3    H243897   5.262   3.803   1.718  1.4878 -0.7912 -1.7629
 6568TIP3   OH243898   0.441   4.961   3.931 -0.1358  0.2673 -0.2020
 6568TIP3    H143899   0.379   4.912   3.877  0.2896 -0.4138 -0.0730
 6568TIP3    H243900   0.512   4.900   3.948  0.1109  0.7327  0.4737
 6569TIP3   OH243901   1.054   1.598   2.871 -0.5207  0.1464  0.3509
 6569TIP3    H143902   1.030   1.561   2.786  0.2047  0.4120  0.0173
 6569TIP3    H243903   1.005   1.679   2.877 -1.1785 -0.2597  0.5413
 6570TIP3   OH243904   0.889   3.275   0.703  0.0277 -0.2462  0.0623
 6570TIP3    H143905   0.945   3.309   0.633 -0.2608  0.5630  0.2164
 6570TIP3    H243906   0.915   3.325   0.781 -1.7137  1.0131 -0.1032
 6571TIP3   OH243907   3.634   3.751   3.908  0.2392  0.1789  0.2534
 6571TIP3    H143908   3.653   3.844   3.893  1.8060  0.1501  1.7528
 6571TIP3    H243909   3.560   3.751   3.968 -0.2435  0.4457 -0.3399
 6572TIP3   OH243910   4.065   0.461   2.328  0.5080 -0.1632  0.7714
 6572TIP3    H143911   4.123   0.526   2.288 -0.8211  1.2023  0.9748
 6572TIP3    H243912   4.121   0.414   2.391  1.8945 -0.3588 -0.5430
 6573TIP3   OH243913   3.497   5.000   3.055 -0.6810  0.4340 -0.3788
 6573TIP3    H143914   3.580   4.997   3.008 -0.2053 -1.3340  0.4931
 6573TIP3    H243915   3.519   4.974   3.144 -1.9038  1.6498  0.3118
 6574TIP3   OH243916   0.237   2.316   1.765 -0.4621  0.0224 -0.1258
 6574TIP3    H143917   0.157   2.365   1.748 -0.7761 -0.5173 -0.2358
 6574TIP3    H243918   0.212   2.225   1.751  0.5379 -0.0475 -1.5804
 6575TIP3   OH243919   2.138   0.072   3.500 -0.1209 -0.3410 -0.3607
 6575TIP3    H143920   2.228   0.098   3.481 -0.3137  0.8411  0.2667
 6575TIP3    H243921   2.131   0.078   3.596 -1.9083  3.4305 -0.5362
 6576TIP3   OH243922   5.798   4.795   0.674  0.4351  0.1261 -0.0426
 6576TIP3    H143923   5.749   4.854   0.617  1.0801  0.6200 -0.1039
 6576TIP3    H243924   5.873   4.847   0.703  1.3267 -0.8313 -0.5464
 6577TIP3   OH243925   0.853   1.764   2.900 -0.2914 -0.5003  0.3824
 6577TIP3    H143926   0.872   1.805   2.984  0.5945  1.6980 -0.7957
 6577TIP3    H243927   0.758   1.762   2.894 -0.4249 -2.2846  2.1006
 6578TIP3   OH243928   3.315   4.534   1.302 -0.4303  0.8809 -0.0204
 6578TIP3    H143929   3.288   4.530   1.210 -2.3128  0.7583  0.4830
 6578TIP3    H243930   3.233   4.546   1.350  0.4338  0.2333  1.7045
 6579TIP3   OH243931   4.826   2.048   0.894 -0.0870  0.7554  0.4182
 6579TIP3    H143932   4.849   1.963   0.857 -4.3603 -0.5712  0.3030
 6579TIP3    H243933   4.812   2.032   0.987  1.4558  1.9874  0.9178
 6580TIP3   OH243934   6.776   3.584   2.879 -0.1362  0.0403 -0.5002
 6580TIP3    H143935   6.716   3.574   2.805 -0.3900 -2.1768 -0.0601
 6580TIP3    H243936   6.785   3.678   2.890 -1.7136  0.4176 -2.0475
 6581TIP3   OH243937   2.810   6.116   4.157 -0.7894  0.6527 -0.1623
 6581TIP3    H143938   2.852   6.086   4.238  0.2732 -0.2524 -1.0123
 6581TIP3    H243939   2.872   6.178   4.119 -0.6213  0.0015 -0.9746
 6582TIP3   OH243940   3.313   4.834   1.689 -0.6777 -0.0655  0.4386
 6582TIP3    H143941   3.297   4.740   1.696 -1.2716  0.0312  0.4210
 6582TIP3    H243942   3.227   4.874   1.703 -0.1418  0.5551  2.0891
 6583TIP3   OH243943   1.959   6.834   1.555  0.5512  0.5150  0.0843
 6583TIP3    H143944   1.995   6.776   1.489  0.2153  1.3126 -0.8275
 6583TIP3    H243945   1.992   6.800   1.638  0.9882 -0.4976 -0.4877
 6584TIP3   OH243946   0.515   4.175   0.804  0.3522  0.0425 -0.7371
 6584TIP3    H143947   0.442   4.131   0.759  1.5511 -0.7484 -1.9785
 6584TIP3    H243948   0.475   4.252   0.844 -0.8997  0.5103 -2.7338
 6585TIP3   OH243949   4.306   2.370   2.287  0.0090  0.2004  0.3599
 6585TIP3    H143950   4.279   2.425   2.360 -0.2398  1.7022 -0.8214
 6585TIP3    H243951   4.300   2.427   2.210  3.0332 -0.4255 -0.4703
 6586TIP3   OH243952   3.006   0.457   0.910  0.0865  0.1537 -0.3509
 6586TIP3    H143953   2.970   0.452   0.821  1.5449  0.0804 -0.9714
 6586TIP3    H243954   3.038   0.547   0.917  0.3551  0.0355 -0.0657
 6587TIP3   OH243955   1.361   5.456   0.794  0.0417  0.6630 -0.0363
 6587TIP3    H143956   1.336   5.364   0.796 -0.3071  0.7575  1.5498
 6587TIP3    H243957   1.387   5.472   0.703 -0.7302 -0.7664 -0.5457
 6588TIP3   OH243958   6.644   4.536   3.301  0.3733 -0.3018  0.4764
 6588TIP3    H143959   6.699   4.528   3.223  1.1602  2.6264  0.6245
 6588TIP3    H243960   6.704   4.564   3.370 -0.8156  0.0319  1.4101
 6589TIP3   OH243961   1.626   4.649   3.161 -0.4402  0.0488 -0.4582
 6589TIP3    H143962   1.544   4.604   3.180  0.2767 -0.6301  1.2452
 6589TIP3    H243963   1.644   4.700   3.240  0.5068  0.6102 -1.0180
 6590TIP3   OH243964   2.761   0.642   3.393  0.2640 -0.0885 -0.1485
 6590TIP3    H143965   2.845   0.640   3.347  0.7223  1.3368  0.5789
 6590TIP3    H243966   2.783   0.633   3.485 -0.4131 -0.0992  0.0191
 6591TIP3   OH243967   6.105   6.540   3.343  0.7786 -0.7290 -0.4066
 6591TIP3    H143968   6.108   6.562   3.250  1.4290  2.2719  0.1928
 6591TIP3    H243969   6.107   6.445   3.346 -0.1297 -0.9387 -3.4672
 6592TIP3   OH243970   4.190   6.378   3.618  0.0994  0.9649 -0.1094
 6592TIP3    H143971   4.280   6.401   3.639 -0.0366 -0.0236  1.7139
 6592TIP3    H243972   4.145   6.375   3.703 -1.7536  1.7963 -0.9946
 6593TIP3   OH243973   6.278   3.650   1.366 -0.6179  0.0333 -0.3341
 6593TIP3    H143974   6.348   3.715   1.359 -1.3600  0.7612 -1.3890
 6593TIP3    H243975   6.263   3.641   1.460  2.1002 -1.5147  0.0646
 6594TIP3   OH243976   0.888   1.885   3.581  0.4283 -0.0874 -0.1057
 6594TIP3    H143977   0.975   1.881   3.621 -0.0554  2.5776  1.4778
 6594TIP3    H243978   0.891   1.962   3.524 -0.6604 -0.4604 -0.7023
 6595TIP3   OH243979   2.004   2.659   2.498 -0.0828 -0.0152  0.2800
 6595TIP3    H143980   1.981   2.620   2.413  0.5859  1.2307 -0.5002
 6595TIP3    H243981   1.950   2.737   2.505  1.2023  0.9114  0.1265
 6596TIP3   OH243982   4.094   5.949   3.628  0.0562 -0.8679  0.0398
 6596TIP3    H143983   4.028   5.888   3.597 -0.8728 -0.0418  0.3468
 6596TIP3    H243984   4.093   5.939   3.723  1.0274 -1.4881  0.0093
 6597TIP3   OH243985   6.461   2.516   1.575  0.1157  0.2394 -0.0088
 6597TIP3    H143986   6.543   2.560   1.555  1.3121  1.3518  5.5970
 6597TIP3    H243987   6.395   2.585   1.568  1.0667  1.6285  2.8665
 6598TIP3   OH243988   6.343   6.515   1.090  0.1072 -0.0783  0.3755
 6598TIP3    H143989   6.310   6.501   1.001  1.4292  1.2777 -0.3529
 6598TIP3    H243990   6.424   6.464   1.094  0.1336 -0.0069  0.7562
 6599TIP3   OH243991   1.761   0.100   1.848 -0.1497  0.8616  0.1914
 6599TIP3    H143992   1.709   0.059   1.778  1.3634  0.2943 -0.6589
 6599TIP3    H243993   1.792   0.182   1.809  1.2136  0.2523 -0.0752
 6600TIP3   OH243994   4.353   6.011   0.777 -0.6280  0.1592 -0.5358
 6600TIP3    H143995   4.405   6.091   0.778 -2.2769  1.3232  2.2609
 6600TIP3    H243996   4.418   5.941   0.789  0.5736  1.3157 -0.0252
 6601TIP3   OH243997   6.148   5.714   1.616  0.1396 -0.3983  0.1963
 6601TIP3    H143998   6.117   5.783   1.556 -0.5111 -0.5047  0.3990
 6601TIP3    H243999   6.079   5.648   1.614  0.6966 -0.9858  0.1164
 6602TIP3   OH244000   2.792   3.365   2.455 -0.1436  0.9424 -0.5427
 6602TIP3    H144001   2.814   3.447   2.411 -1.0785  1.3456 -0.2668
 6602TIP3    H244002   2.856   3.358   2.525  1.0827  0.5168 -1.6559
 6603TIP3   OH244003   2.999   4.111   3.427 -0.2902  0.7004  0.4299
 6603TIP3    H144004   2.941   4.187   3.431  0.9479  1.6228  1.9294
 6603TIP3    H244005   3.076   4.137   3.477  0.9444 -0.9075 -0.5582
 6604TIP3   OH244006   1.686   0.928   2.176  0.1273 -0.4444  0.7597
 6604TIP3    H144007   1.639   1.012   2.183  1.7536  0.6696 -0.8308
 6604TIP3    H244008   1.669   0.899   2.087  1.0481 -0.8934  0.7243
 6605TIP3   OH244009   5.115   1.893   2.943  0.3064 -0.1463  0.4566
 6605TIP3    H144010   5.151   1.981   2.941 -0.1979  0.0625 -1.0126
 6605TIP3    H244011   5.021   1.905   2.930  0.4924 -0.9654 -2.3362
 6606TIP3   OH244012   5.703   1.984   0.906  0.2749 -0.2381 -0.6018
 6606TIP3    H144013   5.688   1.923   0.978  0.5550 -0.8560 -1.0605
 6606TIP3    H244014   5.684   1.934   0.827  0.5832  0.2434 -0.9890
 6607TIP3   OH244015   4.449   1.288   0.387  0.7839  0.3955  0.3708
 6607TIP3    H144016   4.474   1.204   0.347  1.1766  0.1124  1.2011
 6607TIP3    H244017   4.373   1.267   0.441 -0.0559  0.8782 -0.5920
 6608TIP3   OH244018   0.924   1.602   3.303 -0.0191 -0.8970  0.1206
 6608TIP3    H144019   1.005   1.566   3.340  0.0795 -1.0937 -0.2871
 6608TIP3    H244020   0.872   1.627   3.380  0.2961 -1.0604  0.3889
 6609TIP3   OH244021   0.476   4.187   3.532  0.1487 -0.4833 -0.2873
 6609TIP3    H144022   0.507   4.276   3.551  1.5147 -0.7014 -1.3246
 6609TIP3    H244023   0.474   4.144   3.617  0.2343  0.3071  0.1298
 6610TIP3   OH244024   5.397   6.184   9.017  0.1878 -0.2043 -0.4209
 6610TIP3    H144025   5.336   6.209   9.087  0.0836 -1.1611 -0.1613
 6610TIP3    H244026   5.373   6.094   8.995  1.1925 -0.4264 -0.6569
 6611TIP3   OH244027   2.072   3.192   2.492  0.0829  0.5801 -0.0444
 6611TIP3    H144028   2.143   3.248   2.522  0.2286 -0.2087  1.1476
 6611TIP3    H244029   2.046   3.143   2.570 -0.7250 -0.2638 -0.8259
 6612TIP3   OH244030   1.809   5.940   2.616  0.3495  0.2949 -0.0764
 6612TIP3    H144031   1.754   6.014   2.641 -1.0758 -1.2223  1.5800
 6612TIP3    H244032   1.899   5.972   2.623 -0.1778  1.4483  2.1678
 6613TIP3   OH244033   2.135   1.754   1.296 -0.2614  0.2202  0.2518
 6613TIP3    H144034   2.168   1.670   1.328  1.3313  1.1024  1.0330
 6613TIP3    H244035   2.213   1.809   1.287 -0.8287  0.7085 -3.2127
 6614TIP3   OH244036   1.702   3.720   3.597  0.3540 -0.0159  0.0091
 6614TIP3    H144037   1.790   3.685   3.616  1.0845  2.3352  1.2883
 6614TIP3    H244038   1.689   3.701   3.504  3.0912  1.2700 -0.7325
 6615TIP3   OH244039   0.673   6.485   0.850  0.1102  0.1351  0.0257
 6615TIP3    H144040   0.591   6.460   0.894  0.1136  1.2970  0.7191
 6615TIP3    H244041   0.653   6.479   0.757 -0.2284 -1.3120  0.1671
 6616TIP3   OH244042   4.170   2.413   1.664  0.1652  0.3719  0.3763
 6616TIP3    H144043   4.086   2.447   1.694  0.7557  1.5227  0.7934
 6616TIP3    H244044   4.228   2.489   1.662  1.2934 -0.4498  0.4388
 6617TIP3   OH244045   0.538   6.147   3.994  0.3371  0.2622  0.1526
 6617TIP3    H144046   0.530   6.059   3.959 -0.2139  0.6722 -0.8070
 6617TIP3    H244047   0.629   6.154   4.021  1.1910  0.3131 -2.4263
 6618TIP3   OH244048   5.610   4.126   1.030 -0.2462 -0.5991 -0.1440
 6618TIP3    H144049   5.549   4.131   1.104 -1.0427  0.3848 -0.8398
 6618TIP3    H244050   5.563   4.167   0.958  0.9871 -0.4472 -0.8844
 6619TIP3   OH244051   0.447   0.093   3.071 -0.2147 -0.8444 -0.6270
 6619TIP3    H144052   0.468   0.104   2.979 -1.7615  0.5142 -0.8738
 6619TIP3    H244053   0.464   0.001   3.089 -0.0442 -1.1742 -2.3135
 6620TIP3   OH244054   2.330   3.058   4.194  0.6850 -0.0500 -0.3542
 6620TIP3    H144055   2.303   2.969   4.214 -0.0356  0.0339 -0.9186
 6620TIP3    H244056   2.325   3.065   4.099  3.4672 -0.2488 -0.6001
 6621TIP3   OH244057   5.933   4.295   3.752  0.6760  0.0674  0.1405
 6621TIP3    H144058   5.849   4.340   3.767  0.7118  0.6929 -1.4285
 6621TIP3    H244059   5.973   4.290   3.839 -0.8375  0.0481  0.8685
 6622TIP3   OH244060   1.941   1.340   1.406 -0.0374 -0.1608 -0.5233
 6622TIP3    H144061   2.028   1.300   1.400 -0.6193 -1.3324 -1.1977
 6622TIP3    H244062   1.908   1.313   1.492  0.4728  0.7660 -0.0116
 6623TIP3   OH244063   0.568   2.948   3.090 -0.0713 -0.4634  0.0171
 6623TIP3    H144064   0.501   2.992   3.143 -0.8079 -0.9409 -0.5069
 6623TIP3    H244065   0.596   2.874   3.145 -0.9211 -1.0284 -0.2991
 6624TIP3   OH244066   2.292   5.773   1.304 -0.5401 -0.1470  0.5979
 6624TIP3    H144067   2.205   5.814   1.308 -0.7236 -0.2144 -1.5561
 6624TIP3    H244068   2.351   5.844   1.279 -0.2674 -0.4561  0.3511
 6625TIP3   OH244069   1.719   2.402   2.614 -0.0710  0.3135  0.0183
 6625TIP3    H144070   1.673   2.485   2.622  0.8775  0.8070  0.5777
 6625TIP3    H244071   1.772   2.396   2.693 -1.5247 -1.7304  0.9366
 6626TIP3   OH244072   5.721   4.703   2.457 -0.0796  0.5931  0.2807
 6626TIP3    H144073   5.705   4.638   2.388  2.7644  0.2839 -0.2038
 6626TIP3    H244074   5.659   4.679   2.526 -0.8564 -1.0555 -0.8967
 6627TIP3   OH244075   4.348   2.788   3.668 -0.4131  0.5553 -0.1966
 6627TIP3    H144076   4.356   2.867   3.721 -0.3225  0.9046 -0.7217
 6627TIP3    H244077   4.267   2.747   3.697  1.6653 -1.5951  3.3263
 6628TIP3   OH244078   3.105   0.732   0.883  0.5206  0.1970  0.2201
 6628TIP3    H144079   3.192   0.772   0.892 -0.1770  1.9996 -0.5472
 6628TIP3    H244080   3.044   0.805   0.891 -1.1805 -1.3277  3.5588
 6629TIP3   OH244081   0.653   5.435   3.521  0.5488 -0.1023  0.3833
 6629TIP3    H144082   0.619   5.474   3.441  1.5726  0.2114  0.0813
 6629TIP3    H244083   0.581   5.441   3.583  0.3650  1.3923  0.0638
 6630TIP3   OH244084   4.770   0.489   2.768 -0.0514 -0.3671  0.2733
 6630TIP3    H144085   4.847   0.446   2.806  1.2176  0.6602 -0.9894
 6630TIP3    H244086   4.696   0.433   2.793  1.1903 -1.8006  0.9143
 6631TIP3   OH244087   4.782   1.719   3.107 -0.0832 -0.1706 -0.5944
 6631TIP3    H144088   4.693   1.689   3.127  0.3619 -1.1695 -0.0615
 6631TIP3    H244089   4.800   1.785   3.174 -0.8990  1.0318 -1.5053
 6632TIP3   OH244090   6.231   3.550   2.548  0.3075  0.1053  0.0320
 6632TIP3    H144091   6.291   3.622   2.527  0.6436 -0.2338 -0.1652
 6632TIP3    H244092   6.145   3.582   2.518  0.2964  0.7855  0.7427
 6633TIP3   OH244093   2.859   2.242   4.128  0.0158 -0.0937 -0.3626
 6633TIP3    H144094   2.925   2.257   4.196 -0.5480  2.9478 -0.3519
 6633TIP3    H244095   2.892   2.289   4.052 -2.1347  1.5891 -0.3306
 6634TIP3   OH244096   6.384   2.516   2.882 -0.1274  0.6936  0.4803
 6634TIP3    H144097   6.385   2.469   2.965 -2.4168  0.6510  0.5531
 6634TIP3    H244098   6.401   2.607   2.905  2.2653  0.2894  0.5755
 6635TIP3   OH244099   3.357   2.072   0.511 -0.0179  0.5520 -0.3802
 6635TIP3    H144100   3.334   2.085   0.603 -0.7449 -0.6276 -0.3658
 6635TIP3    H244101   3.445   2.033   0.514 -0.3300 -0.1667 -0.1242
 6636TIP3   OH244102   1.166   1.226   2.712  0.7208  0.3322 -0.0998
 6636TIP3    H144103   1.156   1.141   2.669 -0.9138 -1.0399  2.6847
 6636TIP3    H244104   1.141   1.289   2.645  1.9089 -1.3199 -2.2483
 6637TIP3   OH244105   2.283   2.826   2.303 -0.1591  0.4962  0.4202
 6637TIP3    H144106   2.294   2.908   2.350 -0.1446  0.3239  0.7170
 6637TIP3    H244107   2.341   2.834   2.227  0.9090  0.1925  1.1835
 6638TIP3   OH244108   2.002   0.521   1.473  0.1110  0.0222 -0.4665
 6638TIP3    H144109   2.066   0.554   1.537 -1.3979  0.3600  0.9288
 6638TIP3    H244110   2.030   0.430   1.458  0.8182  0.1020  0.2542
 6639TIP3   OH244111   4.255   0.382   2.947  0.1863 -1.3948  0.2292
 6639TIP3    H144112   4.235   0.402   3.039 -0.0513 -0.5340  0.0079
 6639TIP3    H244113   4.343   0.417   2.933 -0.2248 -0.4689 -0.1597
 6640TIP3   OH244114   0.425   0.467   0.724  0.0496 -0.3067  0.7122
 6640TIP3    H144115   0.444   0.433   0.636  0.6633  0.8813  0.3662
 6640TIP3    H244116   0.396   0.390   0.773  1.3021 -1.3126 -0.0502
 6641TIP3   OH244117   0.959   3.556   4.155 -0.1648 -0.0307 -0.2235
 6641TIP3    H144118   1.035   3.499   4.144 -1.6444 -2.5537  1.5634
 6641TIP3    H244119   0.916   3.555   4.070  1.2901  0.7741 -1.0210
 6642TIP3   OH244120   1.018   4.956   1.103  0.5203 -0.0653 -0.2685
 6642TIP3    H144121   1.030   4.865   1.130 -1.8065 -0.4764 -0.3865
 6642TIP3    H244122   1.106   4.986   1.079  1.1416 -2.7943 -1.8149
 6643TIP3   OH244123   6.535   3.550   1.107 -0.1412 -0.2960  0.1780
 6643TIP3    H144124   6.491   3.593   1.034  0.7163 -1.1945 -0.9004
 6643TIP3    H244125   6.470   3.490   1.143 -1.1873  1.4950  1.3890
 6644TIP3   OH244126   4.868   1.485   1.348  0.3996 -0.0276  0.2538
 6644TIP3    H144127   4.787   1.509   1.392 -0.5871 -1.2934 -0.8147
 6644TIP3    H244128   4.870   1.390   1.353 -0.8748 -0.4849 -4.2340
 6645TIP3   OH244129   4.021   3.182   0.853  0.6935 -0.4410  0.5096
 6645TIP3    H144130   3.974   3.138   0.923 -0.7456  0.2068 -0.0120
 6645TIP3    H244131   4.051   3.111   0.796  0.0291 -0.8581  0.6710
 6646TIP3   OH244132   1.622   1.014   1.893  0.3015  0.0387 -0.1443
 6646TIP3    H144133   1.617   1.009   1.797  0.2560  0.2839 -0.1567
 6646TIP3    H244134   1.533   0.994   1.923  0.5293 -0.9760 -0.1049
 6647TIP3   OH244135   4.083   3.503   3.815 -0.3915 -0.3768 -0.5976
 6647TIP3    H144136   4.081   3.408   3.828  0.9753 -0.4558 -0.7266
 6647TIP3    H244137   4.132   3.514   3.733  1.8596  0.4845  0.7722
 6648TIP3   OH244138   6.058   2.318   3.341 -0.1234 -0.4151 -0.0383
 6648TIP3    H144139   6.039   2.298   3.433 -2.0223 -1.0317 -0.5140
 6648TIP3    H244140   6.003   2.394   3.321  1.9241  1.1351 -0.1233
 6649TIP3   OH244141   6.017   0.929   2.561  0.0660  0.2282 -0.1213
 6649TIP3    H144142   6.058   0.847   2.588  2.0822  1.7257  1.8301
 6649TIP3    H244143   6.056   0.949   2.476 -0.5690 -0.8849 -0.6849
 6650TIP3   OH244144   1.389   6.768   1.797 -0.1287  0.0818  0.3110
 6650TIP3    H144145   1.467   6.787   1.745  0.5479  0.5231  1.4769
 6650TIP3    H244146   1.316   6.792   1.739  0.6136  1.4162 -0.1179
 6651TIP3   OH244147   2.034   4.809   0.608 -0.4563 -0.0820  0.4949
 6651TIP3    H144148   2.048   4.854   0.692 -0.3773 -0.9473  0.9641
 6651TIP3    H244149   2.117   4.766   0.591 -0.9390 -1.1478  0.7485
 6652TIP3   OH244150   4.221   1.127   2.822  0.4910 -0.3079 -0.4099
 6652TIP3    H144151   4.155   1.062   2.796 -0.6506  0.8095 -0.3959
 6652TIP3    H244152   4.273   1.141   2.742 -2.0354  1.9705 -1.8293
 6653TIP3   OH244153   0.273   2.666   1.029  0.0776  0.2263  0.0090
 6653TIP3    H144154   0.295   2.688   0.938  0.5748  0.4706  0.1804
 6653TIP3    H244155   0.178   2.667   1.032  0.0681  1.1145 -0.3021
 6654TIP3   OH244156   5.246   0.482   1.381 -0.8729  0.0419  0.6556
 6654TIP3    H144157   5.213   0.537   1.452  1.2090  0.1195  1.6410
 6654TIP3    H244158   5.342   0.483   1.392 -0.5515 -0.7250 -1.5889
 6655TIP3   OH244159   5.630   5.943   3.016 -0.4374 -0.0003 -0.2594
 6655TIP3    H144160   5.684   6.012   2.978 -2.1832  1.5587 -0.0229
 6655TIP3    H244161   5.590   5.899   2.940 -0.9862  0.6528 -0.3535
 6656TIP3   OH244162   5.387   5.966   1.490 -0.0620  0.1338  0.0421
 6656TIP3    H144163   5.397   6.016   1.409  1.8146 -0.3966 -0.0943
 6656TIP3    H244164   5.306   5.915   1.477 -0.0894  0.4844 -1.2465
 6657TIP3   OH244165   6.078   6.639   4.497  0.2957  0.3207 -0.2207
 6657TIP3    H144166   6.119   6.602   4.419  0.9459 -1.0113  0.7114
 6657TIP3    H244167   6.050   6.563   4.548  0.2779  1.1451  1.0457
 6658TIP3   OH244168   3.396   6.596   2.118  0.3654 -0.0598  0.1549
 6658TIP3    H144169   3.322   6.623   2.063 -0.5571  0.8055  1.7695
 6658TIP3    H244170   3.429   6.517   2.075 -2.0728 -1.0202 -0.1145
 6659TIP3   OH244171   3.979   4.999   1.523 -0.6441  0.2272 -0.3401
 6659TIP3    H144172   4.062   5.005   1.475 -0.2718  1.0030  0.3972
 6659TIP3    H244173   3.965   5.086   1.560 -1.7464  0.0808 -0.3742
 6660TIP3   OH244174   1.068   0.233   3.452  0.3991 -0.0220  0.1086
 6660TIP3    H144175   1.071   0.226   3.547  0.5285 -1.1057  0.0381
 6660TIP3    H244176   1.155   0.262   3.427  0.2426  0.6660  0.3435
 6661TIP3   OH244177   3.371   2.650   0.519  0.2252  0.3757 -0.6459
 6661TIP3    H144178   3.283   2.685   0.528 -0.7388 -1.8991 -0.6567
 6661TIP3    H244179   3.415   2.673   0.600 -0.5164  1.1155 -0.4410
 6662TIP3   OH244180   0.023   4.225   2.730 -0.2697  0.0379  0.1563
 6662TIP3    H144181  -0.072   4.216   2.730 -0.1651 -1.2138 -0.4366
 6662TIP3    H244182   0.052   4.179   2.651  0.6880  2.1607 -0.8436
 6663TIP3   OH244183   2.996   3.941   1.492 -0.3237  0.2768 -0.0198
 6663TIP3    H144184   3.085   3.965   1.515 -0.1328 -1.6545  1.5981
 6663TIP3    H244185   2.947   4.023   1.496  1.4845  1.5696 -1.9517
 6664TIP3   OH244186   2.523   1.086   1.445 -0.4593 -0.7886  0.2998
 6664TIP3    H144187   2.567   1.047   1.369 -0.8164  0.6385 -0.6861
 6664TIP3    H244188   2.505   1.012   1.503  0.2228 -1.8582 -0.7964
 6665TIP3   OH244189   2.754   1.897   3.369 -0.3115  0.5877  0.6619
 6665TIP3    H144190   2.830   1.890   3.428 -1.5077  0.0817  2.2236
 6665TIP3    H244191   2.714   1.810   3.372 -0.1584  0.4181 -1.3036
 6666TIP3   OH244192   1.896   5.166   3.506  0.0916 -0.3308  0.0956
 6666TIP3    H144193   1.924   5.144   3.417  2.1509 -1.0347  0.8597
 6666TIP3    H244194   1.934   5.252   3.523  0.1791 -0.4453  0.4892
 6667TIP3   OH244195   1.994   1.551   3.105 -0.2658  0.1086  0.0586
 6667TIP3    H144196   2.021   1.569   3.015  1.1512  0.1445  0.4603
 6667TIP3    H244197   1.905   1.584   3.110 -1.5884 -2.7259 -2.2095
 6668TIP3   OH244198   4.689   4.089   1.315  0.0551 -0.2665  0.0312
 6668TIP3    H144199   4.766   4.142   1.337  0.2332 -0.4621 -0.1097
 6668TIP3    H244200   4.696   4.012   1.371  0.1810 -0.4738 -0.2613
 6669TIP3   OH244201   3.613   2.530   3.346  0.0475  0.3731  0.1453
 6669TIP3    H144202   3.591   2.437   3.347  1.9114 -0.1029  0.4946
 6669TIP3    H244203   3.682   2.539   3.412 -0.0058  1.9876  0.0235
 6670TIP3   OH244204   5.871   5.811   1.031  0.2764  0.2298  0.2222
 6670TIP3    H144205   5.811   5.836   1.101  1.6001  1.6831  0.9057
 6670TIP3    H244206   5.910   5.893   1.002 -0.8424 -0.1976 -2.8837
 6671TIP3   OH244207   6.643   2.182   2.904 -0.0908 -0.1650  0.0402
 6671TIP3    H144208   6.685   2.248   2.959  1.4540  0.4161 -1.7324
 6671TIP3    H244209   6.556   2.218   2.887 -0.1190  0.2706  1.0145
 6672TIP3   OH244210   5.578   1.448   2.355 -1.3679 -0.2316  0.3444
 6672TIP3    H144211   5.571   1.363   2.399 -0.7685 -1.8365 -2.3999
 6672TIP3    H244212   5.521   1.440   2.279  0.2182  1.0478 -1.0566
 6673TIP3   OH244213   2.073   4.839   1.548 -0.4745 -0.1557  0.3677
 6673TIP3    H144214   2.086   4.750   1.514  0.5158  0.4445 -0.9274
 6673TIP3    H244215   1.992   4.869   1.508  1.6968  1.3035 -3.3994
 6674TIP3   OH244216   2.972   2.866   3.400 -0.1296  0.2915 -0.2809
 6674TIP3    H144217   3.062   2.879   3.372 -0.1432  1.8432  0.3040
 6674TIP3    H244218   2.967   2.774   3.425  2.0327  0.7583  2.2426
 6675TIP3   OH244219   0.034   6.487   1.356  0.2395 -0.4411  0.2745
 6675TIP3    H144220  -0.013   6.566   1.384  1.1825  0.0123  0.6036
 6675TIP3    H244221   0.039   6.494   1.261  0.2720 -0.1320  0.2987
 6676TIP3   OH244222   2.624   2.193   3.402 -0.3931 -0.1843  0.5114
 6676TIP3    H144223   2.703   2.139   3.396  0.5158  1.1338  0.0201
 6676TIP3    H244224   2.582   2.185   3.316 -0.4401 -0.3603  0.5503
 6677TIP3   OH244225   6.103   3.021   3.352 -0.3738  0.1650 -0.9592
 6677TIP3    H144226   6.072   3.112   3.349 -2.1848 -0.4120 -0.6392
 6677TIP3    H244227   6.028   2.971   3.385  1.4079 -1.1068  1.4537
 6678TIP3   OH244228   1.642   6.787   1.573 -0.2741 -0.5207  0.1386
 6678TIP3    H144229   1.571   6.836   1.531 -0.5865 -0.2527  0.9655
 6678TIP3    H244230   1.722   6.836   1.550 -0.8036  2.3793  3.5393
 6679TIP3   OH244231   5.266   5.476   1.372 -0.2101 -0.1868  0.2181
 6679TIP3    H144232   5.247   5.554   1.322 -2.4226 -1.7748 -1.6248
 6679TIP3    H244233   5.199   5.473   1.440  0.5363  0.0554  0.9832
 6680TIP3   OH244234   3.331   0.624   2.379  0.1523  0.2518  0.4146
 6680TIP3    H144235   3.299   0.669   2.457 -0.9252 -0.3376  0.3283
 6680TIP3    H244236   3.313   0.684   2.307 -1.7934 -0.4886  0.2268
 6681TIP3   OH244237   1.547   5.469   3.356  0.6492  0.0756  0.4594
 6681TIP3    H144238   1.539   5.430   3.270 -0.0214  0.0738  0.5159
 6681TIP3    H244239   1.525   5.399   3.417 -1.8526  0.8165  0.5214
 6682TIP3   OH244240   0.873   6.313   3.320  0.2399  0.4385  0.0870
 6682TIP3    H144241   0.880   6.369   3.243 -0.2996 -0.4995 -0.6714
 6682TIP3    H244242   0.830   6.367   3.386 -1.8095  0.4339 -1.1623
 6683TIP3   OH244243   0.227   5.005   1.700 -0.7131 -0.2467  0.3042
 6683TIP3    H144244   0.140   4.965   1.695 -0.7872 -0.0480 -0.0586
 6683TIP3    H244245   0.219   5.086   1.648 -0.2419 -0.3632  0.0451
 6684TIP3   OH244246   4.569   0.646   1.555 -0.9494  0.1018 -0.8671
 6684TIP3    H144247   4.524   0.728   1.577 -3.1944 -1.6204  1.5194
 6684TIP3    H244248   4.502   0.591   1.516 -0.3701 -1.7402  0.6141
 6685TIP3   OH244249   3.068   2.619   1.646 -0.5595 -0.2742  0.0692
 6685TIP3    H144250   3.079   2.524   1.636 -0.9231 -0.1753 -1.5594
 6685TIP3    H244251   2.973   2.633   1.644 -0.5025  0.1420  0.1511
 6686TIP3   OH244252   6.221   1.090   1.606  0.1182 -0.2425  0.6153
 6686TIP3    H144253   6.203   0.998   1.587 -0.6903 -0.0912  0.5837
 6686TIP3    H244254   6.266   1.122   1.528 -0.5889 -0.3465  0.1464
 6687TIP3   OH244255   6.029   2.261   1.630 -0.0100 -0.1959  0.1377
 6687TIP3    H144256   6.065   2.260   1.541 -0.2295  0.8584  0.0215
 6687TIP3    H244257   6.102   2.289   1.685  0.2420 -1.2522  0.3575
 6688TIP3   OH244258   4.143   1.469   2.448 -0.7620  0.2346 -0.6886
 6688TIP3    H144259   4.239   1.471   2.446 -0.7027  1.1235  1.3601
 6688TIP3    H244260   4.118   1.545   2.500 -2.5997 -0.1019 -1.0066
 6689TIP3   OH244261   0.335   3.389   3.822 -0.6231 -0.0692 -0.3253
 6689TIP3    H144262   0.253   3.345   3.842  0.3291 -1.9246 -0.1900
 6689TIP3    H244263   0.400   3.346   3.878  0.6940  0.2125 -1.5505
 6690TIP3   OH244264   3.297   3.329   2.175  0.5093 -0.1457  0.5703
 6690TIP3    H144265   3.315   3.251   2.226  1.8983 -0.2892 -0.1154
 6690TIP3    H244266   3.376   3.382   2.182  0.1965  0.4619 -0.2932
 6691TIP3   OH244267   0.225   6.280   1.358  0.2333 -0.3681 -0.2884
 6691TIP3    H144268   0.269   6.362   1.380  0.7659 -0.8998  0.6822
 6691TIP3    H244269   0.132   6.302   1.357  0.3976  0.3343 -0.4367
 6692TIP3   OH244270   3.307   4.685   2.805  0.4582 -0.1860 -0.0353
 6692TIP3    H144271   3.305   4.613   2.742  1.7177 -1.9124  1.7579
 6692TIP3    H244272   3.319   4.642   2.890 -1.4694  1.9993  1.4601
 6693TIP3   OH244273   0.625   2.099   3.595 -0.0682 -0.1855 -0.1910
 6693TIP3    H144274   0.706   2.135   3.632  0.2728 -1.0132 -0.1058
 6693TIP3    H244275   0.559   2.166   3.611  0.9615  1.3468 -1.9132
 6694TIP3   OH244276   1.525   4.675   2.109 -0.0405  0.0518  0.5985
 6694TIP3    H144277   1.580   4.639   2.039 -0.2233  1.9249 -0.5733
 6694TIP3    H244278   1.582   4.675   2.186  1.4275  1.2600 -0.4137
 6695TIP3   OH244279   6.458   0.494   0.954  0.1280  0.3330 -0.4621
 6695TIP3    H144280   6.521   0.521   0.887  1.0930 -1.5852 -0.3976
 6695TIP3    H244281   6.412   0.420   0.915 -1.1099  0.8139  0.0465
 6696TIP3   OH244282   6.011   5.758   2.320  0.2312  0.3599 -0.3158
 6696TIP3    H144283   6.015   5.806   2.402  1.1626 -0.0551 -0.1051
 6696TIP3    H244284   6.036   5.823   2.253 -0.5598  0.7052 -0.2911
 6697TIP3   OH244285   5.051   5.394   1.504 -0.2546 -0.2450 -0.7805
 6697TIP3    H144286   4.988   5.375   1.573  0.2170  2.8338  0.6561
 6697TIP3    H244287   5.000   5.441   1.438  0.0860  0.4029 -0.5906
 6698TIP3   OH244288   0.286   0.373   1.122  0.1526  0.0328  0.5073
 6698TIP3    H144289   0.298   0.358   1.028 -1.5292  1.6029 -0.0120
 6698TIP3    H244290   0.357   0.433   1.146  0.1638  0.1943  0.0781
 6699TIP3   OH244291   5.898   0.620   0.868  0.0506  0.4934  0.4344
 6699TIP3    H144292   5.986   0.649   0.845 -0.1130 -0.0543 -1.0065
 6699TIP3    H244293   5.911   0.546   0.928  0.7054 -1.2163 -1.6755
 6700TIP3   OH244294   2.532   3.897   0.985  0.3497 -0.0714 -0.5571
 6700TIP3    H144295   2.587   3.818   0.988  0.4822 -0.0549 -1.8851
 6700TIP3    H244296   2.444   3.865   1.004  0.5703 -0.3469  0.0403
 6701TIP3   OH244297   0.683   2.082   2.245  0.2211 -0.3164  0.1727
 6701TIP3    H144298   0.604   2.048   2.203  0.7202 -0.7074 -0.4633
 6701TIP3    H244299   0.653   2.159   2.293 -0.6639 -0.8201  0.4606
 6702TIP3   OH244300   3.276   2.376   0.537 -0.0943  0.0126  0.7357
 6702TIP3    H144301   3.295   2.318   0.462 -1.2049 -2.3561  2.1546
 6702TIP3    H244302   3.339   2.447   0.529  1.1011 -1.1679 -1.3811
 6703TIP3   OH244303   6.287   4.068   1.050  0.3632  0.4754  0.1329
 6703TIP3    H144304   6.343   4.019   0.990  0.8863 -0.3440  1.2555
 6703TIP3    H244305   6.295   4.159   1.022 -1.7585 -0.1245 -2.9350
 6704TIP3   OH244306   2.422   3.647   1.625  0.1368 -0.1603  0.2546
 6704TIP3    H144307   2.340   3.659   1.577 -0.6249 -3.5966  0.3964
 6704TIP3    H244308   2.404   3.681   1.713 -1.0054 -0.4370  0.1428
 6705TIP3   OH244309   1.059   0.721   3.814 -0.0133  0.3487  0.1404
 6705TIP3    H144310   1.043   0.808   3.852 -2.6690 -0.2531  0.5709
 6705TIP3    H244311   1.050   0.661   3.888  1.9669 -0.3412 -0.1172
 6706TIP3   OH244312   2.558   6.769   0.878  0.3201 -0.5808 -0.2474
 6706TIP3    H144313   2.493   6.714   0.833 -1.5801 -1.0021  2.7109
 6706TIP3    H244314   2.539   6.858   0.848 -1.9977 -0.6433  0.8001
 6707TIP3   OH244315   6.720   5.214   3.947 -0.6087  0.8046 -0.8398
 6707TIP3    H144316   6.812   5.195   3.965 -0.6176  1.4250 -0.0672
 6707TIP3    H244317   6.720   5.251   3.859 -0.0283  1.3842 -0.6043
 6708TIP3   OH244318   0.073   0.044   0.923  0.0996 -0.1300 -0.3955
 6708TIP3    H144319   0.158   0.081   0.948 -0.0515  0.3261 -0.5469
 6708TIP3    H244320   0.029   0.115   0.876 -0.7932 -0.0063  0.5934
 6709TIP3   OH244321   0.441   5.291   0.759 -0.0633  0.2462  0.2199
 6709TIP3    H144322   0.477   5.380   0.755  0.2139  0.1122 -0.6206
 6709TIP3    H244323   0.347   5.303   0.767  0.0236  0.6163  0.6821
 6710TIP3   OH244324   3.007   6.161   3.873  0.3102 -0.2360 -0.4871
 6710TIP3    H144325   3.102   6.147   3.864  0.1871  0.1665 -3.7080
 6710TIP3    H244326   2.973   6.076   3.901  1.3631 -1.3538 -2.3591
 6711TIP3   OH244327   5.207   0.717   3.797 -0.1055 -0.0327  0.3500
 6711TIP3    H144328   5.164   0.803   3.791  1.6213  0.8082 -0.8007
 6711TIP3    H244329   5.135   0.655   3.807 -1.4750  1.4647  0.1802
 6712TIP3   OH244330   3.018   3.896   2.484 -0.0400  0.3150 -1.3347
 6712TIP3    H144331   2.995   3.978   2.440 -0.8989 -0.8117 -3.1177
 6712TIP3    H244332   2.945   3.879   2.542  0.6077  1.2758 -0.1808
 6713TIP3   OH244333   4.254   4.230   1.026 -0.6942 -0.4697  0.4649
 6713TIP3    H144334   4.290   4.317   1.010 -0.8456 -0.6552 -1.0507
 6713TIP3    H244335   4.320   4.186   1.079 -0.2302  0.2970  0.5368
 6714TIP3   OH244336   2.924   5.845   1.413  0.0677 -0.0915  0.3749
 6714TIP3    H144337   3.017   5.825   1.424  0.6745  2.3807  0.3417
 6714TIP3    H244338   2.902   5.810   1.327  0.8598 -0.9872  0.5185
 6715TIP3   OH244339   4.744   6.209   2.453  0.1245 -0.7359  0.2013
 6715TIP3    H144340   4.756   6.234   2.545  1.2959  1.2325 -0.4144
 6715TIP3    H244341   4.651   6.225   2.436 -0.2890 -1.8810  1.2093
 6716TIP3   OH244342   3.694   6.737   2.342  0.2052 -0.5863  0.0293
 6716TIP3    H144343   3.738   6.653   2.330  2.4916  0.5845 -0.2616
 6716TIP3    H244344   3.749   6.800   2.296 -2.5662  0.8246 -1.6120
 6717TIP3   OH244345   1.788   5.134   2.849 -0.2432 -0.5138  0.8255
 6717TIP3    H144346   1.791   5.200   2.919  4.5493  1.6525 -0.9651
 6717TIP3    H244347   1.847   5.065   2.878  0.3266 -0.4944 -0.2376
 6718TIP3   OH244348   6.831   5.822   1.771  0.0962 -0.2419  0.7151
 6718TIP3    H144349   6.827   5.771   1.852 -0.7820 -2.3808 -0.5823
 6718TIP3    H244350   6.900   5.781   1.720  0.9168  1.3438  0.5131
 6719TIP3   OH244351   2.741   4.239   3.563 -0.3205  0.0447 -0.2746
 6719TIP3    H144352   2.771   4.148   3.560 -0.8577 -0.1230 -0.8155
 6719TIP3    H244353   2.646   4.233   3.563 -0.3711  0.5952  0.4851
 6720TIP3   OH244354   3.253   1.438   0.965 -0.0779  0.6494  0.2490
 6720TIP3    H144355   3.282   1.511   1.020 -0.2964  1.0450 -0.1496
 6720TIP3    H244356   3.158   1.434   0.980 -0.6003  2.4412 -2.0152
 6721TIP3   OH244357   3.839   1.415   3.316  0.2827  0.6452 -0.6936
 6721TIP3    H144358   3.844   1.506   3.344 -0.7451  0.4513  0.2058
 6721TIP3    H244359   3.775   1.375   3.375  1.4990 -0.9313 -0.3603
 6722TIP3   OH244360   4.386   6.819   3.225 -0.1779 -0.4015  0.4321
 6722TIP3    H144361   4.340   6.867   3.156  1.8050  0.9209 -0.0336
 6722TIP3    H244362   4.467   6.789   3.184  0.4037 -0.8067  1.8057
 6723TIP3   OH244363   2.854   3.820   3.698 -0.2182  0.4656 -0.1328
 6723TIP3    H144364   2.939   3.800   3.738  0.1402  0.6513 -0.7747
 6723TIP3    H244365   2.790   3.786   3.760  0.3345 -1.4845 -0.5398
 6724TIP3   OH244366   6.309   5.613   1.806 -0.5008  0.0000 -0.0633
 6724TIP3    H144367   6.385   5.600   1.749  0.0010  0.3476  0.5121
 6724TIP3    H244368   6.258   5.682   1.762 -0.2971  0.0215 -0.2702
 6725TIP3   OH244369   1.867   1.515   1.809 -0.3967 -0.1321  0.7227
 6725TIP3    H144370   1.862   1.439   1.751  3.3545 -0.7701  0.9296
 6725TIP3    H244371   1.896   1.587   1.753  0.6581 -0.0944  1.2732
 6726TIP3   OH244372   2.213   2.655   2.657  0.1995 -0.2079 -0.1612
 6726TIP3    H144373   2.149   2.633   2.590 -1.8028  0.0576  1.5662
 6726TIP3    H244374   2.207   2.584   2.721  0.9875  0.2590  0.4595
 6727TIP3   OH244375   0.897   0.480   2.803 -0.0993  0.3374  0.2866
 6727TIP3    H144376   0.943   0.484   2.886 -1.0835 -1.2011  0.9442
 6727TIP3    H244377   0.831   0.413   2.815  0.3365 -0.6233 -2.0361
 6728TIP3   OH244378   0.801   1.354   1.962 -0.2101  0.3380 -0.1428
 6728TIP3    H144379   0.792   1.328   2.054 -1.0805  1.0127 -0.0173
 6728TIP3    H244380   0.723   1.319   1.919  0.7777 -1.0087 -0.8988
 6729TIP3   OH244381   0.254   4.960   2.491  0.3957 -0.0984  0.0074
 6729TIP3    H144382   0.341   4.969   2.451  0.6674  0.0227  0.6215
 6729TIP3    H244383   0.240   4.865   2.497 -0.0056 -0.1265 -1.1353
 6730TIP3   OH244384   0.180   1.086   1.857 -0.4892 -0.5704  0.0809
 6730TIP3    H144385   0.146   1.056   1.942 -1.3915  3.1084  1.1820
 6730TIP3    H244386   0.269   1.113   1.876 -0.3791 -0.6029 -0.3943
 6731TIP3   OH244387   0.601   0.826   3.897 -0.0751 -0.2712  0.5607
 6731TIP3    H144388   0.600   0.821   3.992  0.0759 -1.0188  0.5293
 6731TIP3    H244389   0.645   0.745   3.869  0.1863  0.0976 -0.1303
 6732TIP3   OH244390   5.122   6.484   1.524  0.2760 -0.1786  0.0661
 6732TIP3    H144391   5.163   6.447   1.602  0.4295 -2.5671 -1.0874
 6732TIP3    H244392   5.181   6.463   1.452  0.1047  1.9057 -0.7830
 6733TIP3   OH244393   2.674   1.277   3.032 -0.0196  0.1793 -0.1600
 6733TIP3    H144394   2.753   1.300   3.080  0.7597 -1.1041 -0.7574
 6733TIP3    H244395   2.665   1.346   2.966  0.1622  0.7463  0.4044
 6734TIP3   OH244396   5.864   0.233   2.366 -0.2139 -0.4268  0.4606
 6734TIP3    H144397   5.920   0.193   2.433  0.2410 -2.0219 -0.7936
 6734TIP3    H244398   5.925   0.269   2.302 -0.5886 -1.1240 -0.3183
 6735TIP3   OH244399   3.150   5.217   1.888  0.4395  0.1325 -0.0280
 6735TIP3    H144400   3.223   5.228   1.949  1.2354  1.2640 -1.1386
 6735TIP3    H244401   3.165   5.283   1.820 -2.4318  1.5009  0.4867
 6736TIP3   OH244402   4.916   3.396   4.046  0.1727  0.4630  0.0808
 6736TIP3    H144403   4.924   3.402   3.951  1.5488  0.2373  0.1636
 6736TIP3    H244404   4.842   3.337   4.060 -0.2756  0.7851 -0.8381
 6737TIP3   OH244405   5.905   5.850   2.863 -0.1981  0.2917  0.5855
 6737TIP3    H144406   5.938   5.841   2.953 -0.8133 -1.6184  0.6551
 6737TIP3    H244407   5.868   5.938   2.861 -0.1126  0.4018  2.1937
 6738TIP3   OH244408   2.578   2.499   3.688  0.5458 -0.7152 -0.3199
 6738TIP3    H144409   2.547   2.512   3.777  0.8425  2.0983 -0.5344
 6738TIP3    H244410   2.544   2.413   3.662  1.4552 -2.1845  2.8606
 6739TIP3   OH244411   2.612   4.234   3.978 -0.5884  0.2039 -0.0475
 6739TIP3    H144412   2.658   4.289   3.914 -1.4401  0.4265 -0.4756
 6739TIP3    H244413   2.682   4.196   4.031  0.2417 -0.8790 -1.8117
 6740TIP3   OH244414   3.714   2.561   0.641  0.3727  0.3624  0.4852
 6740TIP3    H144415   3.658   2.506   0.587 -1.8734  1.2489  1.7751
 6740TIP3    H244416   3.766   2.612   0.579 -2.5771  1.8562 -0.9909
 6741TIP3   OH244417   6.469   6.040   0.394 -0.5130  0.1544  0.0318
 6741TIP3    H144418   6.385   6.004   0.366 -1.8186  0.0642  3.5708
 6741TIP3    H244419   6.532   5.970   0.378 -1.2435 -0.1609 -1.7116
 6742TIP3   OH244420   2.665   3.675   1.355  0.3975 -0.1976 -0.0467
 6742TIP3    H144421   2.734   3.660   1.420  1.1620 -0.5234 -0.9193
 6742TIP3    H244422   2.632   3.588   1.335 -0.3293 -0.0345  0.4238
 6743TIP3   OH244423   0.400   4.791   2.859  0.4436  0.5295  0.2308
 6743TIP3    H144424   0.424   4.861   2.798  1.8694  0.1846  0.3427
 6743TIP3    H244425   0.417   4.829   2.946  1.1154  0.1147  0.2960
 6744TIP3   OH244426   1.569   5.982   2.317  0.5701  0.3166 -0.0896
 6744TIP3    H144427   1.534   5.954   2.232  1.6704  0.9221 -0.7687
 6744TIP3    H244428   1.637   5.918   2.337  1.0661  0.7930 -0.2139
 6745TIP3   OH244429   4.427   2.994   1.554 -0.0316 -0.0853  0.5915
 6745TIP3    H144430   4.397   2.963   1.468  1.3439 -2.5875  0.9252
 6745TIP3    H244431   4.522   2.984   1.551  0.5596  3.8433  0.9859
 6746TIP3   OH244432   4.264   0.624   2.253 -0.0229 -0.1743  0.3077
 6746TIP3    H144433   4.357   0.616   2.232  0.7479  0.9365  2.9168
 6746TIP3    H244434   4.237   0.708   2.215  0.4619  0.2107  0.7977
 6747TIP3   OH244435   2.862   1.182   0.673  0.1402 -0.2937 -0.3613
 6747TIP3    H144436   2.803   1.245   0.632  0.5540 -0.0515 -0.5743
 6747TIP3    H244437   2.881   1.119   0.604 -0.7156 -0.9789 -0.0030
 6748TIP3   OH244438   3.995   1.679   2.346  0.4217 -0.2962  0.0309
 6748TIP3    H144439   4.001   1.775   2.354  3.2163 -0.3977  0.1346
 6748TIP3    H244440   4.084   1.652   2.323 -0.9326 -2.6472 -3.0368
 6749TIP3   OH244441   3.712   6.548   1.787 -0.1463  0.4899  0.1136
 6749TIP3    H144442   3.750   6.464   1.813 -0.4678 -0.0901 -1.1902
 6749TIP3    H244443   3.765   6.576   1.713 -1.2579  0.4349 -0.7369
 6750TIP3   OH244444   2.156   5.465   1.614  0.4814  0.3938 -0.0596
 6750TIP3    H144445   2.224   5.503   1.558  0.8925  1.8936  1.3974
 6750TIP3    H244446   2.075   5.475   1.563  1.2587 -1.2038 -1.7097
 6751TIP3   OH244447   5.398   0.344   4.364 -0.4309 -0.6151  0.0153
 6751TIP3    H144448   5.361   0.315   4.448 -0.0264 -3.6439 -0.7238
 6751TIP3    H244449   5.491   0.358   4.383 -0.2789 -1.5946  0.0347
 6752TIP3   OH244450   4.447   0.600   3.234 -0.2116  0.3186  0.2591
 6752TIP3    H144451   4.519   0.650   3.197 -0.7349  1.6543  0.9894
 6752TIP3    H244452   4.448   0.622   3.327 -0.2324 -1.3349  0.6867
 6753TIP3   OH244453   5.595   4.538   2.273 -0.3422  0.6446 -0.2800
 6753TIP3    H144454   5.599   4.599   2.199 -1.3192  0.5649 -0.4132
 6753TIP3    H244455   5.524   4.478   2.250 -1.9984  1.7844  1.6018
 6754TIP3   OH244456   2.383   2.760   1.575 -0.1250  0.3182  0.2618
 6754TIP3    H144457   2.297   2.790   1.602 -0.5500 -1.6141  1.1854
 6754TIP3    H244458   2.445   2.812   1.626 -0.7839  0.6565  0.7158
 6755TIP3   OH244459   5.568   1.411   1.468  0.2695 -0.5547 -0.7824
 6755TIP3    H144460   5.602   1.334   1.423 -0.0465 -0.1111 -1.8194
 6755TIP3    H244461   5.563   1.478   1.400 -1.1876 -0.1604 -0.3259
 6756TIP3   OH244462   1.833   1.124   2.026 -0.0902  0.5939 -0.1550
 6756TIP3    H144463   1.769   1.104   1.958 -1.5101  1.6795  0.7736
 6756TIP3    H244464   1.815   1.061   2.096  0.3300  0.4482 -0.1782
 6757TIP3   OH244465   6.579   4.485   2.257 -0.1383  0.7831  0.4085
 6757TIP3    H144466   6.586   4.430   2.335 -0.9147 -0.2290 -0.2237
 6757TIP3    H244467   6.650   4.549   2.267  1.1491 -0.6613  0.8708
 6758TIP3   OH244468   2.102   3.121   2.205  0.5342 -0.0555  0.1269
 6758TIP3    H144469   2.015   3.081   2.194  0.5360 -0.4035  1.2650
 6758TIP3    H244470   2.103   3.150   2.296  1.0961  1.2243 -0.2613
 6759TIP3   OH244471   0.468   1.777   1.087 -0.0720  0.4493 -0.2720
 6759TIP3    H144472   0.475   1.683   1.107  1.2192  0.2958 -1.3360
 6759TIP3    H244473   0.400   1.782   1.020 -2.0209  0.6075  1.5969
 6760TIP3   OH244474   3.345   6.511   4.396 -0.1352  0.0908  0.5132
 6760TIP3    H144475   3.317   6.597   4.365  0.2752 -0.3791 -1.2810
 6760TIP3    H244476   3.279   6.486   4.460  0.0133  1.9442  1.4376
 6761TIP3   OH244477   0.681   0.944   1.204 -0.5444 -0.0163  0.2084
 6761TIP3    H144478   0.737   0.882   1.251 -1.9341 -1.2751  0.2783
 6761TIP3    H244479   0.672   1.018   1.264  2.0393  0.8369 -0.3166
 6762TIP3   OH244480   5.221   3.223   2.249  0.7883  0.2583 -0.7480
 6762TIP3    H144481   5.235   3.254   2.339  0.6759  0.5796 -0.8386
 6762TIP3    H244482   5.131   3.190   2.249  0.8707  0.0287 -0.6810
 6763TIP3   OH244483   1.077   4.700   1.197  0.1222 -0.1494 -0.1938
 6763TIP3    H144484   1.150   4.669   1.143  0.6039 -1.2601  1.0389
 6763TIP3    H244485   1.042   4.621   1.238 -1.9546  0.3235 -0.9240
 6764TIP3   OH244486   4.053   4.435   3.888 -0.2011  0.7391 -0.8286
 6764TIP3    H144487   4.094   4.349   3.899 -1.8495 -0.1154 -1.1111
 6764TIP3    H244488   4.125   4.497   3.895  0.9200 -0.6226  0.1496
 6765TIP3   OH244489   6.319   6.772   3.671 -0.1462  0.4551  0.2437
 6765TIP3    H144490   6.411   6.754   3.691  0.1138  1.6648  0.2015
 6765TIP3    H244491   6.303   6.858   3.709 -1.1030  0.5024 -0.2529
 6766TIP3   OH244492   1.396   0.730   2.575  0.3750 -0.3423  0.1432
 6766TIP3    H144493   1.381   0.746   2.482  2.2575  0.0857 -0.1198
 6766TIP3    H244494   1.470   0.785   2.597  0.7343 -1.3642  1.6074
 6767TIP3   OH244495   2.869   2.803   1.812 -0.3472  0.0176 -0.2117
 6767TIP3    H144496   2.842   2.894   1.822 -0.7181 -0.0698 -0.3854
 6767TIP3    H244497   2.823   2.773   1.734 -1.7710 -0.8657  0.8967
 6768TIP3   OH244498   1.373   5.775   2.326 -0.2696 -0.0764 -0.0173
 6768TIP3    H144499   1.409   5.702   2.376 -1.1701  0.4310  1.4672
 6768TIP3    H244500   1.328   5.734   2.252  1.8297 -0.7974 -0.9635
 6769TIP3   OH244501   4.429   3.435   1.246  0.0147  0.3139  0.4762
 6769TIP3    H144502   4.457   3.406   1.159 -1.7823 -0.3440  0.0728
 6769TIP3    H244503   4.419   3.355   1.297  0.4658  0.6545  1.1156
 6770TIP3   OH244504   0.863   3.044   1.471  0.1465  0.7708 -0.3691
 6770TIP3    H144505   0.954   3.058   1.500  0.5909 -1.7508 -0.3596
 6770TIP3    H244506   0.834   3.131   1.443  1.7256  2.1526  1.9159
 6771TIP3   OH244507   6.571   3.158   1.292 -0.0782  0.0334  0.4183
 6771TIP3    H144508   6.529   3.141   1.377 -0.7392  0.5556  0.1993
 6771TIP3    H244509   6.523   3.232   1.255  2.7813  2.5488  1.3670
 6772TIP3   OH244510   1.212   2.478   1.948 -0.2818 -0.8098  0.5334
 6772TIP3    H144511   1.192   2.571   1.947 -0.3675 -0.8272  0.6653
 6772TIP3    H244512   1.253   2.461   1.863 -0.5993 -0.7236  0.3627
 6773TIP3   OH244513   1.200   1.065   3.324 -0.0234  0.3799  0.4425
 6773TIP3    H144514   1.242   1.150   3.306 -0.4487  0.9980  2.2110
 6773TIP3    H244515   1.261   1.021   3.384 -0.3010 -0.1578  0.3355
 6774TIP3   OH244516   4.633   2.581   2.326 -0.0164 -0.2462  0.1390
 6774TIP3    H144517   4.680   2.499   2.339  0.8244  0.1133 -0.6015
 6774TIP3    H244518   4.619   2.615   2.415  1.6790 -0.0434  0.3515
 6775TIP3   OH244519   2.632   3.357   2.880  0.1557  0.3695  0.3178
 6775TIP3    H144520   2.618   3.286   2.943 -0.8671  1.8938  1.9161
 6775TIP3    H244521   2.725   3.378   2.888  0.0720  0.4412  1.2309
 6776TIP3   OH244522   0.811   4.193   3.864 -0.0633 -0.2177  0.3130
 6776TIP3    H144523   0.871   4.120   3.879 -0.0342 -0.2711 -0.0578
 6776TIP3    H244524   0.724   4.157   3.881  0.0041 -0.1467  0.8267
 6777TIP3   OH244525   5.860   2.324   2.731 -0.5045  0.1245  0.4100
 6777TIP3    H144526   5.880   2.403   2.680  0.8619 -0.6514 -0.3272
 6777TIP3    H244527   5.907   2.337   2.814 -1.2219  0.5809  0.7503
 6778TIP3   OH244528   1.317   4.715   2.372  0.3713  0.9396 -0.3041
 6778TIP3    H144529   1.334   4.808   2.384  1.5457  0.9501 -1.8479
 6778TIP3    H244530   1.395   4.671   2.407  0.2701  0.5921 -0.5031
 6779TIP3   OH244531   4.843   6.554   1.447  0.3843 -0.4973 -0.3335
 6779TIP3    H144532   4.929   6.575   1.485  0.8462  0.7683 -1.9207
 6779TIP3    H244533   4.787   6.535   1.522  1.6477  0.2696  0.8582
 6780TIP3   OH244534   0.171   6.452   0.756 -0.3572  0.0392  0.0317
 6780TIP3    H144535   0.156   6.366   0.794  1.6266  0.2399  1.4315
 6780TIP3    H244536   0.087   6.497   0.765 -0.9378 -1.1449  0.8689
 6781TIP3   OH244537   5.035   5.344   1.931 -0.3505 -0.0209  0.3982
 6781TIP3    H144538   5.120   5.335   1.887 -0.2529  0.1777  0.5439
 6781TIP3    H244539   5.035   5.434   1.965 -0.9976  0.2934 -0.4016
 6782TIP3   OH244540   2.263   0.251   2.560  0.3699  0.0258 -0.0076
 6782TIP3    H144541   2.288   0.233   2.469 -0.1340  1.1146 -0.3823
 6782TIP3    H244542   2.265   0.347   2.567  0.5232 -0.0503  1.1720
 6783TIP3   OH244543   2.319   6.255   0.946  0.2195  0.1109  0.2389
 6783TIP3    H144544   2.399   6.204   0.957 -0.0760 -0.0030  2.2725
 6783TIP3    H244545   2.268   6.206   0.881  0.6017 -1.3999  1.0230
 6784TIP3   OH244546   0.814   6.257   2.261 -0.0251 -0.1494 -0.4354
 6784TIP3    H144547   0.886   6.264   2.324  0.6701 -1.7378 -0.9982
 6784TIP3    H244548   0.747   6.207   2.307 -0.6010  0.9341 -0.0730
 6785TIP3   OH244549   5.702   3.574   2.285  0.2541 -0.5159 -0.7467
 6785TIP3    H144550   5.743   3.661   2.279 -0.8138  0.0522 -0.0773
 6785TIP3    H244551   5.730   3.530   2.205  1.4846  0.1411 -0.7098
 6786TIP3   OH244552   3.815   4.476   2.756  0.0178  0.4568 -0.1217
 6786TIP3    H144553   3.882   4.429   2.805 -0.9536  0.8657  1.6774
 6786TIP3    H244554   3.857   4.558   2.730 -0.2994  1.7160  2.8848
 6787TIP3   OH244555   4.553   2.967   2.528 -0.0044  0.1307  0.0469
 6787TIP3    H144556   4.621   2.900   2.536 -0.6404 -0.4541  0.6707
 6787TIP3    H244557   4.598   3.049   2.548  0.5251 -0.2365  0.3995
 6788TIP3   OH244558   1.302   6.110   2.168  1.0821  0.0812 -0.1845
 6788TIP3    H144559   1.314   6.178   2.102  3.6111 -0.2784 -0.1998
 6788TIP3    H244560   1.351   6.035   2.134 -1.3397 -1.6720 -0.0024
 6789TIP3   OH244561   3.232   1.026   1.976  0.3032  0.4879 -0.0286
 6789TIP3    H144562   3.293   1.077   2.030  1.5507 -1.6973  0.7468
 6789TIP3    H244563   3.197   0.960   2.035 -1.6723  0.7275 -0.8726
 6790TIP3   OH244564   0.218   4.210   1.959 -0.2223 -0.0891 -0.4455
 6790TIP3    H144565   0.288   4.146   1.969  0.3300  0.5756  0.0058
 6790TIP3    H244566   0.221   4.236   1.867 -1.3923 -1.7609 -1.0039
 6791TIP3   OH244567   3.978   2.596   1.719 -0.2846  0.0103 -0.0454
 6791TIP3    H144568   4.010   2.645   1.795 -0.9161  0.3055  0.0409
 6791TIP3    H244569   3.895   2.639   1.697 -1.5655 -1.8481  0.8664
 6792TIP3   OH244570   3.052   6.234   3.608  0.3081  0.0565 -0.0076
 6792TIP3    H144571   2.994   6.259   3.536  0.0894  1.3219  0.5875
 6792TIP3    H244572   2.993   6.207   3.679  0.5014 -0.3338  0.0105
 6793TIP3   OH244573   0.301   5.818   1.250 -0.2145  0.0392  0.0489
 6793TIP3    H144574   0.270   5.742   1.300  0.8323  0.2060  1.0004
 6793TIP3    H244575   0.278   5.893   1.304 -0.7965  0.3687 -0.6486
 6794TIP3   OH244576   1.622   1.582   0.738 -0.2460  0.2227  0.0199
 6794TIP3    H144577   1.531   1.559   0.756 -0.6825  1.0351 -1.0453
 6794TIP3    H244578   1.641   1.655   0.797 -0.8205  1.1168 -0.8636
 6795TIP3   OH244579   0.574   1.911   1.897  0.2166 -0.3232  0.3995
 6795TIP3    H144580   0.539   1.931   1.810 -0.3748 -1.4648  0.3540
 6795TIP3    H244581   0.515   1.957   1.957  0.1750 -0.1513  0.2290
 6796TIP3   OH244582   3.220   3.421   2.636 -0.0368 -0.0557  0.1934
 6796TIP3    H144583   3.286   3.415   2.567 -0.0577 -0.6151  0.2228
 6796TIP3    H244584   3.215   3.515   2.656 -0.2751  0.1588 -0.7983
 6797TIP3   OH244585   3.595   0.087   2.921  1.3987 -0.2308 -0.3196
 6797TIP3    H144586   3.560   0.032   2.850 -1.1439 -0.2839  0.8600
 6797TIP3    H244587   3.610   0.172   2.879 -1.6242  0.2311 -0.7021
 6798TIP3   OH244588   3.300   0.964   1.257 -0.2757 -0.9804 -0.1829
 6798TIP3    H144589   3.265   1.042   1.301 -2.4927 -1.8316 -0.2781
 6798TIP3    H244590   3.338   0.912   1.327  2.2633  0.5970 -0.2509
 6799TIP3   OH244591   3.380   2.656   2.890  0.4461 -0.1501  0.4195
 6799TIP3    H144592   3.312   2.681   2.953 -1.1086 -1.0637 -0.8068
 6799TIP3    H244593   3.364   2.713   2.814  2.1672  0.8014  0.7215
 6800TIP3   OH244594   6.258   4.940   2.226  0.4537 -0.3554 -0.4554
 6800TIP3    H144595   6.271   4.888   2.306  0.9028  0.5831  0.1092
 6800TIP3    H244596   6.190   4.894   2.178 -1.8455  0.4833  1.7646
 6801TIP3   OH244597   5.592   5.640   2.504 -0.2568 -0.2977 -0.0762
 6801TIP3    H144598   5.514   5.693   2.522  0.0076 -0.2769  1.0982
 6801TIP3    H244599   5.629   5.622   2.591  0.6820 -0.8612 -0.5788
 6802TIP3   OH244600   1.238   0.913   1.674  0.1314  0.5103  0.4071
 6802TIP3    H144601   1.290   0.905   1.594  0.7513 -0.3925  0.8807
 6802TIP3    H244602   1.148   0.921   1.644  0.4137  0.8040 -0.3969
 6803TIP3   OH244603   5.078   1.759   1.412  0.0091 -0.1704 -0.1502
 6803TIP3    H144604   4.986   1.784   1.395 -0.3038 -1.5579 -0.6030
 6803TIP3    H244605   5.103   1.709   1.335  1.2903  0.5180 -0.1962
 6804TIP3   OH244606   4.872   2.591   3.942  0.0205 -0.0014 -0.2742
 6804TIP3    H144607   4.925   2.522   3.902 -0.4745 -0.0477 -0.8646
 6804TIP3    H244608   4.782   2.567   3.920 -0.0833  1.7677 -2.0208
 6805TIP3   OH244609   5.364   1.535   2.184  0.2974 -0.2972 -0.0006
 6805TIP3    H144610   5.272   1.538   2.211  0.6192 -1.5923  1.3934
 6805TIP3    H244611   5.403   1.613   2.224 -0.0084 -0.2445  0.1957
 6806TIP3   OH244612   5.623   6.730   3.618  0.1154  0.3818  0.2647
 6806TIP3    H144613   5.593   6.674   3.689  0.3408  0.3560  0.3406
 6806TIP3    H244614   5.713   6.752   3.642  0.6475 -0.6950 -0.6687
 6807TIP3   OH244615   0.083   2.031   1.184  0.1031 -0.0608  0.1136
 6807TIP3    H144616   0.120   2.119   1.192 -0.3435  0.5615 -3.2071
 6807TIP3    H244617   0.150   1.981   1.138  0.2130 -1.4426  1.6741
 6808TIP3   OH244618   2.957   1.165   3.338  0.3367  0.4421  0.1834
 6808TIP3    H144619   2.911   1.165   3.422 -0.2181  1.0217 -0.1100
 6808TIP3    H244620   3.045   1.135   3.359 -0.5472 -2.2340  0.5481
 6809TIP3   OH244621   2.531   6.698   1.904 -0.7562  0.2700 -0.3342
 6809TIP3    H144622   2.534   6.717   1.998 -0.1566  1.3438 -0.5421
 6809TIP3    H244623   2.438   6.689   1.883 -0.8419 -3.4998  0.9655
 6810TIP3   OH244624   2.682   4.491   0.645  0.3950  0.5109  0.1505
 6810TIP3    H144625   2.707   4.525   0.559  0.1893  0.5814  0.1169
 6810TIP3    H244626   2.597   4.531   0.662 -0.1287 -0.4553 -0.1461
 6811TIP3   OH244627   1.652   6.498   3.483  0.3811 -0.2639 -0.1929
 6811TIP3    H144628   1.608   6.537   3.559 -0.5244  0.6498 -1.1637
 6811TIP3    H244629   1.745   6.519   3.496  0.1775  0.2699  0.4332
 6812TIP3   OH244630   4.149   5.981   2.927 -0.0810  0.4860  0.5324
 6812TIP3    H144631   4.107   5.898   2.951 -1.1406  1.1665  1.1317
 6812TIP3    H244632   4.102   6.009   2.849  0.1654  0.6108  0.4291
 6813TIP3   OH244633   1.167   1.509   3.404 -1.6123  0.1682  0.2892
 6813TIP3    H144634   1.245   1.485   3.353 -1.8221  0.3428 -0.1144
 6813TIP3    H244635   1.147   1.431   3.455 -0.5478  0.4573  1.1997
 6814TIP3   OH244636   0.621   0.580   2.565 -0.1453 -0.0047 -0.1570
 6814TIP3    H144637   0.645   0.491   2.537 -0.2675  0.0714 -0.5047
 6814TIP3    H244638   0.692   0.606   2.624 -0.6878 -0.7841  0.8862
 6815TIP3   OH244639   4.140   2.117   1.799 -0.2279  0.1337 -0.1938
 6815TIP3    H144640   4.137   2.209   1.825  1.7040 -0.1903  1.3465
 6815TIP3    H244641   4.166   2.119   1.706 -2.0003  1.1421 -0.7243
 6816TIP3   OH244642   3.569   4.462   3.609  0.4831  0.2675 -0.2968
 6816TIP3    H144643   3.504   4.392   3.605  0.9788 -0.1320 -2.3939
 6816TIP3    H244644   3.608   4.454   3.696 -1.1372 -0.5060  0.3889
 6817TIP3   OH244645   3.757   1.951   2.118 -0.1574  0.0067 -0.1360
 6817TIP3    H144646   3.748   2.028   2.175  1.0249  1.4090 -1.7518
 6817TIP3    H244647   3.669   1.938   2.082 -0.2887  0.8591 -0.1464
 6818TIP3   OH244648   3.192   4.236   3.102 -0.6057  0.5729 -0.1133
 6818TIP3    H144649   3.217   4.145   3.120 -0.0474  0.9763  1.2533
 6818TIP3    H244650   3.104   4.229   3.064 -0.0820 -0.5979 -1.1852
 6819TIP3   OH244651   1.426   4.470   1.277 -0.7144 -0.1429  0.2639
 6819TIP3    H144652   1.418   4.385   1.321 -0.6789 -0.2630  0.0422
 6819TIP3    H244653   1.365   4.527   1.324 -0.0653 -0.0470  0.9994
 6820TIP3   OH244654   4.465   5.225   1.244  0.1219 -0.0514 -0.1453
 6820TIP3    H144655   4.505   5.247   1.160  0.7277  0.3239  0.2340
 6820TIP3    H244656   4.496   5.137   1.264  0.0088 -0.1255 -0.2954
 6821TIP3   OH244657   3.533   4.519   2.621  0.1693  0.1162 -0.1717
 6821TIP3    H144658   3.589   4.454   2.577 -0.7684 -0.5742 -0.3809
 6821TIP3    H244659   3.568   4.603   2.593  1.8239 -0.2628  0.6085
 6822TIP3   OH244660   1.504   5.250   1.840 -0.3882 -0.3739 -0.2365
 6822TIP3    H144661   1.592   5.218   1.858 -1.0131 -1.8443  0.4305
 6822TIP3    H244662   1.502   5.338   1.876  1.0107 -0.0303 -0.9187
 6823TIP3   OH244663   0.947   5.328   0.773 -0.0792 -0.1810 -0.3115
 6823TIP3    H144664   0.934   5.421   0.754  1.1702 -0.0544 -0.6162
 6823TIP3    H244665   0.863   5.299   0.808 -0.3585  1.1646  0.1955
 6824TIP3   OH244666   0.364   2.783   9.903 -0.5469 -0.7156 -0.0739
 6824TIP3    H144667   0.390   2.691   9.907 -1.3042 -0.8999  1.0613
 6824TIP3    H244668   0.338   2.805   9.993 -1.2858  0.3398 -0.5222
 6825TIP3   OH244669   6.135   1.457   3.497  0.3461 -0.0127 -0.4766
 6825TIP3    H144670   6.061   1.398   3.482  1.0469 -1.0850  0.1228
 6825TIP3    H244671   6.160   1.488   3.410  0.9221 -1.8229 -0.9945
 6826TIP3   OH244672   3.123   4.618   0.815  0.0020  0.4762 -0.5413
 6826TIP3    H144673   3.197   4.558   0.803 -0.0627  0.5803 -1.5203
 6826TIP3    H244674   3.129   4.646   0.906  1.2286  0.5592 -0.6394
 6827TIP3   OH244675   4.023   3.031   1.703 -0.3476  0.3689  0.5226
 6827TIP3    H144676   4.022   3.105   1.643  4.6805 -0.4751 -1.0534
 6827TIP3    H244677   4.010   3.069   1.790  0.0164  2.7862 -0.4264
 6828TIP3   OH244678   4.233   0.444   3.551 -0.2069  0.3937  0.0085
 6828TIP3    H144679   4.185   0.469   3.472 -1.6591  0.6488  0.9478
 6828TIP3    H244680   4.174   0.385   3.598  1.9336 -2.5294 -0.6778
 6829TIP3   OH244681   0.255   3.171   0.540  0.2255 -0.4484  1.0485
 6829TIP3    H144682   0.240   3.223   0.619 -0.8684  0.5747  0.1903
 6829TIP3    H244683   0.171   3.170   0.495  1.1186  0.0383 -0.7294
 6830TIP3   OH244684   1.275   5.111   1.753 -0.0675 -0.1473  0.1437
 6830TIP3    H144685   1.360   5.146   1.778 -0.7019  0.7779  1.0823
 6830TIP3    H244686   1.232   5.092   1.836 -1.0034 -0.0463 -0.3083
 6831TIP3   OH244687   1.029   1.013   2.576 -0.2609 -0.0978  0.0758
 6831TIP3    H144688   0.958   0.951   2.559  0.2611 -0.3569 -1.2181
 6831TIP3    H244689   1.106   0.972   2.538  0.2937  0.8973  0.1061
 6832TIP3   OH244690   5.494   2.222   3.163 -0.5303  0.2914  0.8798
 6832TIP3    H144691   5.447   2.291   3.209 -0.9528  0.4867  0.1769
 6832TIP3    H244692   5.552   2.184   3.229 -0.1599  1.4305  1.2400
 6833TIP3   OH244693   1.058   2.428   3.931 -0.4350  0.8842  0.1941
 6833TIP3    H144694   1.124   2.388   3.874  1.4199  2.7826  0.8698
 6833TIP3    H244695   1.002   2.355   3.959  0.4680 -0.5597 -1.5801
 6834TIP3   OH244696   1.741   6.797   2.467  0.5621 -0.0112  0.4050
 6834TIP3    H144697   1.760   6.712   2.505 -1.4171 -1.5088 -1.6728
 6834TIP3    H244698   1.823   6.823   2.424  1.3073 -0.6263  1.4044
 6835TIP3   OH244699   2.821   6.063   0.625 -0.1365  0.4333 -0.7108
 6835TIP3    H144700   2.849   6.129   0.562 -1.1898  0.8930 -0.7146
 6835TIP3    H244701   2.841   6.101   0.710 -0.7242  0.7507 -0.7136
 6836TIP3   OH244702   6.079   1.283   3.124  0.0428  0.0783 -0.2805
 6836TIP3    H144703   6.117   1.365   3.155 -0.4601  0.4063 -0.5173
 6836TIP3    H244704   6.072   1.229   3.203 -0.3450  0.5542  0.0181
 6837TIP3   OH244705   0.997   6.287   2.457 -0.0368 -0.0074  0.2888
 6837TIP3    H144706   0.995   6.286   2.553 -1.5276 -1.1205  0.2760
 6837TIP3    H244707   1.052   6.363   2.435  0.1127  0.4268  2.0026
 6838TIP3   OH244708   5.998   2.034   1.067  0.3698  0.2093 -0.3074
 6838TIP3    H144709   5.916   2.078   1.044 -0.3968 -0.6032  0.7295
 6838TIP3    H244710   5.974   1.975   1.139  2.5529  2.6636  2.7411
 6839TIP3   OH244711   6.051   2.634   1.525  0.0925  0.1457  0.0107
 6839TIP3    H144712   6.084   2.624   1.436 -0.8627  1.2914 -0.4880
 6839TIP3    H244713   6.130   2.632   1.580  0.8365  0.9918 -0.9949
 6840TIP3   OH244714   1.759   4.356   3.413  0.2741  0.4514 -1.0090
 6840TIP3    H144715   1.715   4.271   3.421  0.4067  0.1599 -2.8486
 6840TIP3    H244716   1.823   4.357   3.484 -2.3249  0.6937  1.5009
 6841TIP3   OH244717   4.404   2.643   1.256 -0.2515 -0.1459  0.1436
 6841TIP3    H144718   4.499   2.648   1.268 -0.4032 -0.0550  1.4318
 6841TIP3    H244719   4.393   2.606   1.168  0.9674  2.9423 -1.4866
 6842TIP3   OH244720   5.936   6.307   2.957  0.0865 -0.1570 -0.2876
 6842TIP3    H144721   6.008   6.335   3.015  1.0752  0.8518 -1.9057
 6842TIP3    H244722   5.971   6.231   2.911 -0.5769 -0.7683  0.2084
 6843TIP3   OH244723   1.220   4.058   3.280  0.0638 -0.1215 -0.0796
 6843TIP3    H144724   1.178   4.012   3.207 -0.1645 -0.3704  0.2126
 6843TIP3    H244725   1.151   4.071   3.344  0.7618 -2.0026  1.1326
 6844TIP3   OH244726   2.670   5.913   2.714 -0.0659  0.4721 -0.6847
 6844TIP3    H144727   2.579   5.883   2.711 -0.4905  1.6066  0.2378
 6844TIP3    H244728   2.719   5.845   2.668 -0.9485 -1.7702  1.4705
 6845TIP3   OH244729   3.399   1.013   1.769 -0.0244  0.2585  0.1948
 6845TIP3    H144730   3.357   1.069   1.704 -0.1954 -1.3131 -1.1047
 6845TIP3    H244731   3.339   1.014   1.844 -1.8244 -0.9519 -1.1555
 6846TIP3   OH244732   0.261   2.614   2.522  0.8122 -0.0542 -0.0150
 6846TIP3    H144733   0.223   2.633   2.608  1.4335  0.1672  0.2121
 6846TIP3    H244734   0.323   2.686   2.507  0.2948  0.2240 -0.9018
 6847TIP3   OH244735   1.556   4.544   1.061  0.4638  0.0320  0.1273
 6847TIP3    H144736   1.604   4.461   1.053 -0.7944 -0.6010 -1.1774
 6847TIP3    H244737   1.498   4.530   1.136 -0.5645 -0.7340 -0.7744
 6848TIP3   OH244738   3.308   1.226   0.542  0.1408 -0.8036 -0.4472
 6848TIP3    H144739   3.313   1.212   0.637  1.3504 -0.3824 -0.4257
 6848TIP3    H244740   3.319   1.321   0.531 -1.0554 -0.7021 -0.9659
 6849TIP3   OH244741   1.420   6.508   1.845 -0.1798 -0.2458  0.6293
 6849TIP3    H144742   1.404   6.601   1.858  0.8181  0.0362 -0.0859
 6849TIP3    H244743   1.498   6.504   1.789 -0.4861 -1.4949  0.2540
 6850TIP3   OH244744   4.886   6.274   2.113  0.7832 -0.2278  0.0595
 6850TIP3    H144745   4.868   6.328   2.190 -0.2773  0.0175 -0.3336
 6850TIP3    H244746   4.924   6.194   2.148 -0.8565 -0.6507  0.9832
 6851TIP3   OH244747   2.884   4.874   2.008  0.5490 -0.1113  0.3454
 6851TIP3    H144748   2.852   4.857   2.097  1.0386  0.7745  0.7099
 6851TIP3    H244749   2.876   4.969   1.998  0.5101 -0.2005 -0.5594
 6852TIP3   OH244750   2.874   3.601   2.353 -0.5357 -0.0097  0.1825
 6852TIP3    H144751   2.863   3.554   2.271 -2.7259 -2.0525  1.4717
 6852TIP3    H244752   2.850   3.692   2.333 -0.9546 -0.4488 -1.4266
 6853TIP3   OH244753   0.037   3.883   0.610 -0.3838 -0.2705 -0.0584
 6853TIP3    H144754  -0.057   3.892   0.624 -0.2020  0.7198  0.6389
 6853TIP3    H244755   0.048   3.793   0.580 -1.6686 -0.0896 -1.1959
 6854TIP3   OH244756   4.473   3.912   2.609 -0.3947  0.4971  0.1372
 6854TIP3    H144757   4.474   3.819   2.585  3.3358  0.5141 -0.3360
 6854TIP3    H244758   4.474   3.911   2.705 -2.7771  0.1840  0.2165
 6855TIP3   OH244759   3.457   2.224   3.024 -0.5328 -0.3111 -0.1189
 6855TIP3    H144760   3.524   2.173   2.980 -0.9939 -0.4040 -0.7283
 6855TIP3    H244761   3.427   2.287   2.959  0.1184  0.8449  0.6676
 6856TIP3   OH244762   5.811   4.667   3.231 -0.5144  0.2559 -0.8875
 6856TIP3    H144763   5.851   4.583   3.255  0.4169  1.0694  0.5805
 6856TIP3    H244764   5.737   4.676   3.291  0.2569  1.1076 -0.0199
 6857TIP3   OH244765   6.572   1.276   3.043  0.1258  0.3607  0.3601
 6857TIP3    H144766   6.582   1.273   3.138  2.5624 -1.3205  0.1248
 6857TIP3    H244767   6.537   1.190   3.019  0.7979  0.2786 -0.3659
 6858TIP3   OH244768   3.557   5.104   2.669 -0.2325 -0.4477 -0.4399
 6858TIP3    H144769   3.583   5.160   2.742  0.0333 -1.1084 -0.0192
 6858TIP3    H244770   3.588   5.017   2.693 -0.3004 -0.7078 -1.2618
 6859TIP3   OH244771   1.596   3.059   1.895 -0.0930 -0.6881 -0.1196
 6859TIP3    H144772   1.534   2.989   1.872 -0.7133 -0.1964  0.0164
 6859TIP3    H244773   1.553   3.106   1.967 -0.4651  0.8620 -1.3087
 6860TIP3   OH244774   1.195   3.774   1.932  0.4488 -0.2456  0.5190
 6860TIP3    H144775   1.230   3.723   2.004  0.4271  0.9876  1.4460
 6860TIP3    H244776   1.267   3.833   1.908  0.2212 -0.1785 -0.0087
 6861TIP3   OH244777   0.019   5.000   2.883  0.4837  0.3666 -0.2419
 6861TIP3    H144778  -0.072   4.983   2.909  0.3276 -0.7142 -1.4188
 6861TIP3    H244779   0.062   5.025   2.964 -0.8178  0.7050  0.3811
 6862TIP3   OH244780   5.438   5.428   2.370  0.4274  0.0183  0.5089
 6862TIP3    H144781   5.496   5.371   2.319 -0.7990 -1.1782  0.4079
 6862TIP3    H244782   5.496   5.497   2.403  1.8928 -1.0707  0.3255
 6863TIP3   OH244783   4.970   4.606   2.909  0.3921 -0.3099 -0.3192
 6863TIP3    H144784   4.918   4.558   2.846  0.8656 -1.0501 -0.1609
 6863TIP3    H244785   4.912   4.620   2.984  0.1461 -0.3301 -0.5077
 6864TIP3   OH244786   1.939   0.101   2.360 -0.2675 -0.1199 -0.0282
 6864TIP3    H144787   1.923   0.195   2.367  0.0428 -0.0804  0.1739
 6864TIP3    H244788   2.035   0.093   2.364 -0.3409 -0.6193  2.5085
 6865TIP3   OH244789   3.428   6.807   3.306 -0.7630  0.1535  0.0658
 6865TIP3    H144790   3.413   6.882   3.364 -0.3327  1.7702 -1.8094
 6865TIP3    H244791   3.517   6.779   3.326 -1.1158 -0.2474  1.1663
 6866TIP3   OH244792   4.743   3.171   2.643  0.5989  0.7498  0.4089
 6866TIP3    H144793   4.733   3.178   2.738  3.3103 -1.0749  0.9182
 6866TIP3    H244794   4.733   3.261   2.611 -0.5537  1.3667  2.3673
 6867TIP3   OH244795   5.519   6.728   0.954 -0.0765  0.0157 -0.0112
 6867TIP3    H144796   5.562   6.742   1.039  0.3362 -0.7978 -0.0831
 6867TIP3    H244797   5.435   6.772   0.964 -0.1309 -0.2568  0.9144
 6868TIP3   OH244798   3.822   5.325   1.983 -0.3649  0.3753  0.1087
 6868TIP3    H144799   3.760   5.302   1.914  0.5285 -0.5419 -0.4298
 6868TIP3    H244800   3.797   5.270   2.057  1.2335 -1.8610 -0.8974
 6869TIP3   OH244801   4.686   2.895   3.849  0.1247 -0.4754 -0.2714
 6869TIP3    H144802   4.700   2.947   3.769 -0.4943 -0.0142 -0.0815
 6869TIP3    H244803   4.592   2.900   3.865  0.4184  0.6028  1.2763
 6870TIP3   OH244804   4.069   4.873   3.662  0.0823 -0.4583  0.3504
 6870TIP3    H144805   4.029   4.949   3.705 -2.1976 -1.0523 -0.5806
 6870TIP3    H244806   4.106   4.909   3.581 -0.5382 -0.2367  0.1568
 6871TIP3   OH244807   5.636   0.118   2.819 -0.3185  0.5119 -0.4324
 6871TIP3    H144808   5.604   0.073   2.741 -0.2346  1.3096 -0.9445
 6871TIP3    H244809   5.587   0.079   2.892  0.7385 -1.3370 -0.6712
 6872TIP3   OH244810   0.467   6.611   1.254  0.3873 -0.3925 -0.6736
 6872TIP3    H144811   0.382   6.651   1.266 -0.0003 -1.6198  1.1487
 6872TIP3    H244812   0.530   6.682   1.268 -0.3038  0.0326  0.4162
 6873TIP3   OH244813   2.544   0.640   2.635  0.1456  0.0419 -0.1133
 6873TIP3    H144814   2.501   0.681   2.710 -0.2519 -1.5799  0.5905
 6873TIP3    H244815   2.515   0.549   2.637  1.2005 -0.3657 -1.4459
 6874TIP3   OH244816   1.782   3.253   1.715  0.1308  0.1665  0.5700
 6874TIP3    H144817   1.691   3.243   1.743 -1.2061  0.4562 -3.0466
 6874TIP3    H244818   1.796   3.183   1.652  1.7276  1.3312 -0.4694
 6875TIP3   OH244819   4.822   6.406   0.706 -0.3639 -0.0824  0.1802
 6875TIP3    H144820   4.787   6.406   0.795  1.1061 -0.2487  0.7927
 6875TIP3    H244821   4.820   6.314   0.680  2.9567 -0.7294  1.6742
 6876TIP3   OH244822   0.865   6.502   1.831  0.6504  0.5648  0.1001
 6876TIP3    H144823   0.855   6.409   1.814 -0.1151  0.4336  1.1342
 6876TIP3    H244824   0.878   6.508   1.925  0.0282  1.5388  0.1423
 6877TIP3   OH244825   6.812   2.407   1.289 -0.5518  0.3728 -0.1145
 6877TIP3    H144826   6.884   2.347   1.269 -2.5622 -2.2452 -0.0216
 6877TIP3    H244827   6.782   2.436   1.203 -0.0912  0.6111 -0.1999
 6878TIP3   OH244828   2.368   5.777   2.382 -0.6306 -0.1913 -0.1740
 6878TIP3    H144829   2.363   5.769   2.287 -0.4794  0.5129 -0.2459
 6878TIP3    H244830   2.326   5.860   2.401  3.3538  2.0284 -0.0682
 6879TIP3   OH244831   2.066   1.320   3.257  0.2933 -0.2454  0.4866
 6879TIP3    H144832   2.044   1.397   3.204  0.8196  0.2326  0.9440
 6879TIP3    H244833   2.105   1.258   3.195  1.1306  0.4015  0.3438
 6880TIP3   OH244834   3.485   6.234   2.573  0.5788  0.2082  0.4220
 6880TIP3    H144835   3.501   6.171   2.643  1.2547  0.6617  0.6799
 6880TIP3    H244836   3.482   6.319   2.617 -0.2746  0.3780  0.0699
 6881TIP3   OH244837   1.179   5.967   3.650 -0.0392  0.0295  0.9899
 6881TIP3    H144838   1.222   5.907   3.712 -0.5100  0.2536  1.5363
 6881TIP3    H244839   1.124   6.023   3.704 -1.0309 -0.2446  0.2982
 6882TIP3   OH244840   2.862   0.060   3.552 -0.1671  0.0011  0.2840
 6882TIP3    H144841   2.885   0.023   3.637  2.1064  0.4868 -0.0544
 6882TIP3    H244842   2.906   0.145   3.549  1.9696 -1.0256 -2.2547
 6883TIP3   OH244843   4.654   1.400   3.231  0.1408  0.6716 -0.2211
 6883TIP3    H144844   4.683   1.309   3.235  0.7663  0.8636 -0.3282
 6883TIP3    H244845   4.716   1.449   3.285 -1.8145  0.6678  2.1954
 6884TIP3   OH244846   0.313   6.837   2.183 -0.0543 -0.1767 -0.2519
 6884TIP3    H144847   0.388   6.826   2.241  0.9561 -0.1579 -1.5047
 6884TIP3    H244848   0.344   6.807   2.098 -1.5250 -0.2985 -0.7729
 6885TIP3   OH244849   0.819   5.440   2.679  0.0569 -0.2448 -0.4856
 6885TIP3    H144850   0.774   5.515   2.641  0.7707  0.3821 -0.1089
 6885TIP3    H244851   0.910   5.467   2.685  0.7192 -1.8822 -2.2277
 6886TIP3   OH244852   1.691   0.312   2.516  0.0980  0.4431  0.2366
 6886TIP3    H144853   1.722   0.304   2.606  0.2818  0.9745  0.2205
 6886TIP3    H244854   1.752   0.372   2.474  1.1098 -1.1965 -0.7534
 6887TIP3   OH244855   2.559   2.625   2.129  0.3635  0.1258  0.2231
 6887TIP3    H144856   2.601   2.666   2.204  1.7531 -0.2604 -0.3241
 6887TIP3    H244857   2.527   2.541   2.163 -1.0207  0.8874  0.9158
 6888TIP3   OH244858   3.465   5.582   1.285  0.3676 -0.0234 -0.0578
 6888TIP3    H144859   3.411   5.612   1.358  0.5871  0.4138 -0.0714
 6888TIP3    H244860   3.415   5.604   1.207  0.8287  0.9478 -0.0957
 6889TIP3   OH244861   3.583   5.917   1.773  0.1846 -0.2661  0.5244
 6889TIP3    H144862   3.655   5.980   1.775 -0.5069  0.8567 -3.0092
 6889TIP3    H244863   3.625   5.835   1.746  0.3041  0.1827 -0.7123
 6890TIP3   OH244864   4.880   1.508   3.389  0.3388  0.6629 -0.4389
 6890TIP3    H144865   4.851   1.442   3.453  2.1600 -0.5094 -0.7554
 6890TIP3    H244866   4.853   1.591   3.428 -1.5325 -0.1946  0.2423
 6891TIP3   OH244867   5.316   0.014   3.258  0.0836  0.1358 -0.3342
 6891TIP3    H144868   5.369  -0.063   3.239  0.0193 -0.2794  1.0476
 6891TIP3    H244869   5.348   0.045   3.343  1.0792  2.5050 -1.5064
 6892TIP3   OH244870   5.013   6.631   1.007 -0.3913 -0.1930  0.3573
 6892TIP3    H144871   5.069   6.555   0.990  0.9466  1.2780 -2.5541
 6892TIP3    H244872   4.937   6.619   0.951 -0.6463  0.1219  0.6290
 6893TIP3   OH244873   2.171   6.603   1.564 -0.3056 -0.2797  0.0023
 6893TIP3    H144874   2.192   6.671   1.501 -2.9829 -1.1499 -2.0013
 6893TIP3    H244875   2.205   6.522   1.524 -0.8660 -0.6701  0.3070
 6894TIP3   OH244876   5.768   1.370   1.858  0.0301  0.3367 -0.3717
 6894TIP3    H144877   5.724   1.440   1.809 -1.3778  0.6229  1.2286
 6894TIP3    H244878   5.711   1.294   1.848 -0.1274  0.3207  0.5800
 6895TIP3   OH244879   1.962   0.712   1.000 -0.1507 -0.2614  0.6910
 6895TIP3    H144880   2.005   0.634   0.964 -0.8602 -0.0791 -0.6063
 6895TIP3    H244881   2.020   0.741   1.070  1.2764 -0.6628 -0.2872
 6896TIP3   OH244882   4.473   0.531   2.874  0.1625  0.1737  0.0493
 6896TIP3    H144883   4.447   0.511   2.784 -0.3764  0.6243  0.0984
 6896TIP3    H244884   4.451   0.623   2.885 -0.7560 -0.1469  0.9865
 6897TIP3   OH244885   0.892   6.009   2.930 -0.2309 -0.0158  0.0044
 6897TIP3    H144886   0.950   5.933   2.922  0.2676  0.3397  0.2022
 6897TIP3    H244887   0.844   6.012   2.847 -0.5194 -0.7550  0.1344
 6898TIP3   OH244888   0.614   2.076   1.651  0.2024  0.1216  0.3775
 6898TIP3    H144889   0.585   2.129   1.577  0.6354 -0.5519 -0.3001
 6898TIP3    H244890   0.649   1.996   1.610  0.5852 -0.1963  1.3024
 6899TIP3   OH244891   6.518   6.783   2.943 -0.0941 -0.0684  0.1312
 6899TIP3    H144892   6.467   6.793   2.862 -0.6749 -0.4894  0.4403
 6899TIP3    H244893   6.509   6.868   2.986 -1.6223 -0.5315  0.7941
 6900TIP3   OH244894   6.487   2.154   1.145 -0.0351  0.3219  0.1565
 6900TIP3    H144895   6.481   2.241   1.185  0.9930  0.0538  0.9361
 6900TIP3    H244896   6.396   2.132   1.123 -0.3930  1.3002  0.5831
 6901TIP3   OH244897   4.935   6.559   2.680 -0.4751  0.4811  0.0342
 6901TIP3    H144898   4.845   6.566   2.649 -0.8440 -0.0784  0.9195
 6901TIP3    H244899   4.980   6.506   2.613 -0.6452  1.2389 -0.6932
 6902TIP3   OH244900   1.561   3.515   0.964  0.3900  0.3741 -0.2655
 6902TIP3    H144901   1.568   3.436   1.016 -0.1923 -0.0186 -0.7738
 6902TIP3    H244902   1.652   3.541   0.947  0.6663 -1.4904 -2.0495
 6903TIP3   OH244903   3.642   6.008   2.671 -0.8675 -0.0408 -1.0350
 6903TIP3    H144904   3.727   6.029   2.709 -0.2210 -0.2213 -2.3313
 6903TIP3    H244905   3.631   5.914   2.684 -0.1193 -0.3192 -2.2758
 6904TIP3   OH244906   2.940   4.507   1.094 -0.3253  0.1400  0.1019
 6904TIP3    H144907   2.932   4.421   1.136  1.4142 -0.0009  0.2356
 6904TIP3    H244908   3.023   4.542   1.126  0.0756  0.9164 -1.6465
 6905TIP3   OH244909   4.794   0.182   3.984  0.1207  0.6643  0.0041
 6905TIP3    H144910   4.720   0.123   3.971  1.3538 -0.9249 -0.1263
 6905TIP3    H244911   4.789   0.243   3.911 -1.7635  1.4218  0.6931
 6906TIP3   OH244912   3.635   1.406   1.011 -0.2830 -0.1291  0.3860
 6906TIP3    H144913   3.593   1.432   0.929  0.7358  2.0130  0.4507
 6906TIP3    H244914   3.564   1.370   1.065 -1.3337  0.2077 -0.7387
 6907TIP3   OH244915   0.496   6.687   3.155  0.3304 -0.0705 -0.1155
 6907TIP3    H144916   0.404   6.667   3.141  0.3699  0.7592 -1.8879
 6907TIP3    H244917   0.524   6.628   3.225 -1.7176  0.2306  1.0297
 6908TIP3   OH244918   3.140   2.761   2.992 -0.5599  0.7294  0.6192
 6908TIP3    H144919   3.064   2.728   3.040 -0.9500 -0.9316 -1.0431
 6908TIP3    H244920   3.104   2.822   2.928 -0.4620  0.2403  0.0914
 6909TIP3   OH244921   4.701   4.352   1.965  0.0973 -0.8155 -0.0179
 6909TIP3    H144922   4.633   4.313   1.911 -0.5687 -0.9161  0.8646
 6909TIP3    H244923   4.752   4.277   1.996 -0.4047 -0.8943  0.6453
 6910TIP3   OH244924   3.474   4.019   2.993 -0.4746 -0.3796  0.4314
 6910TIP3    H144925   3.421   4.076   2.936 -0.7291 -1.3259 -0.3107
 6910TIP3    H244926   3.464   4.057   3.080  0.1135  1.2475 -0.1660
 6911TIP3   OH244927   1.957   0.055   2.750 -0.0068 -0.2468 -0.1132
 6911TIP3    H144928   1.904   0.046   2.671  0.5498  1.3656 -0.6914
 6911TIP3    H244929   2.041   0.013   2.728  0.3034  0.5889 -0.5400
 6912TIP3   OH244930   6.569   6.646   3.351  0.2501  0.1972 -0.4567
 6912TIP3    H144931   6.477   6.656   3.377  0.7579  0.9971  1.1594
 6912TIP3    H244932   6.603   6.578   3.410  0.5532 -0.6020 -1.5129
 6913TIP3   OH244933   0.133   1.598   3.514  0.4350  0.4582  0.2952
 6913TIP3    H144934   0.108   1.597   3.606 -0.9863  0.4233 -0.0785
 6913TIP3    H244935   0.161   1.688   3.497 -0.5267  0.7971  0.4505
 6914TIP3   OH244936   4.323   0.122   2.226  0.2629  0.7520  0.2633
 6914TIP3    H144937   4.392   0.060   2.251 -0.0783  0.3615  0.2484
 6914TIP3    H244938   4.350   0.153   2.140 -0.5591 -0.8786 -0.6282
 6915TIP3   OH244939   2.528   3.445   1.275 -0.5646 -0.4595 -0.0563
 6915TIP3    H144940   2.454   3.469   1.219 -0.1827  1.3950  0.1710
 6915TIP3    H244941   2.490   3.386   1.340 -1.6033 -0.4205 -0.6055
 6916TIP3   OH244942   3.083   5.878   3.790 -0.5653  0.1582  0.0908
 6916TIP3    H144943   3.159   5.925   3.824  0.2326 -0.8785 -0.2212
 6916TIP3    H244944   3.020   5.878   3.862  0.9470 -1.6951  1.4983
 6917TIP3   OH244945   6.377   1.297   1.113  0.2107  0.0465  0.4968
 6917TIP3    H144946   6.341   1.281   1.026 -1.4540  0.7359  1.0158
 6917TIP3    H244947   6.305   1.277   1.173  0.4515  2.0181  1.5478
 6918TIP3   OH244948   5.864   4.188   2.010  0.0615  1.0941  0.5777
 6918TIP3    H144949   5.868   4.279   2.038  0.8256  2.1097 -2.4214
 6918TIP3    H244950   5.770   4.169   2.006 -0.1652  2.2765 -0.2026
 6919TIP3   OH244951   3.841   4.031   1.858  0.3319 -0.8660  0.4208
 6919TIP3    H144952   3.847   4.056   1.950  0.4310 -1.2314  0.5166
 6919TIP3    H244953   3.759   4.070   1.828  0.0455 -1.1681  0.8000
 6920TIP3   OH244954   5.299   4.908   1.202 -0.6016 -0.0156 -0.2343
 6920TIP3    H144955   5.361   4.928   1.132 -0.6564  1.6523  0.1319
 6920TIP3    H244956   5.235   4.849   1.163  0.4865 -0.7324 -0.9848
 6921TIP3   OH244957   5.654   0.338   4.100 -0.3780 -0.6218  0.6399
 6921TIP3    H144958   5.745   0.334   4.072 -0.7932  0.8619 -1.1439
 6921TIP3    H244959   5.656   0.383   4.185  0.4198  1.3050 -0.3576
 6922TIP3   OH244960   4.596   3.144   1.241  0.2098 -0.1202 -0.8060
 6922TIP3    H144961   4.529   3.076   1.247  0.3302 -0.1270  1.2884
 6922TIP3    H244962   4.586   3.180   1.153 -1.6984 -0.9785 -0.9967
 6923TIP3   OH244963   0.723   6.586   1.612 -0.1518  0.2531  0.2731
 6923TIP3    H144964   0.700   6.500   1.578 -1.5700  0.8379 -0.3404
 6923TIP3    H244965   0.765   6.568   1.696  2.1725 -1.1422 -1.0790
 6924TIP3   OH244966   1.019   1.562   3.864  0.4317 -0.0986  0.1702
 6924TIP3    H144967   1.028   1.467   3.868 -0.4203 -0.2748 -1.2612
 6924TIP3    H244968   0.927   1.576   3.839  0.0893  1.1588  1.9036
 6925TIP3   OH244969   2.623   1.093   2.063  0.0488  0.3516  0.2357
 6925TIP3    H144970   2.538   1.128   2.035 -0.2892 -0.7330 -0.1562
 6925TIP3    H244971   2.659   1.160   2.121 -0.4092  1.4866 -0.7506
 6926TIP3   OH244972   0.390   2.817   3.320 -0.5762  0.0563 -0.4792
 6926TIP3    H144973   0.322   2.881   3.340 -2.1849 -1.5361 -0.5481
 6926TIP3    H244974   0.342   2.736   3.300  1.3519 -1.8622  1.9563
 6927TIP3   OH244975   1.293   2.538   0.533  0.0930 -0.0970 -0.0474
 6927TIP3    H144976   1.203   2.569   0.543 -0.5563 -1.8651 -0.1184
 6927TIP3    H244977   1.347   2.608   0.570 -1.4193  0.1101  1.9004
 6928TIP3   OH244978   6.157   3.296   2.211 -0.7383  0.5344 -0.1265
 6928TIP3    H144979   6.089   3.272   2.148  0.6790 -2.7034 -0.6426
 6928TIP3    H244980   6.202   3.370   2.171  0.4123 -1.7008 -3.2863
 6929TIP3   OH244981   2.691   5.918   3.334 -0.3010  0.5218  0.3132
 6929TIP3    H144982   2.650   5.833   3.347  2.4131 -0.9685  0.0383
 6929TIP3    H244983   2.718   5.945   3.422  0.3625  0.2280  0.2066
 6930TIP3   OH244984   3.667   6.210   0.945  0.4335 -0.3231 -0.2710
 6930TIP3    H144985   3.602   6.279   0.960  0.5775 -0.4427  0.9973
 6930TIP3    H244986   3.671   6.202   0.849 -1.1581 -0.0688 -0.3941
 6931TIP3   OH244987   2.469   3.109   3.794 -0.1593  0.0827 -0.1900
 6931TIP3    H144988   2.518   3.185   3.825  0.4317 -0.8321  1.2003
 6931TIP3    H244989   2.409   3.088   3.865 -2.0927  0.6884 -1.5420
 6932TIP3   OH244990   6.606   5.119   3.360 -0.7566 -0.3985  0.5333
 6932TIP3    H144991   6.611   5.025   3.377 -3.4877 -0.7033  0.1255
 6932TIP3    H244992   6.573   5.156   3.442  0.5047  0.2984  0.7622
 6933TIP3   OH244993   5.913   5.491   0.685 -0.4263 -0.3674  0.4763
 6933TIP3    H144994   5.987   5.487   0.747 -2.2507  1.2116  2.9422
 6933TIP3    H244995   5.847   5.543   0.730 -1.9457  0.8382 -2.8629
 6934TIP3   OH244996   6.299   2.829   1.404  0.2684  0.9046  0.4005
 6934TIP3    H144997   6.283   2.921   1.426 -1.9921  0.5977  0.2501
 6934TIP3    H244998   6.248   2.780   1.468 -1.6060 -0.1171 -1.7194
 6935TIP3   OH244999   5.971   2.164   1.957  0.3114  0.0847  0.0463
 6935TIP3    H145000   6.058   2.193   1.984 -1.4357  3.8520  2.4507
 6935TIP3    H245001   5.957   2.206   1.872  0.3916  0.6691  0.3117
 6936TIP3   OH245002   6.569   6.511   1.546 -0.4785  0.2983  0.1019
 6936TIP3    H145003   6.621   6.591   1.539 -0.3731  0.1309 -1.3395
 6936TIP3    H245004   6.555   6.499   1.640  2.1966  0.2712  0.5647
 6937TIP3   OH245005   4.013   0.249   1.813 -0.4983 -0.1339  0.4871
 6937TIP3    H145006   4.043   0.261   1.903 -2.2333  1.4489  0.9111
 6937TIP3    H245007   4.053   0.321   1.765 -0.6078 -0.2272  0.2566
 6938TIP3   OH245008   4.404   0.921   3.200 -0.5790 -0.2368  0.5141
 6938TIP3    H145009   4.417   0.931   3.294 -0.8999  1.0636  0.4313
 6938TIP3    H245010   4.473   0.860   3.173 -0.6791 -0.8775  1.6281
 6939TIP3   OH245011   5.729   4.932   1.145  0.0554  0.6162 -0.5012
 6939TIP3    H145012   5.715   4.879   1.067  1.5622  1.5694 -1.4601
 6939TIP3    H245013   5.757   5.017   1.111 -1.1080  1.6576  1.0261
 6940TIP3   OH245014   6.733   0.576   1.506  0.4202 -0.5364 -0.0803
 6940TIP3    H145015   6.659   0.515   1.507  0.4534 -0.6116 -1.2501
 6940TIP3    H245016   6.708   0.643   1.442  0.3057  0.7971  1.3012
 6941TIP3   OH245017   3.421   2.173   1.838  0.2176  0.3359 -0.4653
 6941TIP3    H145018   3.384   2.258   1.814 -0.1422 -0.0040 -1.1683
 6941TIP3    H245019   3.410   2.168   1.933 -2.2199 -0.0195 -0.6861
 6942TIP3   OH245020   5.151   3.134   3.461 -0.1386 -0.8786 -0.1386
 6942TIP3    H145021   5.169   3.221   3.494 -0.4758 -1.3563  1.3500
 6942TIP3    H245022   5.056   3.132   3.448  0.1520 -0.0336 -3.1796
 6943TIP3   OH245023   3.652   2.914   2.729  0.2076  0.3083  0.0626
 6943TIP3    H145024   3.594   2.918   2.805 -1.0265 -0.6782 -0.7936
 6943TIP3    H245025   3.593   2.909   2.654  1.4040 -0.1044 -0.8788
 6944TIP3   OH245026   4.429   6.547   3.628 -0.0182  0.5784 -0.1318
 6944TIP3    H145027   4.380   6.554   3.546 -0.8779 -0.2974  0.2825
 6944TIP3    H245028   4.431   6.637   3.662 -0.2649  0.8295 -0.7608
 6945TIP3   OH245029   2.406   0.351   1.951 -0.0519 -0.3353 -0.1464
 6945TIP3    H145030   2.382   0.340   1.859  0.4771  2.0912 -0.6485
 6945TIP3    H245031   2.447   0.268   1.976  0.6578 -0.7082 -2.3872
 6946TIP3   OH245032   5.018   2.378   3.504 -0.0718 -0.3027 -0.1766
 6946TIP3    H145033   4.937   2.370   3.555 -0.3976 -1.7947 -0.8624
 6946TIP3    H245034   5.076   2.312   3.542  0.6882  0.4730  0.0326
 6947TIP3   OH245035   1.374   2.310   3.813 -0.1798 -0.1618 -0.4082
 6947TIP3    H145036   1.308   2.255   3.772 -0.5242  0.1303 -0.2467
 6947TIP3    H245037   1.387   2.272   3.900 -0.2974 -0.0852 -0.3574
 6948TIP3   OH245038   6.820   5.735   2.396  0.3547 -0.0492  0.0184
 6948TIP3    H145039   6.859   5.794   2.332  0.5804 -1.1295 -0.8596
 6948TIP3    H245040   6.741   5.702   2.354 -0.2493  0.2832  0.8542
 6949TIP3   OH245041   6.065   2.628   2.272  0.0685 -0.3687  0.1560
 6949TIP3    H145042   5.978   2.608   2.240 -0.9829  1.7595  1.4378
 6949TIP3    H245043   6.104   2.683   2.204  0.2451 -0.9369 -0.2067
 6950TIP3   OH245044   4.644   2.357   3.333 -0.6995  0.3427  0.2536
 6950TIP3    H145045   4.606   2.400   3.409 -0.4352 -0.8842  1.1044
 6950TIP3    H245046   4.607   2.404   3.258 -1.1010  1.4496  1.1253
 6951TIP3   OH245047   1.496   1.791   0.571  0.1946  0.0122 -0.5979
 6951TIP3    H145048   1.412   1.745   0.577  0.8941 -1.2662 -0.1957
 6951TIP3    H245049   1.560   1.728   0.605  1.1542  1.4475  0.3764
 6952TIP3   OH245050   6.183   0.941   2.367  0.2707 -0.3799 -0.1299
 6952TIP3    H145051   6.162   0.949   2.274  2.5126 -0.8057 -0.7472
 6952TIP3    H245052   6.227   1.023   2.389  0.0759 -0.4289  0.4574
 6953TIP3   OH245053   1.131   0.245   3.042 -0.2827  0.4839  0.2057
 6953TIP3    H145054   1.078   0.166   3.047 -0.6108  0.6405 -0.6981
 6953TIP3    H245055   1.076   0.313   3.082 -1.5987  1.0575 -2.3870
 6954TIP3   OH245056   6.361   2.106   1.438  0.1430  0.2922  0.2212
 6954TIP3    H145057   6.272   2.097   1.404  0.6391 -1.3156 -0.8099
 6954TIP3    H245058   6.394   2.187   1.400 -0.9425  1.0113  0.7888
 6955TIP3   OH245059   5.138   3.674   1.397  0.7295 -0.1560  0.3973
 6955TIP3    H145060   5.086   3.713   1.468  0.1698 -0.2489  0.0495
 6955TIP3    H245061   5.073   3.649   1.331  1.1884 -0.6210  0.1124
 6956TIP3   OH245062   0.818   3.859   1.734 -0.0836 -0.0785 -0.6923
 6956TIP3    H145063   0.818   3.797   1.661  0.1727 -0.8455 -0.0492
 6956TIP3    H245064   0.826   3.805   1.812 -0.8065  0.7049 -0.0521
 6957TIP3   OH245065   4.351   5.894   1.202 -0.0987  0.3571 -0.3848
 6957TIP3    H145066   4.304   5.817   1.172 -0.7074  0.4364  0.3379
 6957TIP3    H245067   4.308   5.967   1.158 -0.2164  0.3699 -0.2514
 6958TIP3   OH245068   5.532   3.166   2.727  0.0023  0.5838  0.1914
 6958TIP3    H145069   5.610   3.109   2.731 -0.2297  0.3148  1.2976
 6958TIP3    H245070   5.510   3.170   2.634 -0.4705 -1.8347  0.1306
 6959TIP3   OH245071   3.205   6.559   1.252 -0.4976  0.1476 -0.1823
 6959TIP3    H145072   3.149   6.487   1.282  2.2281 -2.1411 -0.1477
 6959TIP3    H245073   3.187   6.566   1.158  0.3911 -1.8957 -0.5744
 6960TIP3   OH245074   6.516   6.178   0.613  0.6256 -0.1883  0.0566
 6960TIP3    H145075   6.494   6.104   0.669 -0.8256 -0.6258 -1.0228
 6960TIP3    H245076   6.483   6.154   0.526 -0.1184  1.8055 -0.2811
 6961TIP3   OH245077   1.884   5.376   2.047  0.3914 -0.1991  0.2555
 6961TIP3    H145078   1.916   5.308   2.106  0.3384  0.1754  0.7198
 6961TIP3    H245079   1.793   5.390   2.072 -0.2150 -1.3340 -1.1332
 6962TIP3   OH245080   3.914   5.350   0.614  0.4327  0.1899 -0.3345
 6962TIP3    H145081   3.826   5.312   0.617  1.1589 -1.5254  0.7697
 6962TIP3    H245082   3.915   5.413   0.686 -0.4881  1.7400 -1.6072
 6963TIP3   OH245083   1.755   3.962   0.690  0.3440  0.1857 -0.0677
 6963TIP3    H145084   1.673   4.002   0.720 -0.4297 -0.5082 -1.1695
 6963TIP3    H245085   1.824   4.019   0.724 -0.4300 -0.4103  2.8114
 6964TIP3   OH245086   2.500   3.036   0.896  0.0317 -0.0295 -0.4286
 6964TIP3    H145087   2.566   3.078   0.950  0.3876  0.0281 -0.9012
 6964TIP3    H245088   2.435   3.104   0.879 -1.7186 -0.8216  2.4583
 6965TIP3   OH245089   3.226   3.512   1.702 -0.3628 -0.5614  0.0668
 6965TIP3    H145090   3.235   3.442   1.767  0.6815 -0.9169 -0.4282
 6965TIP3    H245091   3.205   3.466   1.621 -2.2434 -0.0737  0.2453
 6966TIP3   OH245092   6.791   2.962   2.441  0.5335 -0.1645  0.9720
 6966TIP3    H145093   6.823   2.903   2.373 -0.3583 -0.5053  0.8399
 6966TIP3    H245094   6.714   3.004   2.403  0.0648 -0.3011  1.7384
 6967TIP3   OH245095   6.397   3.379   1.484 -0.0051  0.3276 -0.3471
 6967TIP3    H145096   6.335   3.448   1.504  0.5652  0.6981  0.1783
 6967TIP3    H245097   6.477   3.404   1.530  1.1701  0.8893 -2.5365
 6968TIP3   OH245098   5.215   1.758   0.652  0.8221  0.3307  0.1023
 6968TIP3    H145099   5.283   1.742   0.717  0.6780 -1.0459 -0.0524
 6968TIP3    H245100   5.202   1.673   0.609 -1.6238  0.3087  0.7250
 6969TIP3   OH245101   3.687   5.693   1.635 -0.6953 -0.0148 -0.8656
 6969TIP3    H145102   3.689   5.597   1.638 -0.0453  0.0111 -0.0410
 6969TIP3    H245103   3.768   5.717   1.590  0.5169  0.1848  1.2627
 6970TIP3   OH245104   6.826   1.200   1.252  0.0779 -0.2026 -0.5469
 6970TIP3    H145105   6.823   1.294   1.233 -0.8548 -0.2970 -0.8893
 6970TIP3    H245106   6.907   1.170   1.210  1.5377  0.8294  1.4062
 6971TIP3   OH245107   5.913   0.330   4.079  0.4072 -0.4012 -0.0783
 6971TIP3    H145108   5.981   0.283   4.030 -0.1709 -1.7527  0.3838
 6971TIP3    H245109   5.960   0.372   4.151  0.7764 -1.1915  0.1428
 6972TIP3   OH245110   1.225   1.348   1.733  0.2956  0.3236 -0.6671
 6972TIP3    H145111   1.254   1.290   1.662 -0.5569  0.1393 -0.8821
 6972TIP3    H245112   1.296   1.411   1.743  1.0077 -0.4414 -0.7872
 6973TIP3   OH245113   0.157   5.103   3.932  0.5851 -0.0703 -0.2073
 6973TIP3    H145114   0.101   5.069   3.862 -1.6041  0.4661  1.1831
 6973TIP3    H245115   0.222   5.035   3.946 -1.0005 -1.7246 -0.4924
 6974TIP3   OH245116   5.935   2.564   3.313 -0.1617  0.1422 -0.0057
 6974TIP3    H145117   5.854   2.549   3.265 -0.7676 -0.1634  1.0907
 6974TIP3    H245118   6.002   2.572   3.244 -0.9669 -0.4849 -0.8892
 6975TIP3   OH245119   5.035   2.765   0.976 -0.7018 -0.4718 -0.3607
 6975TIP3    H145120   4.981   2.686   0.974  0.7143 -1.4785 -0.2345
 6975TIP3    H245121   5.124   2.735   0.955 -0.2062  1.1625 -0.7991
 6976TIP3   OH245122   4.206   2.165   0.578  0.0341 -0.0709  0.1515
 6976TIP3    H145123   4.173   2.181   0.490 -0.2755  0.5832  0.3791
 6976TIP3    H245124   4.241   2.076   0.575  2.3217  0.7776 -1.3196
 6977TIP3   OH245125   5.863   1.895   4.339  0.0183 -0.0668 -0.1993
 6977TIP3    H145126   5.896   1.975   4.298 -0.9515  0.4963  0.0693
 6977TIP3    H245127   5.941   1.844   4.358  0.6945  0.9644 -0.0865
 6978TIP3   OH245128   6.411   6.077   1.391 -0.3769  0.9808  0.0299
 6978TIP3    H145129   6.345   6.130   1.347 -1.9373 -0.7199  0.2429
 6978TIP3    H245130   6.369   5.993   1.406  1.7586 -0.0718  0.4424
 6979TIP3   OH245131   6.812   2.099   3.146 -0.0480  0.2843 -0.0467
 6979TIP3    H145132   6.807   2.109   3.242  1.3923 -1.5380  0.2660
 6979TIP3    H245133   6.894   2.052   3.131  0.2507  1.4086 -2.2862
 6980TIP3   OH245134   2.154   5.412   1.997  0.0544  0.0128 -0.1561
 6980TIP3    H145135   2.062   5.413   2.020 -0.3168  0.8508 -1.5691
 6980TIP3    H245136   2.161   5.347   1.927  0.2606  0.9488 -1.0265
 6981TIP3   OH245137   4.582   1.523   1.735 -0.8707  0.4394 -0.2380
 6981TIP3    H145138   4.623   1.453   1.786 -0.0707  0.5573 -0.7040
 6981TIP3    H245139   4.495   1.489   1.714 -0.5993 -0.2971 -0.2118
 6982TIP3   OH245140   1.774   3.632   2.913 -0.0336  0.2219 -0.2350
 6982TIP3    H145141   1.841   3.579   2.869 -0.0772  1.1310 -1.4685
 6982TIP3    H245142   1.692   3.603   2.874 -0.0616  1.1233 -0.8831
 6983TIP3   OH245143   3.988   0.456   2.637 -0.0252 -0.1047  0.6062
 6983TIP3    H145144   3.910   0.447   2.582 -0.2530 -0.9712  1.0421
 6983TIP3    H245145   4.022   0.543   2.617 -0.2460 -0.2924 -0.7046
 6984TIP3   OH245146   1.123   1.002   3.051  0.3497 -0.0255 -0.4400
 6984TIP3    H145147   1.190   1.025   3.115  1.8734  0.4570 -2.1408
 6984TIP3    H245148   1.055   1.069   3.062 -0.2226 -0.8598  1.7065
 6985TIP3   OH245149   4.986   6.643   3.100  0.1425  0.1706  0.4199
 6985TIP3    H145150   4.911   6.599   3.141 -0.7772  0.7101 -0.6089
 6985TIP3    H245151   5.057   6.579   3.105 -0.6815 -0.7779  0.4759
 6986TIP3   OH245152   4.019   1.584   2.728 -0.0039 -0.2330 -0.1769
 6986TIP3    H145153   4.082   1.531   2.776  3.1415  0.1580 -3.4247
 6986TIP3    H245154   4.030   1.673   2.762  0.1870 -0.4008  0.1937
 6987TIP3   OH245155   4.559   6.187   3.043  0.2330  0.8675  0.1270
 6987TIP3    H145156   4.480   6.138   3.065  1.2797 -1.3795 -0.7494
 6987TIP3    H245157   4.603   6.200   3.127  0.7344 -1.2928  0.2686
 6988TIP3   OH245158   0.425   5.296   2.660 -0.3904 -0.3298  0.4288
 6988TIP3    H145159   0.509   5.304   2.616  0.5785 -0.7908  2.0880
 6988TIP3    H245160   0.415   5.202   2.675 -0.6573 -0.1931  1.1906
 6989TIP3   OH245161   2.744   3.848   2.322 -0.2179  0.0334  0.3137
 6989TIP3    H145162   2.662   3.814   2.287 -0.7173  2.1523 -0.7820
 6989TIP3    H245163   2.720   3.886   2.407 -1.1357  3.1394 -1.1604
 6990TIP3   OH245164   5.703   6.812   0.418  0.0797  0.4176 -0.2181
 6990TIP3    H145165   5.612   6.783   0.409 -0.1508  0.8390  0.7209
 6990TIP3    H245166   5.698   6.890   0.472  1.0517  0.1871  0.2112
 6991TIP3   OH245167   3.486   5.507   3.485 -0.1897 -0.2416 -0.2649
 6991TIP3    H145168   3.478   5.591   3.530 -1.5133  1.1210 -2.8497
 6991TIP3    H245169   3.413   5.505   3.424  0.3810 -2.8715 -0.9993
 6992TIP3   OH245170   4.822   2.411   2.025  0.4530 -0.7178  0.0527
 6992TIP3    H145171   4.875   2.333   2.042  1.7931  0.7180  3.5466
 6992TIP3    H245172   4.763   2.417   2.100 -0.9238  0.6356 -1.0810
 6993TIP3   OH245173   0.482   6.720   3.468 -0.1496  0.7545  0.4328
 6993TIP3    H145174   0.464   6.726   3.562 -1.8495 -1.7358  0.3785
 6993TIP3    H245175   0.504   6.628   3.454 -1.2150  0.7693 -1.7797
 6994TIP3   OH245176   6.264   0.668   0.494 -0.2178 -0.0483 -0.0298
 6994TIP3    H145177   6.197   0.651   0.428 -0.7311  1.7885 -0.0562
 6994TIP3    H245178   6.347   0.645   0.452 -0.7552 -1.6165 -0.2752
 6995TIP3   OH245179   5.173   2.153   1.538  0.1712 -0.1320 -0.2604
 6995TIP3    H145180   5.087   2.139   1.577  0.2343  0.7492  0.2131
 6995TIP3    H245181   5.231   2.169   1.613  0.6163 -0.0825 -0.6120
 6996TIP3   OH245182   4.526   4.430   1.425  0.0343 -0.4457  0.0650
 6996TIP3    H145183   4.596   4.404   1.485  1.0507 -0.1151 -0.9420
 6996TIP3    H245184   4.484   4.505   1.468  2.0260  1.0747 -0.4800
 6997TIP3   OH245185   1.047   5.576   2.675 -0.2693  0.1091 -0.0420
 6997TIP3    H145186   1.019   5.631   2.749  0.2043 -0.5662  0.6579
 6997TIP3    H245187   1.036   5.632   2.598  0.1271  1.1747  0.6439
 6998TIP3   OH245188   3.677   0.591   2.752  0.5020  0.2225  0.1633
 6998TIP3    H145189   3.620   0.647   2.805  0.2218 -0.0487  0.1474
 6998TIP3    H245190   3.700   0.645   2.676  0.5254  0.4454  0.3281
 6999TIP3   OH245191   5.377   2.776   3.728  0.8326 -0.2329  0.2857
 6999TIP3    H145192   5.421   2.829   3.794 -0.2663  0.1853  0.7211
 6999TIP3    H245193   5.313   2.725   3.777  0.8420 -0.8442 -0.3166
 7000TIP3   OH245194   4.184   3.186   2.680  0.5484  0.2926  0.5097
 7000TIP3    H145195   4.127   3.258   2.706  1.1885  0.8132  0.4850
 7000TIP3    H245196   4.167   3.175   2.587  0.3533  0.3227  0.5405
 7001TIP3   OH245197   3.780   2.434   3.892 -0.3634 -0.2290 -0.0950
 7001TIP3    H145198   3.720   2.427   3.966  1.1781 -0.1876  1.2250
 7001TIP3    H245199   3.801   2.343   3.870  1.7443 -0.2996  1.7937
 7002TIP3   OH245200   1.975   2.022   1.740 -0.0817  0.6088 -0.3497
 7002TIP3    H145201   2.009   1.973   1.815 -1.5785  0.4038  0.2216
 7002TIP3    H245202   1.913   2.085   1.778 -1.1020  0.3003 -1.4298
 7003TIP3   OH245203   3.155   0.967   0.721 -0.3623  0.1106 -0.0992
 7003TIP3    H145204   3.220   0.982   0.652 -1.7963  1.7229 -1.2110
 7003TIP3    H245205   3.178   1.030   0.789 -0.1051 -0.0957  0.0042
 7004TIP3   OH245206   1.679   4.657   2.348 -0.2477 -0.4121  0.8627
 7004TIP3    H145207   1.759   4.705   2.365 -0.9409  1.0337  0.2164
 7004TIP3    H245208   1.667   4.601   2.425  0.2643  0.8943  1.9277
 7005TIP3   OH245209   5.901   1.612   2.053 -0.2855  0.0578 -0.1645
 7005TIP3    H145210   5.824   1.658   2.085 -0.4320 -0.3067  0.0124
 7005TIP3    H245211   5.975   1.664   2.083 -0.4221 -0.2132  0.6673
 7006TIP3   OH245212   6.438   2.813   1.813 -0.1642 -0.1813  0.1799
 7006TIP3    H145213   6.518   2.769   1.843 -0.3799 -0.5384  0.2408
 7006TIP3    H245214   6.448   2.904   1.841  0.9542  0.1553 -1.2027
 7007TIP3   OH245215   2.404   0.445   0.585 -0.0869  0.2484 -0.4664
 7007TIP3    H145216   2.335   0.379   0.590  0.2273 -0.0239  0.2744
 7007TIP3    H245217   2.485   0.395   0.583  0.1486  0.6053  0.0315
 7008TIP3   OH245218   3.999   0.310   1.119 -0.1090 -0.0816 -0.3786
 7008TIP3    H145219   3.934   0.357   1.067  0.4057  0.6935 -0.3418
 7008TIP3    H245220   3.976   0.218   1.108  0.7469 -0.0727 -3.0897
 7009TIP3   OH245221   3.460   2.762   1.872  0.3703  0.2640 -0.4193
 7009TIP3    H145222   3.380   2.766   1.925  0.6150 -0.1526 -0.0130
 7009TIP3    H245223   3.457   2.674   1.832  0.2570  0.5227 -0.9890
 7010TIP3   OH245224   6.672   3.795   1.148  0.0570 -0.0993  0.1150
 7010TIP3    H145225   6.730   3.859   1.106  1.0363 -0.9360  0.1619
 7010TIP3    H245226   6.720   3.712   1.142 -0.7569 -0.6406  0.9426
 7011TIP3   OH245227   0.281   3.803   1.916  0.2615 -0.1814  0.4973
 7011TIP3    H145228   0.328   3.747   1.979  1.0102 -0.1983 -0.0565
 7011TIP3    H245229   0.327   3.887   1.921 -0.0112 -0.0262  0.3571
 7012TIP3   OH245230   4.252   0.024   0.905 -0.4079 -0.2762 -0.2518
 7012TIP3    H145231   4.164   0.061   0.900 -0.0540  0.5552 -0.4407
 7012TIP3    H245232   4.301   0.085   0.959  0.4590  0.0954 -1.4257
 7013TIP3   OH245233   5.603   1.543   2.685 -0.4568 -0.2134  0.0868
 7013TIP3    H145234   5.617   1.459   2.640  0.6166  0.6554 -1.2723
 7013TIP3    H245235   5.549   1.594   2.624  1.8383  1.3489 -0.7573
 7014TIP3   OH245236   6.421   0.498   1.272 -0.5218 -0.3646  0.1773
 7014TIP3    H145237   6.443   0.475   1.182 -0.4421 -2.9677  0.7691
 7014TIP3    H245238   6.381   0.585   1.266 -0.8874 -0.6301 -2.3972
 7015TIP3   OH245239   1.734   1.482   1.211  0.5125  0.2666 -0.2984
 7015TIP3    H145240   1.758   1.505   1.301 -1.4765 -0.1395  0.3962
 7015TIP3    H245241   1.768   1.555   1.158 -0.2260  1.6821  1.0721
 7016TIP3   OH245242   4.252   0.051   3.520 -0.4011 -0.0606 -0.0599
 7016TIP3    H145243   4.300   0.004   3.588 -2.9293 -1.2552  1.0319
 7016TIP3    H245244   4.185   0.101   3.568 -1.6575 -0.1886 -1.5926
 7017TIP3   OH245245   0.353   0.074   1.539  0.3412 -0.2339  0.1046
 7017TIP3    H145246   0.325   0.025   1.462 -1.0520  0.9715 -0.1959
 7017TIP3    H245247   0.449   0.077   1.532  0.4891 -2.7029  0.0641
 7018TIP3   OH245248   3.131   3.555   2.065  0.6889 -0.0304  0.1803
 7018TIP3    H145249   3.183   3.484   2.101  1.0153 -0.3116 -0.8210
 7018TIP3    H245250   3.156   3.632   2.117 -0.2722 -0.7710  1.8133
 7019TIP3   OH245251   2.264   5.593   3.845  0.0149  0.0072 -0.1604
 7019TIP3    H145252   2.209   5.532   3.893  0.1625  1.3545  1.8486
 7019TIP3    H245253   2.208   5.624   3.773 -0.7698 -0.8908  0.0454
 7020TIP3   OH245254   2.595   2.526   1.696  0.6545  1.2816  0.0859
 7020TIP3    H145255   2.535   2.569   1.757  1.6185  1.1289  1.1943
 7020TIP3    H245256   2.541   2.500   1.622 -0.9441 -0.1890  1.7040
 7021TIP3   OH245257   4.816   3.278   1.365  0.0182  0.4011 -0.1478
 7021TIP3    H145258   4.732   3.243   1.336 -0.0310 -0.2650  0.7638
 7021TIP3    H245259   4.828   3.242   1.453 -0.1465  2.8988  0.9701
 7022TIP3   OH245260   1.566   2.639   1.974  0.4680  0.2305 -0.4936
 7022TIP3    H145261   1.592   2.548   1.962  1.5119  0.6030 -1.1892
 7022TIP3    H245262   1.614   2.668   2.052 -2.3111 -0.6801  1.7443
 7023TIP3   OH245263   3.606   4.133   1.769  0.4527 -0.2570  0.2281
 7023TIP3    H145264   3.559   4.129   1.852 -0.8270  1.5390 -0.3448
 7023TIP3    H245265   3.612   4.226   1.749 -0.9117 -0.6518 -2.5586
 7024TIP3   OH245266   5.371   2.372   0.836 -0.1025 -0.0946 -0.3547
 7024TIP3    H145267   5.372   2.287   0.792 -0.7969 -0.5871  0.5420
 7024TIP3    H245268   5.325   2.356   0.918 -1.1650  1.3771 -0.6166
 7025TIP3   OH245269   3.115   6.746   1.469  1.0081  0.1611  0.3024
 7025TIP3    H145270   3.054   6.693   1.519 -0.3818  1.4087 -0.0117
 7025TIP3    H245271   3.154   6.685   1.406 -1.3256 -0.3347 -0.7738
 7026TIP3   OH245272   6.611   1.977   0.974 -0.2765  0.5304  0.0853
 7026TIP3    H145273   6.596   2.045   1.040  1.4249  0.0126  1.0683
 7026TIP3    H245274   6.577   2.015   0.893 -3.3934  0.7955  1.3507
 7027TIP3   OH245275   1.978   3.150   4.131 -0.0359  0.3308  0.2164
 7027TIP3    H145276   2.023   3.194   4.203  0.6741 -0.4835  0.2808
 7027TIP3    H245277   1.900   3.112   4.171 -0.1127  0.6428  0.3687
 7028TIP3   OH245278   4.719   6.670   1.223  0.3510  0.0206  0.0103
 7028TIP3    H145279   4.773   6.638   1.296 -1.0247 -1.7981  0.2929
 7028TIP3    H245280   4.725   6.766   1.230  1.6449 -0.1195  1.4418
 7029TIP3   OH245281   0.678   2.823   1.441 -0.1553  0.5407 -0.2586
 7029TIP3    H145282   0.727   2.902   1.461  1.9032 -0.8534  0.5248
 7029TIP3    H245283   0.663   2.782   1.526 -2.0369  0.5009 -0.5599
 7030TIP3   OH245284   3.384   6.031   3.689  0.1148  0.5923  0.1246
 7030TIP3    H145285   3.312   6.049   3.749 -0.7824 -1.4581 -0.2500
 7030TIP3    H245286   3.347   6.038   3.602  0.2376 -0.7761 -0.0685
 7031TIP3   OH245287   5.993   5.023   2.404 -0.5048  0.5018  0.1447
 7031TIP3    H145288   5.910   5.029   2.357 -1.5384 -0.3271  1.7600
 7031TIP3    H245289   5.968   4.998   2.493  1.4798  0.3822  0.7128
 7032TIP3   OH245290   3.739   1.627   1.194  0.1521  0.3714 -0.3660
 7032TIP3    H145291   3.717   1.572   1.118 -0.0852  0.8894 -0.6747
 7032TIP3    H245292   3.828   1.600   1.218  1.1613  1.8135 -2.2775
 7033TIP3   OH245293   0.428   4.831   1.694 -0.0527  0.2538  0.4294
 7033TIP3    H145294   0.505   4.883   1.670 -0.7267  1.1639  0.1810
 7033TIP3    H245295   0.367   4.895   1.731 -0.1028 -0.6796  2.0939
 7034TIP3   OH245296   4.876   5.785   1.316 -0.1279 -0.3774 -0.1545
 7034TIP3    H145297   4.782   5.779   1.299 -0.2349 -0.1387  0.3500
 7034TIP3    H245298   4.884   5.851   1.385  0.5550  0.9767 -1.4652
 7035TIP3   OH245299   4.595   5.958   2.607 -0.1348  0.1577  0.3425
 7035TIP3    H145300   4.645   5.978   2.686  2.8117  4.0837 -2.1400
 7035TIP3    H245301   4.532   6.030   2.599 -2.1544 -1.5134  0.2609
 7036TIP3   OH245302   6.779   3.819   2.262  0.4601  0.3737  0.8194
 7036TIP3    H145303   6.684   3.828   2.275  0.2266 -1.1915  0.3989
 7036TIP3    H245304   6.816   3.846   2.346 -0.6379 -2.9055  2.5511
 7037TIP3   OH245305   3.144   0.956   1.553 -0.4467  0.7257  0.3893
 7037TIP3    H145306   3.128   0.892   1.622 -1.8712  0.0242 -0.5343
 7037TIP3    H245307   3.229   0.932   1.517 -0.0617  0.6013  1.3600
 7038TIP3   OH245308   4.278   5.690   8.263  0.0703 -0.3138  0.6346
 7038TIP3    H145309   4.206   5.628   8.276  0.2064 -0.8755 -1.0452
 7038TIP3    H245310   4.240   5.775   8.284 -0.6901 -0.7403  1.0529
 7039TIP3   OH245311   2.319   0.841   3.132  0.0065 -0.4665  0.1128
 7039TIP3    H145312   2.403   0.804   3.161  1.6305  1.4049 -1.7953
 7039TIP3    H245313   2.298   0.907   3.198  1.2611  0.5683 -0.4520
 7040TIP3   OH245314   0.218   0.829   1.048  0.1183  0.1000  0.6920
 7040TIP3    H145315   0.139   0.783   1.019  0.8921 -1.5221  1.0487
 7040TIP3    H245316   0.282   0.813   0.978  0.7670 -0.4102  1.3846
 7041TIP3   OH245317   4.461   4.776   1.002 -0.4056  0.2619  0.3060
 7041TIP3    H145318   4.540   4.786   0.949 -0.0493 -0.3419  0.7145
 7041TIP3    H245319   4.418   4.699   0.967  0.0547 -0.4001  1.1578
 7042TIP3   OH245320   5.473   3.022   1.917 -0.1894 -0.1121  0.3704
 7042TIP3    H145321   5.455   2.953   1.981  1.7180 -0.1795  0.8777
 7042TIP3    H245322   5.437   2.989   1.835  0.8068 -1.7967  0.5714
 7043TIP3   OH245323   6.542   6.760   0.741  0.3002 -0.1562 -0.1333
 7043TIP3    H145324   6.475   6.699   0.709 -0.0176  0.8565 -1.4833
 7043TIP3    H245325   6.514   6.783   0.829  0.5351 -2.0809  0.4968
 7044TIP3   OH245326   0.534   3.902   1.573  0.0167 -0.1194 -0.4293
 7044TIP3    H145327   0.551   3.927   1.482  2.0568 -0.7711 -0.2970
 7044TIP3    H245328   0.588   3.824   1.586 -0.7660 -0.4344  1.1538
 7045TIP3   OH245329   4.044   1.741   0.632 -0.0784 -0.2906 -0.9710
 7045TIP3    H145330   4.071   1.791   0.709 -0.0083 -2.7614  0.7128
 7045TIP3    H245331   4.124   1.730   0.581 -0.0375  0.9801 -1.2225
 7046TIP3   OH245332   2.541   6.631   1.406  0.0860 -1.0100  0.3689
 7046TIP3    H145333   2.556   6.719   1.440 -2.8404 -0.6370  0.9427
 7046TIP3    H245334   2.555   6.639   1.312  2.1812 -0.5757  0.6592
 7047TIP3   OH245335   0.318   6.483   2.701  0.3246  0.3352 -0.1979
 7047TIP3    H145336   0.241   6.535   2.679 -0.6085 -0.9921 -0.1702
 7047TIP3    H245337   0.391   6.532   2.665 -0.3506  2.3819  1.0523
 7048TIP3   OH245338   2.012   6.129   2.581 -0.0011 -0.3348  0.3314
 7048TIP3    H145339   2.016   6.224   2.589 -0.4486 -0.1349 -1.3510
 7048TIP3    H245340   2.083   6.107   2.521 -0.0929 -1.0374  0.4696
 7049TIP3   OH245341   1.701   6.808   2.911  0.2161  0.0880  0.0214
 7049TIP3    H145342   1.763   6.850   2.851 -0.2229 -0.4186 -0.7982
 7049TIP3    H245343   1.646   6.880   2.943 -1.5382  0.0159 -2.5654
 7050TIP3   OH245344   5.189   0.229   2.071  0.3521  0.1539 -0.0886
 7050TIP3    H145345   5.161   0.303   2.124  2.2074  0.7151  0.1747
 7050TIP3    H245346   5.111   0.174   2.064 -0.2394  0.5354  2.3911
 7051TIP3   OH245347   6.770   5.782   0.726  0.0562 -0.6473  0.1166
 7051TIP3    H145348   6.787   5.876   0.723 -1.4138 -0.3725 -0.0789
 7051TIP3    H245349   6.741   5.765   0.816  0.7674 -1.0107  0.2870
 7052TIP3   OH245350   5.554   3.102   1.028  0.1066 -0.0750 -0.0638
 7052TIP3    H145351   5.564   3.173   0.965  0.3855  2.5352  2.7204
 7052TIP3    H245352   5.460   3.095   1.043 -0.0310 -1.2557 -1.2479
 7053TIP3   OH245353   3.989   1.871   2.736 -0.1911 -0.2272 -0.6178
 7053TIP3    H145354   4.009   1.931   2.664  0.1131  0.8209  0.3091
 7053TIP3    H245355   3.992   1.926   2.815 -2.6875 -0.8484 -0.0001
 7054TIP3   OH245356   4.269   5.146   0.918 -0.3131 -0.9680 -0.2434
 7054TIP3    H145357   4.257   5.238   0.895  0.5300 -0.8738 -0.3505
 7054TIP3    H245358   4.182   5.115   0.942 -0.6247 -0.1782 -0.3373
 7055TIP3   OH245359   4.623   6.378   2.870  0.5299 -0.3543  0.0662
 7055TIP3    H145360   4.602   6.307   2.930  0.7675 -0.3913  0.1056
 7055TIP3    H245361   4.539   6.400   2.828  0.5629 -1.0696 -0.4000
 7056TIP3   OH245362   2.522   1.609   4.223  0.4029  0.3007  0.0197
 7056TIP3    H145363   2.536   1.704   4.234  1.0883  0.0597  1.5005
 7056TIP3    H245364   2.557   1.590   4.136  2.3909  1.0450  0.5925
 7057TIP3   OH245365   3.190   0.056   3.525 -0.0059  0.6992  0.8518
 7057TIP3    H145366   3.246   0.124   3.489 -1.2280  1.8994  1.1448
 7057TIP3    H245367   3.158   0.092   3.607  0.6140 -0.9144  1.8588
 7058TIP3   OH245368   5.712   0.590   2.378  0.2893  0.0401 -0.1541
 7058TIP3    H145369   5.760   0.561   2.301 -1.2041 -0.9074 -0.7614
 7058TIP3    H245370   5.720   0.517   2.440  0.0678  0.0855 -0.0706
 7059TIP3   OH245371   6.332   2.096   1.739 -0.1808  0.2037  0.6081
 7059TIP3    H145372   6.343   2.036   1.665  0.3563  1.2752 -0.2273
 7059TIP3    H245373   6.300   2.042   1.810  0.0283 -1.0129 -0.1931
 7060TIP3   OH245374   5.479   0.973   3.800  0.0151 -0.3394  0.2897
 7060TIP3    H145375   5.546   0.963   3.868  1.1498 -0.5980 -0.8340
 7060TIP3    H245376   5.398   0.944   3.842  0.4894  0.4298  1.8341
 7061TIP3   OH245377   0.723   2.292   1.877 -0.2720 -0.3732  0.3849
 7061TIP3    H145378   0.628   2.300   1.868 -0.1268  1.6442  0.0314
 7061TIP3    H245379   0.745   2.349   1.950  0.7975  0.3619 -0.4672
 7062TIP3   OH245380   6.584   2.259   1.431  0.2652 -0.4724 -0.2804
 7062TIP3    H145381   6.657   2.300   1.384  0.9211  1.0891  1.9391
 7062TIP3    H245382   6.623   2.183   1.475  0.2828 -0.3675 -0.1117
 7063TIP3   OH245383   1.210   4.533   1.529 -0.0027  0.3736  1.1067
 7063TIP3    H145384   1.225   4.439   1.523 -1.6236  0.1831 -1.6232
 7063TIP3    H245385   1.158   4.544   1.609  1.4909 -0.8062  2.2925
 7064TIP3   OH245386   0.356   0.182   1.804  0.1256  0.2772  0.3548
 7064TIP3    H145387   0.424   0.246   1.783  0.7001 -0.3491  0.2976
 7064TIP3    H245388   0.347   0.129   1.725  0.4839 -0.4564  0.7960
 7065TIP3   OH245389   1.030   3.728   2.309  0.0151 -0.1047  0.2113
 7065TIP3    H145390   1.039   3.633   2.317 -0.9476 -0.1289  1.0560
 7065TIP3    H245391   0.966   3.740   2.239  0.6284 -0.0481 -0.3579
 7066TIP3   OH245392   0.556   2.251   1.443  0.1146 -0.0368 -0.0735
 7066TIP3    H145393   0.519   2.277   1.358 -0.5382 -0.3355  0.1099
 7066TIP3    H245394   0.518   2.314   1.504  0.0517 -0.2386  0.0936
 7067TIP3   OH245395   1.887   4.957   4.225 -0.4184  0.5805 -0.2904
 7067TIP3    H145396   1.850   5.045   4.234  0.9432  1.0862  0.7659
 7067TIP3    H245397   1.930   4.958   4.139  1.1578  1.6003  0.4717
 7068TIP3   OH245398   5.590   3.178   3.902  0.2565  0.2599  0.2552
 7068TIP3    H145399   5.519   3.157   3.962  0.6896  0.8581  0.9984
 7068TIP3    H245400   5.548   3.188   3.816 -0.0350 -3.2935 -0.1467
 7069TIP3   OH245401   5.207   5.145   0.787  0.6758 -0.0375 -0.0525
 7069TIP3    H145402   5.198   5.092   0.707 -0.8152 -0.6426  0.4849
 7069TIP3    H245403   5.118   5.147   0.824  1.5814 -1.0298  2.3894
 7070TIP3   OH245404   4.434   3.225   2.171  0.0209  0.7843  0.2976
 7070TIP3    H145405   4.380   3.297   2.138 -1.0996 -0.2524 -0.2137
 7070TIP3    H245406   4.476   3.260   2.250  0.0286  2.1942 -0.3089
 7071TIP3   OH245407   5.126   2.105   2.723  0.5555  0.2769  0.2981
 7071TIP3    H145408   5.182   2.182   2.716  0.0752  0.7571  1.5691
 7071TIP3    H245409   5.186   2.031   2.712  0.6893  0.7435 -3.4265
 7072TIP3   OH245410   4.815   6.340   1.150 -0.2569  0.5856  0.6586
 7072TIP3    H145411   4.806   6.267   1.088  2.7667 -0.2464  1.0558
 7072TIP3    H245412   4.824   6.417   1.095  2.1874 -0.1220 -0.0395
 7073TIP3   OH245413   5.448   3.726   2.347  0.3542  0.4017  0.6039
 7073TIP3    H145414   5.543   3.716   2.336  0.2787  0.6888 -0.5115
 7073TIP3    H245415   5.412   3.642   2.320  0.1708  1.0729 -1.4547
 7074TIP3   OH245416   0.693   4.413   4.159 -0.1795  0.4274  0.6244
 7074TIP3    H145417   0.663   4.376   4.242 -0.2078 -2.1083 -0.4267
 7074TIP3    H245418   0.787   4.424   4.171 -0.5682  3.0340  1.9811
 7075TIP3   OH245419   2.769   0.085   2.918 -0.4015 -0.6521 -0.8084
 7075TIP3    H145420   2.676   0.062   2.917 -1.1538  1.9763 -0.7477
 7075TIP3    H245421   2.794   0.090   2.826 -0.9620  0.6920 -0.9177
 7076TIP3   OH245422   1.886   3.913   1.599 -0.3654  0.5480 -0.4331
 7076TIP3    H145423   1.910   3.889   1.509  0.9231 -1.2813  0.3398
 7076TIP3    H245424   1.893   3.832   1.649  0.2912  1.7666  1.5934
 7077TIP3   OH245425   2.221   1.504   1.379 -0.8282 -0.0096 -0.0550
 7077TIP3    H145426   2.311   1.526   1.356 -1.2583  0.1881 -1.7260
 7077TIP3    H245427   2.210   1.413   1.351 -0.5679 -0.7734  2.1053
 7078TIP3   OH245428   6.298   0.176   1.472  0.1153  0.1249 -0.1289
 7078TIP3    H145429   6.204   0.158   1.478  0.0847 -0.2986 -1.5702
 7078TIP3    H245430   6.339   0.094   1.501  0.0580  0.3571  0.6385
 7079TIP3   OH245431   0.997   4.279   2.254 -0.6014 -0.0979  0.3734
 7079TIP3    H145432   1.031   4.238   2.175  0.5868  0.6170  0.4978
 7079TIP3    H245433   1.073   4.322   2.293 -1.4418  0.6338  1.2303
 7080TIP3   OH245434   1.356   5.526   4.191  0.2955  0.4706 -0.1289
 7080TIP3    H145435   1.336   5.518   4.098  0.4780  2.2712 -0.3560
 7080TIP3    H245436   1.450   5.507   4.197 -0.0014 -1.1083 -0.0663
 7081TIP3   OH245437   1.489   3.861   2.094  0.3291 -0.2048  0.3068
 7081TIP3    H145438   1.492   3.931   2.028 -1.6773  0.4823  0.8898
 7081TIP3    H245439   1.580   3.833   2.102  1.5842  3.5189  1.2855
 7082TIP3   OH245440   4.015   0.031   2.025  0.1521  0.5153 -0.1922
 7082TIP3    H145441   4.042   0.119   2.051 -0.7148  1.0253 -0.9660
 7082TIP3    H245442   3.933   0.016   2.073 -0.6147  0.8356 -1.3538
 7083TIP3   OH245443   4.555   6.804   1.456 -0.4044  0.8523 -0.1175
 7083TIP3    H145444   4.461   6.793   1.473 -0.5532  1.7185 -0.3423
 7083TIP3    H245445   4.598   6.775   1.536 -0.9623  2.2347  0.7144
 7084TIP3   OH245446   1.109   4.224   1.145 -0.4998  0.0997  0.2104
 7084TIP3    H145447   1.041   4.159   1.163  1.7221 -2.8494 -1.1143
 7084TIP3    H245448   1.151   4.192   1.065  2.8223  1.3666  1.2844
 7085TIP3   OH245449   0.188   5.800   3.268 -0.0659 -0.0339 -0.0895
 7085TIP3    H145450   0.115   5.779   3.327  0.8751 -0.4817  0.9446
 7085TIP3    H245451   0.215   5.888   3.294  0.4832 -0.3133  0.2935
 7086TIP3   OH245452   5.770   1.358   4.023  0.0798  0.0555 -0.0975
 7086TIP3    H145453   5.822   1.285   4.056  0.9429 -0.5756 -2.6391
 7086TIP3    H245454   5.695   1.317   3.980  0.8287  0.5826 -1.9874
 7087TIP3   OH245455   6.192   1.444   0.789  0.4513  0.0852  0.1016
 7087TIP3    H145456   6.142   1.421   0.867  0.2214 -0.0966 -0.0983
 7087TIP3    H245457   6.204   1.539   0.795 -0.4131  0.2126 -0.1454
 7088TIP3   OH245458   3.324   0.331   2.982  0.4532 -0.0155 -0.3606
 7088TIP3    H145459   3.351   0.243   3.008 -2.2014 -1.3172 -1.6285
 7088TIP3    H245460   3.307   0.376   3.064  1.0677 -0.9413  0.3003
 7089TIP3   OH245461   4.387   0.140   1.164  0.0182  0.6803 -0.0615
 7089TIP3    H145462   4.440   0.216   1.190  2.2592 -0.7708 -0.1639
 7089TIP3    H245463   4.307   0.148   1.215  0.9201  2.2009  1.2027
 7090TIP3   OH245464   3.259   3.550   3.354 -0.0639 -0.2627 -0.2843
 7090TIP3    H145465   3.341   3.501   3.363  1.9679  2.5562 -1.9946
 7090TIP3    H245466   3.203   3.516   3.424  3.1001 -1.2785  1.9458
 7091TIP3   OH245467   4.405   6.687   1.184  0.0015 -0.0494  0.2020
 7091TIP3    H145468   4.373   6.773   1.210  0.9348  0.1947  0.5588
 7091TIP3    H245469   4.487   6.676   1.231 -0.6172 -1.5906  0.9968
 7092TIP3   OH245470   5.802   4.495   0.743  0.1028 -0.1177 -0.3314
 7092TIP3    H145471   5.777   4.583   0.715  0.1226 -0.4302 -1.3763
 7092TIP3    H245472   5.752   4.480   0.823 -2.9077 -0.5920 -2.1395
 7093TIP3   OH245473   3.443   5.199   1.040 -0.6818  0.2061 -0.2038
 7093TIP3    H145474   3.455   5.105   1.028 -1.1086  0.2676 -1.1674
 7093TIP3    H245475   3.354   5.207   1.074  0.0070  0.1439  1.7470
 7094TIP3   OH245476   3.927   4.910   3.318  0.7019 -0.3097 -0.3875
 7094TIP3    H145477   3.938   4.820   3.289  0.4207 -0.6350  0.5086
 7094TIP3    H245478   4.005   4.928   3.371  0.2780 -0.3652  0.2678
 7095TIP3   OH245479   0.504   1.552   3.639  0.1422  0.0057 -0.1774
 7095TIP3    H145480   0.442   1.507   3.583 -0.3182  0.1596  0.2040
 7095TIP3    H245481   0.523   1.490   3.709  0.2337  0.0505 -0.1613
 7096TIP3   OH245482   2.584   2.362   4.144 -0.1942  0.3870  0.1034
 7096TIP3    H145483   2.662   2.311   4.164 -0.3090 -0.7385 -2.0500
 7096TIP3    H245484   2.617   2.449   4.120  0.7298 -0.7008 -3.0608
 7097TIP3   OH245485   3.867   4.916   0.739 -0.3806  0.0673 -0.0323
 7097TIP3    H145486   3.931   4.850   0.766 -1.2872  0.1295  2.4961
 7097TIP3    H245487   3.794   4.866   0.704  0.0379 -0.1226 -0.6445
 7098TIP3   OH245488   4.642   5.121   0.705  0.1880  0.0985 -0.0112
 7098TIP3    H145489   4.657   5.151   0.616 -2.0070 -0.0194 -0.4824
 7098TIP3    H245490   4.666   5.028   0.705  1.6614  0.4558 -0.0296
 7099TIP3   OH245491   3.795   2.514   3.575 -0.8267 -0.5161  0.0368
 7099TIP3    H145492   3.891   2.519   3.578 -0.7601 -1.4356 -0.1760
 7099TIP3    H245493   3.768   2.506   3.666 -0.6885 -0.4685  0.0824
 7100TIP3   OH245494   2.662   4.063   2.497 -0.1147 -0.3747  0.0664
 7100TIP3    H145495   2.584   4.078   2.443  0.3205  0.0392 -0.4582
 7100TIP3    H245496   2.634   4.089   2.586 -0.5838 -0.2634 -0.1086
 7101TIP3   OH245497   3.890   0.918   3.620 -0.3608 -0.3829 -0.0254
 7101TIP3    H145498   3.920   0.836   3.581 -0.4068 -0.2538 -0.3439
 7101TIP3    H245499   3.892   0.903   3.714 -2.5443 -1.5153 -0.0986
 7102TIP3   OH245500   4.330   1.285   1.061  0.9717 -0.2176 -0.2829
 7102TIP3    H145501   4.342   1.351   1.130  0.3744 -0.1690 -0.2231
 7102TIP3    H245502   4.287   1.212   1.104  0.7044 -0.2373 -0.5759
 7103TIP3   OH245503   4.835   1.510   0.966 -0.2838 -0.7907  0.2505
 7103TIP3    H145504   4.925   1.503   0.934 -1.2108 -0.6433 -2.6923
 7103TIP3    H245505   4.832   1.595   1.010  1.2118 -1.2266  1.2816
 7104TIP3   OH245506   0.520   5.438   2.890 -0.2665 -0.0945  0.2459
 7104TIP3    H145507   0.480   5.402   2.811  0.9630  0.9166 -0.8919
 7104TIP3    H245508   0.460   5.506   2.918  0.4114  1.1742 -1.2404
 7105TIP3   OH245509   3.526   2.281   2.235  0.3238  0.4554  0.3301
 7105TIP3    H145510   3.537   2.324   2.150 -0.7892 -0.6648 -0.4146
 7105TIP3    H245511   3.435   2.250   2.234  0.5153 -0.2021  1.6363
 7106TIP3   OH245512   5.934   1.031   1.057 -0.1236  0.1513  0.0953
 7106TIP3    H145513   5.887   0.983   0.989  0.5971 -1.6188  0.8014
 7106TIP3    H245514   5.869   1.047   1.125 -0.2243 -0.3579  0.1194
 7107TIP3   OH245515   0.691   6.650   2.977 -0.8860 -0.0650  0.0817
 7107TIP3    H145516   0.638   6.657   3.056  1.1065 -1.3380  1.6296
 7107TIP3    H245517   0.689   6.557   2.954 -1.4494  0.2900 -1.3933
 7108TIP3   OH245518   3.529   2.556   2.519 -0.5259 -0.0886  0.0488
 7108TIP3    H145519   3.577   2.531   2.598  1.1795 -2.2871 -1.5115
 7108TIP3    H245520   3.592   2.606   2.468 -0.0534 -2.2369 -1.6422
 7109TIP3   OH245521   4.551   0.355   1.229 -0.0983 -0.2325  0.0433
 7109TIP3    H145522   4.633   0.391   1.263 -0.5257 -0.1530  0.9864
 7109TIP3    H245523   4.483   0.416   1.256 -1.1825 -2.7441  3.7119
 7110TIP3   OH245524   1.168   6.384   1.833 -0.4858  0.5590  0.2067
 7110TIP3    H145525   1.260   6.363   1.848 -0.7045 -1.0571 -0.4742
 7110TIP3    H245526   1.150   6.457   1.892  0.7768 -0.2709  1.7016
 7111TIP3   OH245527   5.355   3.497   2.254  0.4962  0.3651  0.4542
 7111TIP3    H145528   5.357   3.428   2.321  0.4661  0.3309  0.4199
 7111TIP3    H245529   5.389   3.455   2.175  0.3801  0.3602  0.4066
 7112TIP3   OH245530   5.116   3.705   2.475  0.0155  0.3252  0.0505
 7112TIP3    H145531   5.169   3.633   2.509 -1.6583 -0.6849  0.6583
 7112TIP3    H245532   5.110   3.687   2.381  0.9611  0.6117 -0.0717
 7113TIP3   OH245533   5.842   0.633   3.508 -0.2252  0.1574  0.3220
 7113TIP3    H145534   5.747   0.647   3.500 -0.0156  1.7854  0.3472
 7113TIP3    H245535   5.879   0.671   3.428  0.3628 -1.3368 -0.1512
 7114TIP3   OH245536   0.018   1.976   2.021 -0.7194  0.0785  0.1638
 7114TIP3    H145537   0.112   1.960   2.022 -0.4616  1.3395 -0.7016
 7114TIP3    H245538   0.008   2.064   2.056 -1.6440 -0.2497  0.7686
 7115TIP3   OH245539   6.210   5.136   2.491 -0.1728  0.0668 -0.0726
 7115TIP3    H145540   6.253   5.126   2.407 -1.1476 -1.8106 -0.4256
 7115TIP3    H245541   6.120   5.106   2.475 -0.5748  0.3623  1.4601
 7116TIP3   OH245542   5.668   0.947   3.121 -0.3101 -0.1818  0.1236
 7116TIP3    H145543   5.727   1.001   3.068 -2.6877  1.5524 -0.9072
 7116TIP3    H245544   5.685   0.857   3.092  1.3144  0.3320 -0.6196
 7117TIP3   OH245545   3.707   2.231   2.839  0.4069  0.7590 -0.4534
 7117TIP3    H145546   3.661   2.309   2.870  0.5698  0.4050  0.7596
 7117TIP3    H245547   3.669   2.212   2.754  1.3798  3.0226 -1.4810
 7118TIP3   OH245548   2.674   6.457   3.370 -0.3869  0.5525  0.2087
 7118TIP3    H145549   2.667   6.367   3.338 -1.4727  1.2752 -1.7879
 7118TIP3    H245550   2.718   6.449   3.454 -0.9249 -1.8880  0.3453
 7119TIP3   OH245551   1.544   1.410   3.083 -0.6562  0.4214 -0.1137
 7119TIP3    H145552   1.590   1.338   3.039  0.5752  2.3795 -2.2824
 7119TIP3    H245553   1.572   1.405   3.174  2.7282  0.5286 -1.0132
 7120TIP3   OH245554   4.513   5.882   2.140  0.3525  0.2871 -0.3384
 7120TIP3    H145555   4.552   5.961   2.102  2.9294  0.2968  1.9920
 7120TIP3    H245556   4.424   5.908   2.163  1.3094  2.8569  0.9681
 7121TIP3   OH245557   0.816   2.399   3.026 -0.2125 -0.5144  0.3193
 7121TIP3    H145558   0.811   2.465   2.956  1.1296 -0.4836  0.2239
 7121TIP3    H245559   0.749   2.335   3.003 -0.4631  0.0086 -0.4561
 7122TIP3   OH245560   0.355   1.594   1.386  0.3992  0.2376 -0.1501
 7122TIP3    H145561   0.335   1.687   1.379 -1.0770 -0.1705 -2.3747
 7122TIP3    H245562   0.379   1.568   1.297  0.5576 -1.5671  0.3869
 7123TIP3   OH245563   4.734   0.625   3.386 -0.1271  0.0309  0.1271
 7123TIP3    H145564   4.772   0.554   3.335  1.8537 -0.1606  1.7269
 7123TIP3    H245565   4.805   0.653   3.444 -1.1577  2.6546  0.2504
 7124TIP3   OH245566   3.995   0.742   2.461 -0.1523 -0.0593 -0.1044
 7124TIP3    H145567   4.086   0.751   2.488 -0.0209 -0.4119 -0.4287
 7124TIP3    H245568   3.991   0.658   2.415 -0.5010  0.2497 -0.6567
 7125TIP3   OH245569   0.150   1.355   1.598 -0.4118  0.2689 -0.1366
 7125TIP3    H145570   0.208   1.394   1.664 -0.0124 -0.7409  0.1343
 7125TIP3    H245571   0.137   1.424   1.534 -0.1146  1.0002  0.5708
 7126TIP3   OH245572   6.603   5.919   1.628  0.1918  0.1774  0.2408
 7126TIP3    H145573   6.651   5.854   1.680 -1.6981 -2.3545 -0.9359
 7126TIP3    H245574   6.568   5.980   1.693  0.6500 -0.9713  1.6256
 7127TIP3   OH245575   0.115   2.345   0.950  0.0324  0.2729  0.2867
 7127TIP3    H145576   0.099   2.343   0.855  2.2320 -0.9169 -0.1233
 7127TIP3    H245577   0.039   2.391   0.986 -1.8657 -0.9983 -1.8334
 7128TIP3   OH245578   3.442   3.014   4.057  0.3479 -0.0684  0.2287
 7128TIP3    H145579   3.377   3.084   4.056 -0.7324 -1.0278  1.0223
 7128TIP3    H245580   3.449   2.989   4.149 -0.1955 -1.8094 -0.1698
 7129TIP3   OH245581   0.026   1.269   0.949 -0.5145 -0.1802  0.0525
 7129TIP3    H145582  -0.035   1.198   0.930 -0.5298 -0.0489 -0.3909
 7129TIP3    H245583   0.097   1.227   0.998 -0.9135 -0.3482  0.4998
 7130TIP3   OH245584   6.009   3.530   1.780  0.3502 -0.1853 -0.8389
 7130TIP3    H145585   6.057   3.454   1.746  0.0485 -1.1419  0.7825
 7130TIP3    H245586   5.923   3.525   1.738 -0.0018 -1.3280 -0.0483
 7131TIP3   OH245587   4.896   6.267   1.410  0.0420 -0.4135 -0.4457
 7131TIP3    H145588   4.859   6.273   1.322 -0.3426 -1.7576 -0.3865
 7131TIP3    H245589   4.935   6.353   1.425 -0.0343 -0.1105 -1.8639
 7132TIP3   OH245590   4.688   0.150   0.835  0.3172  0.4338  0.1694
 7132TIP3    H145591   4.639   0.069   0.822  1.0306  0.0390 -0.1109
 7132TIP3    H245592   4.638   0.216   0.786 -0.2557  0.1674  0.3837
 7133TIP3   OH245593   3.429   6.003   2.399 -0.0863  0.7832  0.3538
 7133TIP3    H145594   3.495   6.052   2.448  1.0888 -0.2051 -0.1897
 7133TIP3    H245595   3.463   6.001   2.310 -0.6623 -0.0903  0.1496
 7134TIP3   OH245596   1.457   0.461   3.511  0.4430 -0.3589 -0.0226
 7134TIP3    H145597   1.459   0.378   3.463 -0.1942 -0.1608 -0.4084
 7134TIP3    H245598   1.369   0.464   3.547  0.7468 -0.2482  0.7114
 7135TIP3   OH245599   6.246   4.639   1.170 -0.4184  0.4808  0.4692
 7135TIP3    H145600   6.154   4.618   1.184 -0.6163  0.2389 -1.0071
 7135TIP3    H245601   6.283   4.644   1.258 -1.2222 -2.1014  1.0480
 7136TIP3   OH245602   3.768   3.440   0.879 -0.1223  0.1324  0.4485
 7136TIP3    H145603   3.863   3.449   0.892 -0.2392  0.0495  1.4685
 7136TIP3    H245604   3.730   3.487   0.953 -0.8902  0.4303 -0.1303
 7137TIP3   OH245605   1.280   4.300   0.735  0.0319 -0.4056  0.0862
 7137TIP3    H145606   1.306   4.367   0.671  1.0520 -1.3557 -0.5311
 7137TIP3    H245607   1.267   4.349   0.816 -1.4506  0.8445 -0.8590
 7138TIP3   OH245608   4.367   5.819   3.276 -0.6042 -0.0301  0.0772
 7138TIP3    H145609   4.435   5.796   3.213  0.8069  1.0976  1.1181
 7138TIP3    H245610   4.302   5.749   3.268  0.4545 -0.9146 -1.2502
 7139TIP3   OH245611   4.253   5.938   2.162  0.1071 -0.1533  0.1232
 7139TIP3    H145612   4.202   5.893   2.229  0.0546 -0.3767 -0.0689
 7139TIP3    H245613   4.192   6.002   2.124  0.4508  0.7631  1.0590
 7140TIP3   OH245614   6.313   3.553   2.139 -0.5239  0.3671  0.4481
 7140TIP3    H145615   6.356   3.512   2.214 -1.6684 -1.6778  0.0736
 7140TIP3    H245616   6.371   3.536   2.065  0.2780  1.7949  0.7222
 7141TIP3   OH245617   6.347   0.819   2.581 -0.6001 -0.0324  0.0248
 7141TIP3    H145618   6.280   0.752   2.569 -0.7124  0.1985 -0.6596
 7141TIP3    H245619   6.307   0.900   2.548 -0.7875  0.5742  1.6252
 7142TIP3   OH245620   1.284   3.482   1.042 -0.1231 -0.2428  0.2709
 7142TIP3    H145621   1.371   3.514   1.017  0.3340  0.0784  2.1268
 7142TIP3    H245622   1.268   3.520   1.129 -3.0662  1.5383 -0.8820
 7143TIP3   OH245623   1.863   2.841   2.812 -0.2956  0.0153  0.0512
 7143TIP3    H145624   1.914   2.895   2.752 -0.8589 -0.0003 -0.4487
 7143TIP3    H245625   1.919   2.832   2.890  1.2697 -1.5444 -1.1719
 7144TIP3   OH245626   2.446   0.090   1.665  0.1932 -0.2809  0.3288
 7144TIP3    H145627   2.415   0.015   1.717  0.7757 -1.4049 -0.8869
 7144TIP3    H245628   2.537   0.069   1.645  0.9544  1.6450  1.4723
 7145TIP3   OH245629   0.224   5.213   3.140  0.8147 -0.0031 -0.4088
 7145TIP3    H145630   0.239   5.119   3.134 -0.5144 -0.2583 -0.0177
 7145TIP3    H245631   0.308   5.249   3.168  1.0490 -1.1929  0.4966
 7146TIP3   OH245632   2.690   6.765   2.637  0.0583  0.1845 -0.0558
 7146TIP3    H145633   2.747   6.729   2.706  2.1197  0.2655 -1.6183
 7146TIP3    H245634   2.602   6.739   2.663  0.8660 -0.7312  2.0282
 7147TIP3   OH245635   2.968   3.635   1.104 -0.1648 -0.6517  0.0270
 7147TIP3    H145636   2.957   3.728   1.085  1.3843 -0.6674 -1.1725
 7147TIP3    H245637   2.886   3.609   1.146 -0.6422  1.2300  0.3447
 7148TIP3   OH245638   6.119   5.458   0.875 -0.1787 -0.0153  0.2038
 7148TIP3    H145639   6.190   5.522   0.881 -0.4641  0.4261 -0.9139
 7148TIP3    H245640   6.061   5.479   0.947  0.8831 -0.4690  1.2204
 7149TIP3   OH245641   4.715   0.705   2.015 -0.6590 -0.2802 -0.1334
 7149TIP3    H145642   4.723   0.658   1.932  1.2721  0.2823 -0.3282
 7149TIP3    H245643   4.801   0.696   2.056 -0.7162  1.7052  0.5541
 7150TIP3   OH245644   4.014   1.184   0.733  0.3615  0.2642  0.6695
 7150TIP3    H145645   3.974   1.269   0.750 -0.3985 -0.2748  1.7046
 7150TIP3    H245646   3.955   1.121   0.775 -0.7381 -1.0852 -2.5534
 7151TIP3   OH245647   0.745   5.646   1.356  0.2698  0.5120 -0.0697
 7151TIP3    H145648   0.708   5.563   1.384  0.4597  0.4010 -0.1500
 7151TIP3    H245649   0.676   5.686   1.302  0.2168  0.3648 -0.1115
 7152TIP3   OH245650   5.499   5.465   2.779 -0.2475 -0.9206  0.7518
 7152TIP3    H145651   5.460   5.397   2.835 -0.5148 -1.1486  0.2938
 7152TIP3    H245652   5.556   5.417   2.719 -0.5319 -0.7597  0.3452
 7153TIP3   OH245653   5.728   3.565   2.971 -0.1081  0.1604 -0.5518
 7153TIP3    H145654   5.793   3.513   3.018 -0.9720 -1.6308 -1.2460
 7153TIP3    H245655   5.664   3.589   3.038 -0.9282 -1.7250 -0.5792
 7154TIP3   OH245656   1.132   6.478   2.302  0.3884  0.4923 -0.1888
 7154TIP3    H145657   1.215   6.432   2.288 -0.0089 -0.6109  0.8073
 7154TIP3    H245658   1.153   6.545   2.367  1.0086  1.9018 -1.7687
 7155TIP3   OH245659   2.136   1.722   1.794 -0.1495  0.3662  0.3320
 7155TIP3    H145660   2.144   1.682   1.880 -0.3445 -0.8218 -0.1828
 7155TIP3    H245661   2.128   1.648   1.733 -1.5821  1.1908 -0.5496
 7156TIP3   OH245662   0.095   4.500   2.574 -0.4671 -0.2327  0.6096
 7156TIP3    H145663   0.020   4.448   2.603 -1.0537  0.0862 -0.3069
 7156TIP3    H245664   0.162   4.435   2.551 -1.2168 -0.6043 -0.5898
 7157TIP3   OH245665   5.919   2.566   2.587  0.3366  0.4655 -0.1306
 7157TIP3    H145666   5.868   2.619   2.527 -0.0457 -3.2722 -3.4642
 7157TIP3    H245667   6.010   2.586   2.566  0.3623  2.6532  1.6101
 7158TIP3   OH245668   0.297   3.286   3.344 -0.3578  0.0530 -0.2004
 7158TIP3    H145669   0.325   3.361   3.396 -0.4945  1.2398 -1.7793
 7158TIP3    H245670   0.313   3.312   3.254 -1.7323 -1.2777 -0.8679
 7159TIP3   OH245671   2.757   5.151   2.043  0.5610 -0.6515  0.0826
 7159TIP3    H145672   2.688   5.204   2.002  0.6490 -1.2009 -0.8220
 7159TIP3    H245673   2.759   5.179   2.134 -0.6995 -0.4467  0.0644
 7160TIP3   OH245674   6.086   6.003   1.318  0.3153 -0.2611 -0.2836
 7160TIP3    H145675   6.123   6.081   1.277 -0.2842 -0.2841 -0.8901
 7160TIP3    H245676   6.100   6.016   1.411 -0.4491  0.9353 -0.3087
 7161TIP3   OH245677   1.587   0.173   3.108 -0.1743  0.6511 -0.0091
 7161TIP3    H145678   1.530   0.240   3.069 -0.6667 -0.0626 -0.5505
 7161TIP3    H245679   1.527   0.117   3.158  0.3061  0.9168  0.8757
 7162TIP3   OH245680   2.616   0.085   3.258 -0.6191 -0.6128  0.1481
 7162TIP3    H145681   2.670   0.019   3.301  0.7612 -0.3502 -1.0789
 7162TIP3    H245682   2.580   0.039   3.182 -2.1481 -0.7784  0.9506
 7163TIP3   OH245683   1.163   2.168   3.722  0.5828  0.2183 -0.1842
 7163TIP3    H145684   1.102   2.112   3.770  0.0941  0.0210 -1.0090
 7163TIP3    H245685   1.222   2.107   3.679  0.7436  0.3796 -0.1939
 7164TIP3   OH245686   6.182   0.586   1.011 -0.0098 -0.6563 -0.0115
 7164TIP3    H145687   6.239   0.641   0.957 -1.0761 -0.1667 -0.6806
 7164TIP3    H245688   6.198   0.497   0.980  2.4048 -0.8828  1.6963
 7165TIP3   OH245689   5.071   5.159   2.489 -0.7066  0.3020 -0.0509
 7165TIP3    H145690   4.994   5.102   2.481  0.4740 -1.4530  0.5150
 7165TIP3    H245691   5.130   5.112   2.549  2.0353  0.1541 -2.6403
 7166TIP3   OH245692   6.396   6.462   2.893  0.3720  0.0296  0.3503
 7166TIP3    H145693   6.432   6.550   2.889  0.1583  0.0862 -1.1916
 7166TIP3    H245694   6.306   6.472   2.861  0.3477 -0.7341  0.1482
 7167TIP3   OH245695   2.317   3.331   2.494 -0.0852 -0.6052 -0.5152
 7167TIP3    H145696   2.338   3.292   2.579  0.3892 -1.0461 -0.8210
 7167TIP3    H245697   2.376   3.406   2.486 -0.0843 -0.6024 -0.4799
 7168TIP3   OH245698   6.225   6.066   2.505  0.5462  0.4936  0.1867
 7168TIP3    H145699   6.228   6.119   2.425 -0.7812  2.0548  1.0872
 7168TIP3    H245700   6.260   6.125   2.573  0.0600 -0.1806  1.0372
 7169TIP3   OH245701   4.653   1.876   2.706 -0.2201  0.0606  0.4981
 7169TIP3    H145702   4.567   1.838   2.687  0.0560  0.7111 -2.6157
 7169TIP3    H245703   4.686   1.903   2.621  2.8604  0.3632  1.6750
 7170TIP3   OH245704   0.215   5.079   0.917  0.1935  0.1640 -0.4931
 7170TIP3    H145705   0.188   5.122   0.998 -0.1177 -1.9730  0.6138
 7170TIP3    H245706   0.300   5.118   0.896 -0.2605  1.5832  0.1721
 7171TIP3   OH245707   5.303   3.975   1.254  0.1174  0.8605 -0.2148
 7171TIP3    H145708   5.355   3.941   1.181 -0.2790 -1.4647  0.5276
 7171TIP3    H245709   5.214   3.982   1.219 -0.2698 -1.1666  0.2340
 7172TIP3   OH245710   2.161   2.717   1.976 -0.0582  0.1205 -0.1246
 7172TIP3    H145711   2.177   2.637   2.027  1.5892  0.6468  0.2595
 7172TIP3    H245712   2.082   2.698   1.926 -0.1659 -1.4473  0.5701
 7173TIP3   OH245713   5.745   1.228   1.380 -0.0209  0.0127  0.3154
 7173TIP3    H145714   5.790   1.293   1.434  1.8637  0.8621 -2.0843
 7173TIP3    H245715   5.812   1.161   1.363 -1.2380 -1.3797  0.8056
 7174TIP3   OH245716   5.359   4.509   2.044 -0.1873  0.9323  0.1484
 7174TIP3    H145717   5.397   4.489   1.958 -0.7389  0.6631 -0.0374
 7174TIP3    H245718   5.382   4.600   2.060 -0.9775  1.3032 -0.7587
 7175TIP3   OH245719   1.571   1.357   3.355 -0.5442  0.6709 -0.2534
 7175TIP3    H145720   1.612   1.275   3.382  0.6497  0.6451 -2.0006
 7175TIP3    H245721   1.572   1.412   3.433  1.7628  0.2242  0.0902
 7176TIP3   OH245722   0.815   0.084   2.672  0.9226  0.3574 -1.0700
 7176TIP3    H145723   0.837   0.017   2.607  2.2291  0.2684 -0.5698
 7176TIP3    H245724   0.882   0.151   2.662  0.6296  0.7621 -0.4058
 7177TIP3   OH245725   6.093   6.261   3.303  0.3063  0.0444 -0.1125
 7177TIP3    H145726   6.001   6.236   3.296  0.8540 -1.7509 -1.6501
 7177TIP3    H245727   6.133   6.228   3.222  2.2685  0.9405  0.4374
 7178TIP3   OH245728   3.180   5.122   0.697  0.4628 -0.3316  0.6135
 7178TIP3    H145729   3.251   5.129   0.633 -1.0679 -2.0078 -1.3924
 7178TIP3    H245730   3.176   5.029   0.718 -1.6141 -0.4072  0.0623
 7179TIP3   OH245731   4.921   3.010   2.510  0.0018  0.2349 -0.6818
 7179TIP3    H145732   4.868   3.071   2.559  0.5508  0.6578 -0.6033
 7179TIP3    H245733   4.943   3.056   2.429  1.8404  0.8492  0.0995
 7180TIP3   OH245734   1.329   3.661   3.432  0.3512  0.1320 -0.2159
 7180TIP3    H145735   1.267   3.731   3.411  0.2059  0.4315  1.1387
 7180TIP3    H245736   1.415   3.702   3.423  0.6356 -0.8577 -4.3885
 7181TIP3   OH245737   2.178   6.083   1.319  0.3748  0.7254  0.5836
 7181TIP3    H145738   2.270   6.076   1.295  0.6391  1.1062  1.4505
 7181TIP3    H245739   2.146   6.159   1.271  0.3861  0.3410 -0.0557
 7182TIP3   OH245740   6.843   4.831   2.624  0.2005  0.3138  0.1177
 7182TIP3    H145741   6.888   4.894   2.681 -0.3566  0.6083  0.2369
 7182TIP3    H245742   6.834   4.753   2.678 -1.3340  0.9580  0.8579
 7183TIP3   OH245743   2.164   1.080   2.005  0.1368 -0.0065 -0.3536
 7183TIP3    H145744   2.132   1.130   1.930  0.4164  1.6083  0.5600
 7183TIP3    H245745   2.248   1.120   2.026  0.2574 -0.7224  0.5560
 7184TIP3   OH245746   5.786   3.276   2.245 -0.2787 -0.1352  0.1274
 7184TIP3    H145747   5.807   3.351   2.189 -0.1650  0.7224  1.2696
 7184TIP3    H245748   5.768   3.205   2.184 -0.7407  0.9135 -1.0146
 7185TIP3   OH245749   2.444   2.520   3.925 -0.4675 -0.1642  0.0131
 7185TIP3    H145750   2.407   2.605   3.903  0.7031  1.3356  3.2312
 7185TIP3    H245751   2.389   2.488   3.997 -0.1404 -1.5598 -0.3330
 7186TIP3   OH245752   5.899   5.143   1.043  0.4297 -0.5951 -0.4554
 7186TIP3    H145753   5.833   5.190   0.992  0.3410 -0.8883 -0.6138
 7186TIP3    H245754   5.971   5.127   0.982  0.6832 -0.2112 -0.2642
 7187TIP3   OH245755   5.636   1.580   1.661 -0.0213 -0.2406 -0.5667
 7187TIP3    H145756   5.631   1.518   1.589  2.0456  1.6463 -2.4895
 7187TIP3    H245757   5.671   1.660   1.621 -0.9544  1.6428  2.0995
 7188TIP3   OH245758   6.273   6.276   2.266  0.2365 -0.0367 -0.2927
 7188TIP3    H145759   6.368   6.263   2.268  0.1671 -0.5583  1.7888
 7188TIP3    H245760   6.259   6.355   2.319 -0.5924 -0.9763  0.9403
 7189TIP3   OH245761   4.360   4.266   2.681  0.1465  0.0379 -0.2378
 7189TIP3    H145762   4.311   4.216   2.616  0.5261  2.1896 -2.2975
 7189TIP3    H245763   4.448   4.230   2.678  0.2353  0.3137 -1.1566
 7190TIP3   OH245764   2.932   5.164   1.542 -0.2147  0.3683 -0.0663
 7190TIP3    H145765   2.917   5.081   1.587 -1.2175  0.1554 -0.7599
 7190TIP3    H245766   3.018   5.154   1.502 -0.1501 -0.1767  0.1989
 7191TIP3   OH245767   3.635   2.080   1.679  0.5658  0.1968  0.0043
 7191TIP3    H145768   3.556   2.113   1.722 -0.4777 -3.1999  0.9769
 7191TIP3    H245769   3.707   2.125   1.724 -0.7110  2.6240 -0.2203
 7192TIP3   OH245770   2.830   4.828   2.264 -0.1589  0.4813  0.1375
 7192TIP3    H145771   2.825   4.902   2.325  0.2803  0.3511  0.3354
 7192TIP3    H245772   2.762   4.768   2.293  0.1150  0.3722  0.5652
 7193TIP3   OH245773   3.735   4.080   1.243 -0.0075  0.6226 -0.3012
 7193TIP3    H145774   3.794   4.010   1.217 -1.4071 -0.7375 -0.0222
 7193TIP3    H245775   3.675   4.089   1.169 -0.7510  0.4489  0.2685
 7194TIP3   OH245776   5.202   3.624   0.834  0.4498  0.1034 -0.3562
 7194TIP3    H145777   5.108   3.617   0.848  0.3426  2.3474  0.3582
 7194TIP3    H245778   5.213   3.701   0.778  1.8433 -0.4802 -0.9522
 7195TIP3   OH245779   5.506   1.093   1.042 -0.3950 -0.1518 -0.2273
 7195TIP3    H145780   5.537   1.020   0.988  0.2615  0.6165 -0.9074
 7195TIP3    H245781   5.586   1.141   1.066 -0.8474  0.5067 -0.0199
 7196TIP3   OH245782   3.243   2.705   3.615 -0.1773  0.5008  0.6491
 7196TIP3    H145783   3.252   2.759   3.537 -1.6240  1.8453  1.3516
 7196TIP3    H245784   3.227   2.767   3.686  0.5833 -0.7173  1.9376
 7197TIP3   OH245785   2.161   3.235   3.948 -0.1160 -0.5575  0.2115
 7197TIP3    H145786   2.207   3.161   3.909  2.3537  0.3912  1.1311
 7197TIP3    H245787   2.100   3.194   4.010 -0.2469 -1.8636 -0.7331
 7198TIP3   OH245788   3.812   5.111   2.571  0.4879  0.2444 -0.0371
 7198TIP3    H145789   3.729   5.154   2.589  0.2070 -0.3331  0.0599
 7198TIP3    H245790   3.821   5.114   2.476  0.1743 -0.0318 -0.0747
 7199TIP3   OH245791   5.036   0.423   0.953 -0.5209 -0.0939  0.0099
 7199TIP3    H145792   4.976   0.496   0.940 -0.6209 -0.1135  0.3445
 7199TIP3    H245793   4.979   0.349   0.977 -0.5487 -0.6198 -1.5760
 7200TIP3   OH245794   6.490   5.971   2.683 -0.2963  0.3178  0.5487
 7200TIP3    H145795   6.456   6.060   2.690 -0.2580  0.3569  0.2316
 7200TIP3    H245796   6.570   5.971   2.735 -0.1522  0.5394  0.3253
 7201TIP3   OH245797   3.923   4.913   1.254 -0.0756  0.2198 -0.5319
 7201TIP3    H145798   3.979   4.840   1.279  0.1907  0.5480 -0.1506
 7201TIP3    H245799   3.966   4.990   1.292 -0.1096  0.6308 -1.3111
 7202TIP3   OH245800   6.760   1.532   2.038  0.1136 -0.7812  0.4688
 7202TIP3    H145801   6.729   1.503   2.124 -0.8793 -1.0348  0.0329
 7202TIP3    H245802   6.681   1.543   1.986  0.5646  1.3183  0.1635
 7203TIP3   OH245803   5.333   2.299   2.737  0.6318  0.5784  0.4029
 7203TIP3    H145804   5.418   2.267   2.766 -0.2558 -0.4657  2.0419
 7203TIP3    H245805   5.347   2.392   2.717  1.8827  0.7567  1.9089
 7204TIP3   OH245806   3.563   5.990   1.115  0.0115 -0.0768  0.5577
 7204TIP3    H145807   3.474   5.996   1.148 -0.2540  0.1926 -0.2024
 7204TIP3    H245808   3.584   6.077   1.082  0.3385 -0.2848  0.1928
 7205TIP3   OH245809   3.515   2.336   0.990  0.3653 -0.4970 -0.4129
 7205TIP3    H145810   3.522   2.423   0.950  0.6202  0.4897  1.6150
 7205TIP3    H245811   3.601   2.297   0.977  0.4761 -0.1538 -0.7238
 7206TIP3   OH245812   5.601   6.099   0.532 -0.0931 -0.0630  0.0069
 7206TIP3    H145813   5.666   6.029   0.539  0.9740  0.4301 -3.2276
 7206TIP3    H245814   5.649   6.179   0.550 -0.8643  0.0625  1.7313
 7207TIP3   OH245815   2.031   5.624   2.930  0.5269 -0.2202  0.0743
 7207TIP3    H145816   2.111   5.668   2.903  0.6069  1.2452  2.4059
 7207TIP3    H245817   1.967   5.646   2.862  0.4627  3.9711  1.2596
 7208TIP3   OH245818   1.877   2.422   3.285  0.0333 -0.3170 -0.0967
 7208TIP3    H145819   1.885   2.417   3.189  2.2602  0.6038 -0.0019
 7208TIP3    H245820   1.962   2.455   3.315 -0.9945  0.4911  2.1272
 7209TIP3   OH245821   2.554   2.858   2.883 -0.2189 -0.8713  0.3783
 7209TIP3    H145822   2.582   2.829   2.797 -3.8537 -1.1557 -0.8714
 7209TIP3    H245823   2.526   2.778   2.927  2.4299 -0.8826  2.3472
 7210TIP3   OH245824   0.324   4.248   1.641 -0.0268 -0.2274 -0.8078
 7210TIP3    H145825   0.402   4.215   1.597 -0.3005  0.8119 -2.1558
 7210TIP3    H245826   0.349   4.333   1.677 -0.1123 -0.5887  0.1278
 7211TIP3   OH245827   6.795   2.075   3.744  0.3147  0.2659  0.0436
 7211TIP3    H145828   6.843   2.142   3.792 -0.6748  0.5284  0.6801
 7211TIP3    H245829   6.782   2.004   3.807 -0.7762  0.5082  0.1087
 7212TIP3   OH245830   5.528   0.338   1.459 -0.3150 -0.0026  0.3432
 7212TIP3    H145831   5.518   0.245   1.439 -1.7597 -0.0899  1.2654
 7212TIP3    H245832   5.548   0.379   1.375 -4.4090 -0.5657 -1.1587
 7213TIP3   OH245833   1.529   4.273   3.679 -0.2243 -0.0943  0.5023
 7213TIP3    H145834   1.559   4.205   3.739  1.3992 -0.6664 -0.8881
 7213TIP3    H245835   1.446   4.239   3.644 -0.0853 -0.7470  0.8007
 7214TIP3   OH245836   2.687   2.055   1.633  0.2742 -0.2263 -0.2760
 7214TIP3    H145837   2.599   2.040   1.599  1.0113  0.1695 -2.5287
 7214TIP3    H245838   2.744   2.048   1.556  2.4051 -1.8622  1.3393
 7215TIP3   OH245839   5.896   5.807   1.365 -0.3880  0.1374 -1.0865
 7215TIP3    H145840   5.822   5.855   1.403  1.4457  1.1301  1.4930
 7215TIP3    H245841   5.948   5.875   1.321  0.0851 -0.1859 -1.0291
 7216TIP3   OH245842   3.454   3.744   1.363 -0.1258 -0.0880 -0.0765
 7216TIP3    H145843   3.504   3.822   1.387  0.6969  0.4390 -3.0853
 7216TIP3    H245844   3.369   3.777   1.335  0.9361  0.1899 -3.4992
 7217TIP3   OH245845   4.694   0.489   2.422  0.1308  0.4280  0.2623
 7217TIP3    H145846   4.640   0.537   2.359 -0.1639  0.2065  0.3413
 7217TIP3    H245847   4.632   0.457   2.488  0.1720 -0.8323 -0.2663
 7218TIP3   OH245848   1.660   1.200   1.060  0.5133 -0.0078  0.4909
 7218TIP3    H145849   1.598   1.273   1.051 -0.2266 -0.8966 -3.9108
 7218TIP3    H245850   1.610   1.123   1.037  2.1455 -1.5101  1.6870
 7219TIP3   OH245851   4.994   0.775   3.552  0.4480  0.2389  0.2344
 7219TIP3    H145852   4.994   0.833   3.629 -1.7089 -0.4501  0.8310
 7219TIP3    H245853   4.976   0.688   3.588 -2.3704  0.1477 -1.1441
 7220TIP3   OH245854   2.137   6.080   0.807  0.4238  1.0557  0.4308
 7220TIP3    H145855   2.043   6.080   0.828  0.5207 -1.7322  1.2741
 7220TIP3    H245856   2.140   6.062   0.713  0.0542 -0.9830  0.7560
 7221TIP3   OH245857   0.393   6.769   1.925 -0.4406 -0.3697 -0.5156
 7221TIP3    H145858   0.437   6.841   1.880 -0.6769  0.7069  0.9143
 7221TIP3    H245859   0.444   6.691   1.902  0.5363  0.4289 -1.1108
 7222TIP3   OH245860   5.680   0.916   2.014 -0.3049 -0.3388  0.4583
 7222TIP3    H145861   5.688   0.875   2.099  0.5994 -0.6876  0.2123
 7222TIP3    H245862   5.769   0.915   1.978 -0.4057  1.0743  0.1024
 7223TIP3   OH245863   2.239   2.359   1.238 -0.0435  0.2903 -0.3327
 7223TIP3    H145864   2.187   2.424   1.286  0.3338  0.2578  0.1238
 7223TIP3    H245865   2.189   2.344   1.157 -0.1904  1.0643 -0.3976
 7224TIP3   OH245866   3.823   6.344   2.008  0.4181 -0.1174 -0.3309
 7224TIP3    H145867   3.885   6.271   2.012  1.3371  0.6922  1.9074
 7224TIP3    H245868   3.878   6.423   2.007 -0.5664  0.6116 -1.8598
 7225TIP3   OH245869   4.789   0.990   1.816 -0.8205 -0.3626  0.2746
 7225TIP3    H145870   4.746   0.996   1.902  0.6650 -1.8718  1.1924
 7225TIP3    H245871   4.882   0.998   1.836 -0.4878 -0.1306 -1.2963
 7226TIP3   OH245872   6.244   0.153   1.975 -0.7102  0.0999 -0.3143
 7226TIP3    H145873   6.285   0.068   1.987 -1.0037  0.2616  2.4651
 7226TIP3    H245874   6.315   0.216   1.988 -1.1293  0.3115  1.0672
 7227TIP3   OH245875   4.925   2.327   1.704 -0.0891  1.1526  0.0047
 7227TIP3    H145876   4.913   2.357   1.794 -2.3579 -0.2722  0.2513
 7227TIP3    H245877   4.928   2.407   1.652  1.7475  2.0305  1.3243
 7228TIP3   OH245878   6.469   1.417   1.521  0.4008  0.2326  0.0578
 7228TIP3    H145879   6.522   1.495   1.539  0.5991  0.1017  0.0363
 7228TIP3    H245880   6.533   1.348   1.502  0.2800 -0.2666  1.3657
 7229TIP3   OH245881   0.672   5.360   2.060 -0.5541  0.1111 -0.0412
 7229TIP3    H145882   0.619   5.424   2.013  0.9315  0.8946 -0.7187
 7229TIP3    H245883   0.712   5.306   1.992  1.6413  1.2732  0.2328
 7230TIP3   OH245884   3.579   4.834   2.728  0.1951 -0.4337  0.0326
 7230TIP3    H145885   3.596   4.843   2.821 -1.1030 -3.5676  0.7009
 7230TIP3    H245886   3.489   4.802   2.722  0.5632 -1.2838 -2.2137
 7231TIP3   OH245887   2.864   3.448   3.237 -0.6084  0.5214  0.3714
 7231TIP3    H145888   2.846   3.542   3.244  1.3429  0.9943 -0.3153
 7231TIP3    H245889   2.886   3.421   3.326  0.3480  1.0825  0.3162
 7232TIP3   OH245890   4.355   0.240   1.965 -0.2275 -0.0455 -0.2020
 7232TIP3    H145891   4.416   0.188   1.912  0.0518 -0.2010  0.2678
 7232TIP3    H245892   4.397   0.326   1.972  0.4269 -0.4390  0.9450
 7233TIP3   OH245893   2.902   3.847   0.916  0.5823 -0.0799  0.2024
 7233TIP3    H145894   2.871   3.895   0.839  0.0307 -0.9429 -0.1348
 7233TIP3    H245895   2.930   3.762   0.882  0.6340 -0.3556  0.9081
 7234TIP3   OH245896   4.050   6.192   1.997 -0.0421  0.4802  0.8211
 7234TIP3    H145897   4.077   6.164   1.910 -1.0268  2.6650 -0.2442
 7234TIP3    H245898   4.119   6.253   2.024  1.0598 -1.2823  2.2963
 7235TIP3   OH245899   1.691   2.206   0.917  0.0464 -0.4532 -0.2451
 7235TIP3    H145900   1.720   2.139   0.979 -0.6940 -0.5856 -0.0304
 7235TIP3    H245901   1.646   2.158   0.849  0.4859 -0.2675 -0.6730
 7236TIP3   OH245902   1.378   5.223   2.275 -0.1919  0.0048  0.2068
 7236TIP3    H145903   1.382   5.279   2.197 -1.8275  1.0407  0.8044
 7236TIP3    H245904   1.364   5.135   2.240 -1.0542  0.4786 -0.7104
 7237TIP3   OH245905   2.092   6.226   3.232 -0.5213  0.2906 -0.3074
 7237TIP3    H145906   2.045   6.171   3.168 -1.8816  0.3374  0.6163
 7237TIP3    H245907   2.061   6.315   3.213 -0.6253  0.3528  0.1539
 7238TIP3   OH245908   0.720   4.223   2.390 -0.7313  0.4046 -0.1245
 7238TIP3    H145909   0.666   4.200   2.465 -1.2184 -0.6036 -0.7622
 7238TIP3    H245910   0.810   4.209   2.420 -0.9678 -1.8723 -0.2766
 7239TIP3   OH245911   2.124   6.762   3.241 -0.3196  0.3291 -0.4966
 7239TIP3    H145912   2.034   6.789   3.256 -0.4975 -0.4706 -0.0899
 7239TIP3    H245913   2.176   6.816   3.300 -0.6364  0.0300  0.0588
 7240TIP3   OH245914   4.441   0.930   3.474  0.7128 -0.2751  0.0563
 7240TIP3    H145915   4.520   0.959   3.520 -1.8287  0.8902  4.1705
 7240TIP3    H245916   4.438   0.835   3.489  0.1847  0.0171  2.0236
 7241TIP3   OH245917   6.764   0.449   0.851  0.4275  0.1785 -0.4148
 7241TIP3    H145918   6.782   0.438   0.944 -0.3077 -1.1226 -0.4108
 7241TIP3    H245919   6.833   0.508   0.820 -0.3043  2.0498  1.2824
 7242TIP3   OH245920   3.172   5.786   1.508 -0.4739  0.1754  0.5749
 7242TIP3    H145921   3.258   5.822   1.487 -0.9671  2.1051  1.5782
 7242TIP3    H245922   3.166   5.792   1.603 -1.8066  0.3706  0.5040
 7243TIP3   OH245923   3.729   3.374   0.592 -0.4347  0.0121 -0.1331
 7243TIP3    H145924   3.749   3.396   0.683 -1.9782  0.4441  0.1209
 7243TIP3    H245925   3.813   3.383   0.547  0.6265 -1.4500  1.4458
 7244TIP3   OH245926   1.676   5.933   3.256 -0.0059 -0.3192 -0.5318
 7244TIP3    H145927   1.738   5.929   3.184  1.8315  0.0919  0.9610
 7244TIP3    H245928   1.685   5.849   3.301  0.9019  0.4659  0.8030
 7245TIP3   OH245929   6.839   0.374   2.425 -0.4653  0.0786 -0.2270
 7245TIP3    H145930   6.833   0.353   2.518 -0.2870  0.5887 -0.0986
 7245TIP3    H245931   6.924   0.337   2.399 -0.4560  0.0499 -0.1586
 7246TIP3   OH245932   1.115   5.888   1.980  0.0070 -0.2776  0.4255
 7246TIP3    H145933   1.175   5.955   1.948 -0.1237 -0.0147  0.7286
 7246TIP3    H245934   1.161   5.805   1.962 -0.7867 -0.2749 -1.9983
 7247TIP3   OH245935   6.689   3.695   3.176 -0.3244 -0.0962 -0.2910
 7247TIP3    H145936   6.707   3.728   3.264  0.0103 -0.6495 -0.1445
 7247TIP3    H245937   6.752   3.623   3.164 -0.9038 -0.5505 -0.6693
 7248TIP3   OH245938   3.134   5.023   3.217  0.0497 -0.4352 -0.0428
 7248TIP3    H145939   3.172   4.967   3.149  2.1584  1.6136 -0.6835
 7248TIP3    H245940   3.167   4.986   3.299  2.9383  0.7753 -0.5461
 7249TIP3   OH245941   1.618   4.091   3.838 -0.1942 -0.3295  0.5479
 7249TIP3    H145942   1.576   4.010   3.809  3.5142 -2.1437 -0.4283
 7249TIP3    H245943   1.670   4.065   3.914  2.5625  0.5477 -0.9028
 7250TIP3   OH245944   2.831   5.058   2.732  0.1258 -0.4387 -0.6875
 7250TIP3    H145945   2.894   5.009   2.678 -0.1135 -0.2040 -1.1808
 7250TIP3    H245946   2.751   5.006   2.728  0.0259 -0.2773 -0.7837
 7251TIP3   OH245947   0.604   5.387   1.438 -0.5918  0.4259  0.4642
 7251TIP3    H145948   0.550   5.309   1.453 -0.8390  0.7836  1.4947
 7251TIP3    H245949   0.625   5.419   1.526  1.7383  0.0106  0.1243
 7252TIP3   OH245950   3.640   4.410   0.710 -0.4097  0.1334  0.1854
 7252TIP3    H145951   3.692   4.343   0.665 -0.9289 -0.3166  0.2556
 7252TIP3    H245952   3.649   4.389   0.803 -1.6551 -0.6581  0.1530
 7253TIP3   OH245953   6.774   5.257   2.597 -0.6618 -0.0261 -0.5148
 7253TIP3    H145954   6.827   5.218   2.527 -0.7849  0.5180 -0.9140
 7253TIP3    H245955   6.755   5.345   2.567 -1.7156 -0.1769 -0.3264
 7254TIP3   OH245956   5.128   6.387   0.625 -0.4895 -0.1077 -0.0613
 7254TIP3    H145957   5.046   6.435   0.613 -0.8066 -1.0003 -1.8082
 7254TIP3    H245958   5.181   6.444   0.681 -1.5008  1.4682 -0.6320
 7255TIP3   OH245959   0.089   2.660   1.921 -0.2579  0.4882 -0.6944
 7255TIP3    H145960   0.101   2.652   1.826 -1.0503 -1.2089 -0.6852
 7255TIP3    H245961  -0.005   2.674   1.932 -0.5745 -1.7368 -0.0887
 7256TIP3   OH245962   4.865   6.131   0.980 -0.3566 -0.0948 -0.5173
 7256TIP3    H145963   4.924   6.131   0.905 -1.9923 -0.5841 -1.8975
 7256TIP3    H245964   4.901   6.066   1.040  0.3999 -0.5095 -1.4079
 7257TIP3   OH245965   5.874   4.879   2.607  0.3262 -0.2207  0.4524
 7257TIP3    H145966   5.826   4.823   2.546 -1.6702  0.2072  1.5381
 7257TIP3    H245967   5.958   4.834   2.619 -0.5829 -2.1485  0.0479
 7258TIP3   OH245968   4.809   0.683   0.996  0.2888 -1.0752  0.0928
 7258TIP3    H145969   4.751   0.629   1.049  1.3718 -0.3677  2.0943
 7258TIP3    H245970   4.757   0.708   0.920 -2.2028 -0.0550  2.0213
 7259TIP3   OH245971   4.458   5.316   2.372  0.5712  0.4197 -0.0398
 7259TIP3    H145972   4.429   5.225   2.368  2.3523 -0.1352 -2.5766
 7259TIP3    H245973   4.487   5.328   2.462  0.2921 -1.5078  0.3530
 7260TIP3   OH245974   0.037   0.507   2.860 -0.5233 -0.0813 -0.0393
 7260TIP3    H145975   0.016   0.591   2.901  1.4060 -0.1192  1.1817
 7260TIP3    H245976   0.127   0.489   2.888 -0.5397 -2.0790 -1.0936
 7261TIP3   OH245977   5.344   2.377   3.793  0.0301  0.0988  0.0882
 7261TIP3    H145978   5.339   2.403   3.885  2.2323  2.3229 -0.3242
 7261TIP3    H245979   5.282   2.305   3.785 -0.5480  0.1334  3.2015
 7262TIP3   OH245980   0.362   6.077   3.546 -0.4364 -0.2080 -0.5579
 7262TIP3    H145981   0.370   6.132   3.468 -1.0048 -1.1109 -1.2695
 7262TIP3    H245982   0.267   6.067   3.559 -0.4432  1.7097  1.5565
 7263TIP3   OH245983   0.332   3.669   1.670 -0.0504  0.2889 -0.0883
 7263TIP3    H145984   0.305   3.726   1.742 -0.5990 -0.2993  0.1776
 7263TIP3    H245985   0.259   3.670   1.609 -1.5081 -2.5649  1.3764
 7264TIP3   OH245986   1.002   6.075   0.672  0.4964 -0.3378  0.1935
 7264TIP3    H145987   0.916   6.112   0.690  0.7299 -0.5071  1.7786
 7264TIP3    H245988   0.984   5.998   0.618 -0.2606  0.1625 -0.2847
 7265TIP3   OH245989   2.781   5.403   9.889  0.1673 -0.0025 -0.0051
 7265TIP3    H145990   2.749   5.328   9.939 -0.6981  0.8532  0.7712
 7265TIP3    H245991   2.848   5.443   9.945  0.7095 -0.2568 -0.4654
 7266TIP3   OH245992   0.497   2.542   1.501 -0.3898 -0.4717  0.2020
 7266TIP3    H145993   0.401   2.546   1.499 -0.3699 -0.3851 -1.0672
 7266TIP3    H245994   0.524   2.558   1.411  0.8086 -1.1041  0.4277
 7267TIP3   OH245995   1.844   5.697   2.771 -0.5880  0.3216 -0.5883
 7267TIP3    H145996   1.812   5.622   2.720  0.2348  0.4114 -1.2638
 7267TIP3    H245997   1.828   5.773   2.716 -0.3377  0.5055 -0.4132
 7268TIP3   OH245998   5.619   5.124   1.439  0.5022 -0.4445  0.4936
 7268TIP3    H145999   5.560   5.150   1.369  3.3445  0.8907 -1.5917
 7268TIP3    H246000   5.618   5.028   1.437  0.3641 -0.4403 -1.2722
 7269TIP3   OH246001   5.972   1.037   1.434  0.2865  0.2587  0.2485
 7269TIP3    H146002   5.945   0.947   1.416  0.0148  0.4777 -0.4831
 7269TIP3    H246003   5.956   1.049   1.528 -1.0123 -0.0092  0.0764
 7270TIP3   OH246004   2.734   2.210   2.053 -0.4145  0.3366 -0.4075
 7270TIP3    H146005   2.741   2.241   1.962  1.9394 -1.4580 -0.9368
 7270TIP3    H246006   2.646   2.173   2.059 -1.5971  2.7873 -1.0901
 7271TIP3   OH246007   1.205   5.676   0.520  0.1165 -0.2891  0.3820
 7271TIP3    H146008   1.119   5.637   0.538  0.9493 -1.3550  2.4702
 7271TIP3    H246009   1.254   5.606   0.476  0.1090  0.1323 -0.3125
 7272TIP3   OH246010   3.629   2.814   1.380  0.0601 -0.1450  0.1830
 7272TIP3    H146011   3.692   2.788   1.447 -1.0238  1.2370  1.8460
 7272TIP3    H246012   3.545   2.782   1.413 -0.5774  1.0512 -0.2029
 7273TIP3   OH246013   0.763   3.975   0.577  0.6268 -0.6425  0.1631
 7273TIP3    H146014   0.797   3.897   0.622 -1.2952  0.2860  3.6044
 7273TIP3    H246015   0.837   4.035   0.575  1.5085 -1.7130 -0.4281
 7274TIP3   OH246016   0.567   0.563   1.878  0.1476 -0.6086 -0.0579
 7274TIP3    H146017   0.633   0.621   1.915 -1.1201  0.4765  0.5831
 7274TIP3    H246018   0.505   0.547   1.950 -0.7257 -0.9371 -0.8543
 7275TIP3   OH246019   0.258   1.768   2.278 -0.0721 -0.3407 -0.5207
 7275TIP3    H146020   0.209   1.823   2.338  1.0043 -0.5211  0.5486
 7275TIP3    H246021   0.255   1.815   2.194  0.8623  1.3813  0.3666
 7276TIP3   OH246022   0.637   5.566   2.334 -0.2337  0.1514  0.0645
 7276TIP3    H146023   0.680   5.597   2.413  0.3972  1.7487 -0.8580
 7276TIP3    H246024   0.696   5.589   2.263 -0.2130 -2.3268 -0.8351
 7277TIP3   OH246025   0.666   2.721   3.192 -0.0078  0.5250  0.3075
 7277TIP3    H146026   0.714   2.649   3.234 -0.1500  0.4444  0.3340
 7277TIP3    H246027   0.586   2.728   3.243  0.6496  1.6738  1.2288
 7278TIP3   OH246028   4.870   3.567   3.663  0.0693 -0.0496 -0.2413
 7278TIP3    H146029   4.957   3.595   3.634  1.1725 -0.4187  2.4083
 7278TIP3    H246030   4.866   3.474   3.642 -0.2416  0.2387 -1.5331
 7279TIP3   OH246031   5.687   5.757   2.265 -0.4759 -0.2807 -0.0066
 7279TIP3    H146032   5.652   5.713   2.342 -1.5147 -0.5190 -0.6009
 7279TIP3    H246033   5.782   5.750   2.275 -0.6036 -1.6769  0.4752
 7280TIP3   OH246034   6.200   2.144   3.637 -0.6853 -0.3791 -0.9077
 7280TIP3    H146035   6.248   2.064   3.616  1.8066 -0.3395  3.2520
 7280TIP3    H246036   6.268   2.212   3.637 -1.4313  0.4628  1.4613
 7281TIP3   OH246037   4.897   0.398   1.961 -0.1015  0.5580  0.6322
 7281TIP3    H146038   4.817   0.443   1.933 -0.4112 -0.6683 -0.5116
 7281TIP3    H246039   4.961   0.418   1.893  0.2272  0.5935  0.9520
 7282TIP3   OH246040   0.291   4.677   1.089 -0.4496  1.0640 -0.4618
 7282TIP3    H146041   0.209   4.646   1.050 -0.5101  0.1344  0.3903
 7282TIP3    H246042   0.297   4.633   1.173 -0.2800  2.9870  0.5984
 7283TIP3   OH246043   1.768   5.592   2.286  0.1859 -0.3696 -0.9379
 7283TIP3    H146044   1.829   5.560   2.353  1.5470 -1.7275 -2.7475
 7283TIP3    H246045   1.779   5.687   2.289  0.6448 -0.4328  0.3462
 7284TIP3   OH246046   2.851   0.380   1.816 -0.3633 -0.1865 -0.4720
 7284TIP3    H146047   2.850   0.287   1.838 -0.2065 -0.1991 -0.5162
 7284TIP3    H246048   2.801   0.422   1.886  2.1878  0.0946  1.3255
 7285TIP3   OH246049   0.861   2.723   2.998 -0.3481  0.2362  0.5425
 7285TIP3    H146050   0.796   2.720   3.069 -0.2422 -3.2008  0.6352
 7285TIP3    H246051   0.943   2.748   3.042 -1.0363  2.1154  0.8549
 7286TIP3   OH246052   4.405   2.522   0.764 -0.1759  0.5568  0.0819
 7286TIP3    H146053   4.364   2.565   0.688  2.1881 -0.1649 -1.7381
 7286TIP3    H246054   4.409   2.429   0.740 -0.6714  0.0631  1.7660
 7287TIP3   OH246055   6.594   6.481   3.565 -0.2245 -0.3995  0.0424
 7287TIP3    H146056   6.608   6.389   3.586 -0.9375 -0.2900  1.0792
 7287TIP3    H246057   6.603   6.527   3.649  0.5096  0.5282 -0.5221
 7288TIP3   OH246058   2.625   0.286   2.377  0.1816 -0.4948  0.1319
 7288TIP3    H146059   2.552   0.325   2.329  0.4462 -2.2455 -1.8224
 7288TIP3    H246060   2.702   0.334   2.346  0.2538 -1.0599 -0.5845
 7289TIP3   OH246061   0.998   5.744   2.466  0.4819  0.2441 -0.3410
 7289TIP3    H146062   1.056   5.693   2.409 -0.2657 -1.7306  0.5831
 7289TIP3    H246063   0.977   5.822   2.415  2.9756  0.4758 -1.1725
 7290TIP3   OH246064   3.037   6.234   1.122 -0.2859  0.2421  0.0298
 7290TIP3    H146065   3.059   6.327   1.133 -0.3908  0.2414  0.2578
 7290TIP3    H246066   2.966   6.219   1.185 -0.5682  0.1118 -0.3208
 7291TIP3   OH246067   5.358   4.940   2.915 -0.2509 -0.9734 -0.4781
 7291TIP3    H146068   5.388   4.912   3.001  0.4352  0.4519 -0.2463
 7291TIP3    H246069   5.285   4.880   2.896 -0.6203 -1.1150  1.2115
 7292TIP3   OH246070   2.166   6.417   3.591 -0.5197 -0.3209 -0.4297
 7292TIP3    H146071   2.223   6.494   3.592 -0.2536 -0.5159  0.0869
 7292TIP3    H246072   2.135   6.409   3.682 -0.1027 -1.1391 -0.3435
 7293TIP3   OH246073   3.858   1.256   1.812 -0.2791  0.2319 -0.2881
 7293TIP3    H146074   3.946   1.224   1.789  0.0833 -1.8383  3.3223
 7293TIP3    H246075   3.872   1.344   1.847 -0.1589  1.1464 -2.4486
 7294TIP3   OH246076   5.560   2.999   3.045 -0.4383  0.0937  0.2340
 7294TIP3    H146077   5.596   2.911   3.054 -2.4561 -0.7633  0.3723
 7294TIP3    H246078   5.581   3.042   3.128 -0.6981 -0.7437  0.7478
 7295TIP3   OH246079   3.072   1.907   0.829 -0.0196  0.2684 -0.0247
 7295TIP3    H146080   3.057   1.993   0.868 -0.5365  0.2422 -0.1604
 7295TIP3    H246081   3.015   1.905   0.752 -0.4688 -0.4274  0.3137
 7296TIP3   OH246082   1.668   2.807   2.200  0.2908 -0.0559 -0.1946
 7296TIP3    H146083   1.588   2.860   2.199  0.3302  0.0520  0.7794
 7296TIP3    H246084   1.739   2.870   2.190  0.3201  0.0441  0.5831
 7297TIP3   OH246085   1.713   0.536   3.560  0.4121 -0.1938 -0.3641
 7297TIP3    H146086   1.709   0.518   3.654 -0.2929 -0.7670 -0.4984
 7297TIP3    H246087   1.622   0.537   3.532  0.3971  2.9720 -0.5243
 7298TIP3   OH246088   6.812   2.325   2.392  0.3260 -0.1363  0.0531
 7298TIP3    H146089   6.769   2.321   2.477  2.2078 -1.7306  1.0091
 7298TIP3    H246090   6.844   2.415   2.385  1.1433 -0.2908  1.5636
 7299TIP3   OH246091   3.447   4.575   2.105 -0.1257 -0.2009  1.0186
 7299TIP3    H146092   3.514   4.582   2.037 -1.0729  0.0339  0.0807
 7299TIP3    H246093   3.405   4.661   2.106 -1.8826 -0.9994  0.0098
 7300TIP3   OH246094   5.172   6.584   2.286 -0.2152 -0.1230  0.1458
 7300TIP3    H146095   5.250   6.636   2.305 -1.1387  1.1564  0.5952
 7300TIP3    H246096   5.147   6.546   2.371 -0.1308 -0.4818  0.0146
 7301TIP3   OH246097   2.830   1.793   2.684  0.2904 -0.6271 -1.0383
 7301TIP3    H146098   2.775   1.872   2.686  0.2906 -0.5957 -2.0202
 7301TIP3    H246099   2.911   1.822   2.641  1.9986 -0.1186  2.1841
 7302TIP3   OH246100   0.696   2.307   2.706 -0.1509  0.1119 -0.2703
 7302TIP3    H146101   0.615   2.357   2.697  0.2668  0.9531  0.4138
 7302TIP3    H246102   0.683   2.230   2.652 -1.5551  0.0491  0.1147
 7303TIP3   OH246103   2.882   3.629   1.510  0.4933  0.6137 -0.0701
 7303TIP3    H146104   2.969   3.644   1.473  1.4989 -1.2629  1.3323
 7303TIP3    H246105   2.876   3.688   1.585  0.3823  1.0383 -0.4126
 7304TIP3   OH246106   6.453   4.631   3.799  0.1497  0.2640 -0.2841
 7304TIP3    H146107   6.490   4.543   3.800  0.1444  0.2529 -0.7747
 7304TIP3    H246108   6.518   4.685   3.844  0.4274  0.1115 -0.4980
 7305TIP3   OH246109   5.371   0.813   3.297  0.6345 -0.3828 -0.8297
 7305TIP3    H146110   5.422   0.735   3.318 -1.3033 -1.2719  1.0343
 7305TIP3    H246111   5.406   0.881   3.354 -0.3880 -1.0845  0.7152
 7306TIP3   OH246112   5.861   2.652   1.306 -0.0509  0.1847  0.5092
 7306TIP3    H146113   5.840   2.568   1.345 -0.3243 -0.6629 -1.3700
 7306TIP3    H246114   5.809   2.716   1.356  0.0432 -0.7431  1.8490
 7307TIP3   OH246115   3.529   4.619   0.958  0.2034 -0.5033 -0.1533
 7307TIP3    H146116   3.500   4.657   1.041  1.3743 -0.2116  0.1319
 7307TIP3    H246117   3.591   4.551   0.983  2.2178  0.9841 -0.8028
 7308TIP3   OH246118   4.241   5.730   1.438 -0.2010  0.2292 -0.2061
 7308TIP3    H146119   4.235   5.777   1.355  0.0053  1.4367  0.4357
 7308TIP3    H246120   4.193   5.649   1.424 -1.0166  0.8620 -1.2037
 7309TIP3   OH246121   1.843   3.876   2.554 -0.1306 -0.1547 -0.1530
 7309TIP3    H146122   1.846   3.953   2.612 -1.2062  0.2577 -0.6191
 7309TIP3    H246123   1.765   3.828   2.583 -1.5432  0.7945 -2.1105
 7310TIP3   OH246124   3.194   5.082   1.414 -0.5218  0.3563 -0.4883
 7310TIP3    H146125   3.217   5.092   1.322 -0.1945  1.2921 -0.3110
 7310TIP3    H246126   3.156   4.994   1.420  1.6766 -0.6770 -1.0578
 7311TIP3   OH246127   5.878   1.910   1.306  0.1940  0.7189  0.2689
 7311TIP3    H146128   5.868   1.967   1.382 -1.4131  0.1433  0.5349
 7311TIP3    H246129   5.942   1.844   1.334 -0.3842  0.5098  1.1503
 7312TIP3   OH246130   2.560   3.955   4.112  0.0696  0.3187 -0.4153
 7312TIP3    H146131   2.487   3.922   4.059 -1.7770 -0.1356  2.2234
 7312TIP3    H246132   2.543   4.049   4.120  0.3320  0.3823 -0.6043
 7313TIP3   OH246133   2.465   3.173   4.467  0.3666  0.1281 -0.4543
 7313TIP3    H146134   2.399   3.148   4.402  1.1651 -1.2358 -0.7668
 7313TIP3    H246135   2.485   3.265   4.446 -0.9297  0.3649 -0.7654
 7314TIP3   OH246136   0.645   1.142   1.393 -0.3063 -0.2760 -0.5349
 7314TIP3    H146137   0.719   1.200   1.410 -0.1704 -0.1662 -1.4462
 7314TIP3    H246138   0.570   1.201   1.381 -0.7709 -0.4165  1.3098
 7315TIP3   OH246139   6.840   5.485   3.258 -0.1925 -0.6120 -0.4115
 7315TIP3    H146140   6.831   5.477   3.163 -1.8259 -0.0459 -0.3364
 7315TIP3    H246141   6.878   5.572   3.271  1.2967 -1.2195 -0.5784
 7316TIP3   OH246142   1.264   4.624   1.007  0.3233  0.2835 -0.4939
 7316TIP3    H146143   1.202   4.581   0.947  1.0198 -0.9837 -0.3405
 7316TIP3    H246144   1.341   4.568   1.005  1.3942  1.7226 -0.5079
 7317TIP3   OH246145   4.963   0.092   2.116  0.3075  0.1138  0.3595
 7317TIP3    H146146   4.908   0.130   2.185 -0.3518 -1.5206  0.7675
 7317TIP3    H246147   4.957  -0.002   2.129  2.5587 -0.1468 -0.1159
 7318TIP3   OH246148   5.532   0.669   2.744 -0.4773 -0.4629 -0.3265
 7318TIP3    H146149   5.619   0.640   2.717 -0.0493 -0.1187  0.6345
 7318TIP3    H246150   5.472   0.627   2.682  0.2416 -2.1527  0.0719
 7319TIP3   OH246151   0.170   2.458   2.102 -0.0562 -0.3439 -0.1214
 7319TIP3    H146152   0.136   2.485   2.187  1.8731 -0.4245  0.7070
 7319TIP3    H246153   0.136   2.524   2.041 -0.2125  0.5881  0.9396
 7320TIP3   OH246154   2.527   4.149   2.959  0.0951 -0.0477  0.3846
 7320TIP3    H146155   2.494   4.083   3.020  0.2867 -0.6036 -0.1069
 7320TIP3    H246156   2.454   4.166   2.899  0.2263 -0.2123  0.1786
 7321TIP3   OH246157   6.769   6.756   0.496  0.4276 -0.1682 -0.0673
 7321TIP3    H146158   6.699   6.777   0.559  1.8460  1.3264  1.1269
 7321TIP3    H246159   6.734   6.684   0.445 -3.3147  2.4296 -1.6983
 7322TIP3   OH246160   3.201   3.554   0.981 -0.0645  0.3286 -0.5576
 7322TIP3    H146161   3.169   3.516   0.900 -1.3070 -1.1840  0.5808
 7322TIP3    H246162   3.122   3.574   1.031  0.6730 -0.2724  0.9185
 7323TIP3   OH246163   6.377   1.476   3.031 -0.5275 -0.5993 -0.3599
 7323TIP3    H146164   6.448   1.529   2.995 -0.2883 -0.8278 -0.2308
 7323TIP3    H246165   6.413   1.387   3.034 -0.2836 -0.4783  1.1175
 7324TIP3   OH246166   1.358   6.276   3.918 -0.6353 -0.3218  0.3166
 7324TIP3    H146167   1.403   6.198   3.950 -1.6797 -0.4312  1.5425
 7324TIP3    H246168   1.331   6.323   3.997  0.7574  1.7712 -0.3647
 7325TIP3   OH246169   0.632   5.869   3.927 -0.6316 -0.3963 -0.7228
 7325TIP3    H146170   0.616   5.882   3.834  0.0748 -3.7442 -1.4430
 7325TIP3    H246171   0.721   5.835   3.932  0.4981  2.4976  1.5476
 7326TIP3   OH246172   1.416   6.765   2.076  0.0543  0.3499  0.7281
 7326TIP3    H146173   1.387   6.757   1.986 -2.0403  0.0727  1.3695
 7326TIP3    H246174   1.505   6.801   2.070  0.5841 -1.1511 -1.4500
 7327TIP3   OH246175   0.709   3.261   3.550 -0.2465 -0.0396  0.2822
 7327TIP3    H146176   0.801   3.240   3.533 -0.3412 -0.5455  0.3875
 7327TIP3    H246177   0.712   3.327   3.619 -0.0330 -1.8232  2.0558
 7328TIP3   OH246178   4.095   5.742   3.057  0.0602 -0.1075  0.2270
 7328TIP3    H146179   4.060   5.804   3.121  0.8229  0.6559 -0.0670
 7328TIP3    H246180   4.021   5.685   3.035  0.0491 -1.1042  2.5984
 7329TIP3   OH246181   4.672   0.093   1.259 -0.3366  0.6347 -0.0946
 7329TIP3    H146182   4.600   0.051   1.306  0.6017 -0.2879  0.5763
 7329TIP3    H246183   4.629   0.151   1.196 -1.7046 -1.0328 -0.7929
 7330TIP3   OH246184   4.457   6.276   3.848  0.5805  0.4054  0.6882
 7330TIP3    H146185   4.506   6.226   3.913  0.4746 -0.2151  0.2937
 7330TIP3    H246186   4.371   6.234   3.845  1.2128 -0.8359 -1.2862
 7331TIP3   OH246187   6.535   1.452   2.679  0.1056  0.0874 -0.1236
 7331TIP3    H146188   6.606   1.423   2.622  0.2070  0.1125 -0.0109
 7331TIP3    H246189   6.578   1.505   2.746  0.0106 -0.0926  0.0820
 7332TIP3   OH246190   4.676   5.761   2.917 -0.1014  0.0544 -0.5691
 7332TIP3    H146191   4.756   5.723   2.882  1.0130 -0.6457  2.4264
 7332TIP3    H246192   4.648   5.700   2.985 -0.5175  2.5596  1.6734
 7333TIP3   OH246193   2.475   4.151   3.551  0.4613  0.3372 -0.1278
 7333TIP3    H146194   2.454   4.127   3.641  1.2842  0.5377  0.1273
 7333TIP3    H246195   2.459   4.071   3.500 -0.4741  0.3605  0.1033
 7334TIP3   OH246196   4.203   5.687   1.089 -0.4453  0.1109 -0.9413
 7334TIP3    H146197   4.112   5.715   1.094 -0.1306  1.0044  0.5433
 7334TIP3    H246198   4.199   5.597   1.057 -1.9192 -0.1848 -0.0398
 7335TIP3   OH246199   1.747   5.205   4.195 -0.0480 -0.6160 -0.2397
 7335TIP3    H146200   1.680   5.167   4.138  0.3077 -1.4472 -0.1165
 7335TIP3    H246201   1.817   5.233   4.135 -1.4573  2.4779 -0.6416
 7336TIP3   OH246202   0.161   4.681   3.037 -0.2462 -0.5052 -0.7043
 7336TIP3    H146203   0.101   4.679   2.962 -1.8629  2.6182  0.3296
 7336TIP3    H246204   0.108   4.651   3.111  0.0543  0.3463 -0.1275
 7337TIP3   OH246205   0.195   1.551   0.669 -0.1703 -0.1820 -0.4604
 7337TIP3    H146206   0.285   1.540   0.636  0.4669 -0.7269  1.3401
 7337TIP3    H246207   0.168   1.637   0.637  1.5052  0.5792  0.0711
 7338TIP3   OH246208   5.341   6.218   2.089  0.4726  0.0231  0.4509
 7338TIP3    H146209   5.266   6.247   2.141  1.0057  0.4815  0.9910
 7338TIP3    H246210   5.311   6.140   2.042 -0.6051  0.6996 -0.0167
 7339TIP3   OH246211   2.830   4.727   3.358 -0.2115  0.1246 -0.3643
 7339TIP3    H146212   2.872   4.756   3.277  0.1637  1.4273  0.2611
 7339TIP3    H246213   2.893   4.747   3.426 -1.1629  0.5697  0.4192
 7340TIP3   OH246214   3.822   3.676   3.087 -0.2696 -0.1053  0.0233
 7340TIP3    H146215   3.901   3.624   3.102 -0.7810 -1.8654 -2.6992
 7340TIP3    H246216   3.750   3.614   3.098 -1.2395  1.1991  1.3295
 7341TIP3   OH246217   6.730   5.393   1.919 -0.4435  0.0882  0.3240
 7341TIP3    H146218   6.715   5.306   1.956 -0.2865 -0.2613 -0.4135
 7341TIP3    H246219   6.743   5.450   1.995 -2.1191 -0.2262  0.8665
 7342TIP3   OH246220   1.512   6.702   3.717 -0.5014  0.1819 -0.3865
 7342TIP3    H146221   1.507   6.790   3.755  3.0602  0.3960 -0.0662
 7342TIP3    H246222   1.532   6.645   3.791  1.6552 -0.1369 -1.1418
 7343TIP3   OH246223   0.181   1.887   3.511  0.0696  0.1341 -0.0526
 7343TIP3    H146224   0.182   1.887   3.607 -0.0002 -0.5381 -0.0489
 7343TIP3    H246225   0.151   1.975   3.488  0.7443  0.5321  0.5277
 7344TIP3   OH246226   0.961   5.141   3.397  0.2648 -0.0629 -0.0888
 7344TIP3    H146227   0.868   5.156   3.413 -0.2233 -1.6334 -1.2045
 7344TIP3    H246228   0.991   5.221   3.353 -0.8316  0.0468 -0.6800
 7345TIP3   OH246229   0.537   0.945   0.693 -0.2399 -0.1995 -0.5886
 7345TIP3    H146230   0.508   1.020   0.746  3.2163  0.6321  0.3598
 7345TIP3    H246231   0.476   0.875   0.716  0.1886  0.5117  3.5441
 7346TIP3   OH246232   0.738   5.754   3.593  0.0467  0.5029  0.3944
 7346TIP3    H146233   0.797   5.773   3.520  0.3846 -0.0413  0.5213
 7346TIP3    H246234   0.678   5.828   3.595 -1.2761 -0.3869 -1.7510
 7347TIP3   OH246235   6.436   1.056   1.387  0.3232 -0.0031  0.2208
 7347TIP3    H146236   6.461   1.007   1.309  1.1546  1.1461 -0.2649
 7347TIP3    H246237   6.504   1.123   1.395 -0.5983  0.8479  1.0577
 7348TIP3   OH246238   0.652   1.366   3.176 -0.0789 -0.1078 -0.1725
 7348TIP3    H146239   0.710   1.358   3.100 -2.0514  3.3607 -2.3230
 7348TIP3    H246240   0.583   1.301   3.160 -1.0222  1.2537 -2.0443
 7349TIP3   OH246241   2.413   5.987   1.185 -0.1424 -0.1637  0.2446
 7349TIP3    H146242   2.501   6.020   1.164  0.3056 -1.1526  0.4898
 7349TIP3    H246243   2.374   5.966   1.100 -0.1244  0.2325  0.1371
 7350TIP3   OH246244   0.492   2.472   2.799  0.4879  0.2699  0.1032
 7350TIP3    H146245   0.406   2.514   2.804 -0.3638 -1.2812 -0.6516
 7350TIP3    H246246   0.528   2.481   2.887 -0.2991  1.2373  0.3420
 7351TIP3   OH246247   0.776   1.576   1.660  0.1116 -0.1808  0.0869
 7351TIP3    H146248   0.806   1.535   1.579 -1.8451  1.0297 -1.3272
 7351TIP3    H246249   0.851   1.629   1.689  0.2386  0.8950 -2.0332
 7352TIP3   OH246250   2.782   4.287   2.082  0.0724 -0.2541 -0.1786
 7352TIP3    H146251   2.707   4.231   2.102  1.1049 -0.7857  2.7072
 7352TIP3    H246252   2.780   4.355   2.149 -0.2953  2.4551 -2.7220
 7353TIP3   OH246253   5.058   2.497   1.914  0.4764  0.4791 -0.4301
 7353TIP3    H146254   4.978   2.537   1.948  0.5308  2.1437 -2.0749
 7353TIP3    H246255   5.112   2.482   1.991 -1.5500 -1.1412  0.7961
 7354TIP3   OH246256   6.331   6.716   3.405 -0.5433 -0.0579 -0.1118
 7354TIP3    H146257   6.335   6.756   3.491 -0.8498  2.2064 -1.0925
 7354TIP3    H246258   6.246   6.672   3.402 -0.8979  0.5867  0.4210
 7355TIP3   OH246259   0.916   4.893   0.832  0.0932 -0.1323  0.7745
 7355TIP3    H146260   0.933   4.900   0.926  1.7979  0.0029  0.4830
 7355TIP3    H246261   0.865   4.812   0.824  1.1086 -0.9151  1.7116
 7356TIP3   OH246262   6.322   1.408   1.754  0.0940  1.0131 -0.0908
 7356TIP3    H146263   6.383   1.401   1.827 -1.0139 -2.8257  0.6653
 7356TIP3    H246264   6.378   1.403   1.676  0.9844  0.8780  0.5341
 7357TIP3   OH246265   3.401   6.161   1.957  0.0776  0.1664 -0.0579
 7357TIP3    H146266   3.450   6.243   1.964 -0.8462  0.6496  1.2095
 7357TIP3    H246267   3.391   6.147   1.863  1.0964  0.9857 -0.3092
 7358TIP3   OH246268   4.966   2.744   2.464 -0.9170 -0.0846 -0.2931
 7358TIP3    H146269   4.929   2.829   2.488  1.5437  0.4662  2.1133
 7358TIP3    H246270   4.934   2.685   2.532  3.9403  0.9033  3.4563
 7359TIP3   OH246271   2.176   4.892   2.845  0.0646  0.2993  0.6304
 7359TIP3    H146272   2.220   4.956   2.788 -3.0712  2.2158  0.1586
 7359TIP3    H246273   2.112   4.850   2.788 -1.3814  0.4097  2.1385
 7360TIP3   OH246274   1.658   5.629   3.058 -0.7965  0.1240  0.0167
 7360TIP3    H146275   1.716   5.704   3.053 -1.6335  0.7690 -0.2060
 7360TIP3    H246276   1.600   5.639   2.983 -1.6018 -0.1633  0.5914
 7361TIP3   OH246277   4.463   5.493   1.659 -0.4271 -0.4452  0.4307
 7361TIP3    H146278   4.539   5.449   1.621 -1.1927 -2.5311  1.1601
 7361TIP3    H246279   4.482   5.586   1.649  2.9122 -0.8147  1.8654
 7362TIP3   OH246280   1.515   2.829   1.460  0.2186  0.2322 -0.3758
 7362TIP3    H146281   1.527   2.770   1.386  0.2292 -0.5246  0.2129
 7362TIP3    H246282   1.465   2.778   1.523 -2.2199  1.7453 -0.9266
 7363TIP3   OH246283   1.544   3.364   2.485 -0.5578 -0.0207  0.6190
 7363TIP3    H146284   1.465   3.404   2.449  0.9867  0.2736 -2.7972
 7363TIP3    H246285   1.524   3.271   2.489 -1.2223  0.0974  0.1828
 7364TIP3   OH246286   1.396   0.365   3.016  0.1050 -0.0437 -0.1815
 7364TIP3    H146287   1.375   0.447   2.971  0.2734 -0.7777 -1.6535
 7364TIP3    H246288   1.311   0.320   3.024  0.1320 -0.0776 -0.0845
 7365TIP3   OH246289   6.589   2.194   1.783 -0.4031 -0.2955 -0.4516
 7365TIP3    H146290   6.495   2.212   1.784 -0.7343 -1.8353  1.3158
 7365TIP3    H246291   6.596   2.103   1.811  1.7142  0.5342  2.1142
 7366TIP3   OH246292   3.986   0.142   0.857  0.1736  0.2776  0.6935
 7366TIP3    H146293   3.896   0.168   0.878  0.1684  0.0242  0.9944
 7366TIP3    H246294   3.986   0.128   0.763 -0.0275  0.5685  0.6484
 7367TIP3   OH246295   6.155   6.804   2.378  0.0204 -0.2612  0.3875
 7367TIP3    H146296   6.091   6.845   2.437  0.5499  0.1339  0.7026
 7367TIP3    H246297   6.226   6.869   2.371 -1.0552  0.7896 -2.5867
 7368TIP3   OH246298   3.382   5.394   0.850 -0.5989 -0.2480 -0.6300
 7368TIP3    H146299   3.414   5.327   0.911 -0.5722  0.1530 -0.1923
 7368TIP3    H246300   3.310   5.351   0.803 -0.2907 -0.7250 -0.6751
 7369TIP3   OH246301   0.979   5.698   0.938 -0.1079 -0.2615 -0.0441
 7369TIP3    H146302   0.952   5.718   1.027 -0.7943  0.2626 -0.3661
 7369TIP3    H246303   1.041   5.768   0.915  0.4385 -0.6615  0.1811
 7370TIP3   OH246304   5.712   0.370   1.879 -0.0264  0.0814  0.2534
 7370TIP3    H146305   5.696   0.286   1.837 -1.4776  0.5772 -0.2194
 7370TIP3    H246306   5.770   0.417   1.818  0.0707 -0.2302  0.1071
 7371TIP3   OH246307   3.212   4.068   2.222 -0.3660 -0.3678  0.1025
 7371TIP3    H146308   3.131   4.035   2.262  0.1655  0.2150  1.7643
 7371TIP3    H246309   3.196   4.162   2.211 -0.7112 -0.5948 -1.6840
 7372TIP3   OH246310   0.161   0.251   1.995  0.2292 -0.5311 -0.2236
 7372TIP3    H146311   0.077   0.215   1.966 -1.5006  3.7088 -1.1326
 7372TIP3    H246312   0.220   0.236   1.921 -1.0649  0.4707 -1.5024
 7373TIP3   OH246313   5.734   1.921   3.712 -0.3360 -0.8652  0.2959
 7373TIP3    H146314   5.727   1.881   3.625 -2.0244  3.2823 -1.7396
 7373TIP3    H246315   5.648   1.908   3.752 -1.1440  1.0544 -0.6737
 7374TIP3   OH246316   1.904   4.696   2.049  0.0501 -0.2556  0.0933
 7374TIP3    H146317   1.915   4.717   1.956  0.6641  1.3715  0.5197
 7374TIP3    H246318   1.835   4.628   2.049 -0.9324  0.6698 -1.4501
 7375TIP3   OH246319   5.048   5.547   0.724 -0.5862  0.6065  0.2761
 7375TIP3    H146320   4.998   5.483   0.774 -0.2320 -0.3048 -0.4927
 7375TIP3    H246321   4.996   5.563   0.646 -0.2289  0.5125  0.0111
 7376TIP3   OH246322   0.075   0.301   2.683 -0.2647 -0.3949  0.0230
 7376TIP3    H146323   0.023   0.232   2.724  0.6477  0.2673  2.4840
 7376TIP3    H246324   0.044   0.382   2.724 -1.2993  0.7549 -2.7851
 7377TIP3   OH246325   2.931   5.450   1.749 -0.2093  0.4284 -0.0828
 7377TIP3    H146326   2.969   5.402   1.675 -0.4488  0.8658 -0.4938
 7377TIP3    H246327   2.997   5.515   1.772 -0.1423  0.3036  0.0769
 7378TIP3   OH246328   5.530   4.736   2.071  0.4404  0.3627 -0.8312
 7378TIP3    H146329   5.587   4.743   1.994  0.7878  0.6977 -0.5460
 7378TIP3    H246330   5.520   4.826   2.101  0.0638  0.2621 -0.6580
 7379TIP3   OH246331   4.151   0.678   0.624 -0.3746 -0.2956 -0.0668
 7379TIP3    H146332   4.152   0.757   0.678 -1.2063 -1.0568  1.1114
 7379TIP3    H246333   4.196   0.704   0.543 -0.3158  1.2682  0.4268
 7380TIP3   OH246334   0.643   6.240   1.510 -0.1713 -0.5094 -0.0862
 7380TIP3    H146335   0.588   6.318   1.503  1.0480  0.4060  0.1880
 7380TIP3    H246336   0.609   6.193   1.586  0.3044  0.7741  0.9527
 7381TIP3   OH246337   3.775   6.387   4.074 -0.2203 -0.9198 -0.7278
 7381TIP3    H146338   3.757   6.466   4.022  1.7949 -1.2900 -2.0958
 7381TIP3    H246339   3.699   6.379   4.132 -1.5803  0.7129 -2.1617
 7382TIP3   OH246340   1.662   1.193   1.358 -0.1359  0.2201  0.2534
 7382TIP3    H146341   1.585   1.249   1.347  0.4391  1.5607  2.3983
 7382TIP3    H246342   1.673   1.186   1.453  1.2577 -1.5536  0.0091
 7383TIP3   OH246343   4.713   2.709   1.608  0.8127  0.2732  0.4754
 7383TIP3    H146344   4.687   2.617   1.616  1.8272 -0.0722 -0.0229
 7383TIP3    H246345   4.691   2.748   1.693 -0.6478 -0.1506  0.3244
 7384TIP3   OH246346   4.798   5.822   2.490 -0.3712  0.0046 -0.3630
 7384TIP3    H146347   4.794   5.822   2.395  1.4602  1.8916 -0.5164
 7384TIP3    H246348   4.715   5.860   2.519 -1.3938 -1.5716 -1.1142
 7385TIP3   OH246349   0.667   1.139   0.469 -0.1637  0.1753  0.1935
 7385TIP3    H146350   0.749   1.093   0.449 -0.8424 -1.2827  0.6813
 7385TIP3    H246351   0.609   1.072   0.503 -0.8742  1.5516  1.9042
 7386TIP3   OH246352   0.743   2.894   0.474  0.0022  0.4618 -0.3750
 7386TIP3    H146353   0.660   2.940   0.482 -1.5086 -2.0930 -0.2191
 7386TIP3    H246354   0.769   2.907   0.383 -0.6077  1.2097 -0.4543
 7387TIP3   OH246355   2.792   1.629   0.653 -0.0032 -0.6238 -0.3274
 7387TIP3    H146356   2.866   1.651   0.596 -1.5682  2.9136 -1.2249
 7387TIP3    H246357   2.813   1.670   0.737 -0.8725  0.2977 -0.5506
 7388TIP3   OH246358   4.453   1.647   0.604  0.0565 -0.7566  0.3599
 7388TIP3    H146359   4.402   1.657   0.684 -0.1393 -0.9552  0.2618
 7388TIP3    H246360   4.472   1.553   0.599 -0.4067 -0.8349 -0.1105
 7389TIP3   OH246361   1.101   2.627   2.157  0.2340  0.1742 -0.3220
 7389TIP3    H146362   1.187   2.648   2.122  0.0479 -0.2850 -1.0780
 7389TIP3    H246363   1.114   2.624   2.252  1.0864 -0.0516 -0.4363
 7390TIP3   OH246364   3.142   2.243   0.731  0.0217 -0.4788 -1.0055
 7390TIP3    H146365   3.181   2.301   0.665  0.4408  0.4343 -0.0032
 7390TIP3    H246366   3.217   2.196   0.767 -0.0215 -0.0189 -0.2993
 7391TIP3   OH246367   4.498   0.295   0.635  0.9168 -0.0873  0.2857
 7391TIP3    H146368   4.443   0.319   0.560  0.7859 -0.1225  0.3699
 7391TIP3    H246369   4.462   0.211   0.664  0.0744  0.5724  1.2456
 7392TIP3   OH246370   2.450   4.616   0.718  0.0957  0.1349 -0.3517
 7392TIP3    H146371   2.365   4.597   0.757 -0.7911  2.2417 -1.1103
 7392TIP3    H246372   2.494   4.671   0.783 -0.9640  2.7614 -1.7151
 7393TIP3   OH246373   1.170   5.521   1.010 -0.3774  0.1073 -0.3588
 7393TIP3    H146374   1.142   5.429   1.014 -0.1876  0.0520 -0.2731
 7393TIP3    H246375   1.102   5.565   0.958 -0.0113 -0.2592 -1.1700
 7394TIP3   OH246376   5.760   1.699   2.834  0.3232  0.2571  0.0270
 7394TIP3    H146377   5.708   1.654   2.767 -0.1515  1.0084 -0.1216
 7394TIP3    H246378   5.851   1.679   2.813  0.1007 -1.3682  0.4885
 7395TIP3   OH246379   5.348   3.626   2.611  0.3411  0.5807 -0.0040
 7395TIP3    H146380   5.418   3.560   2.609  0.7155  0.9283  0.8963
 7395TIP3    H246381   5.360   3.676   2.530  0.1057 -0.3816 -0.6570
 7396TIP3   OH246382   2.798   4.700   0.464 -0.2717 -0.1262 -0.0881
 7396TIP3    H146383   2.891   4.677   0.468  0.0451  1.1877  2.3596
 7396TIP3    H246384   2.798   4.794   0.445 -1.0749 -0.0631  0.1991
 7397TIP3   OH246385   4.900   3.826   1.879 -0.3409 -0.9890 -0.1901
 7397TIP3    H146386   4.875   3.804   1.789 -1.5193  1.7511 -0.6341
 7397TIP3    H246387   4.830   3.883   1.911  0.9132 -0.4631  1.8484
 7398TIP3   OH246388   0.816   4.151   1.406  0.0397 -0.0984 -0.4420
 7398TIP3    H146389   0.870   4.198   1.470  2.0506 -2.0090 -0.6304
 7398TIP3    H246390   0.878   4.117   1.342 -1.8348  1.2933 -3.2167
 7399TIP3   OH246391   2.913   5.094   2.352 -0.0449  0.0249  0.5038
 7399TIP3    H146392   2.970   5.172   2.349  1.6229 -1.1566 -1.1109
 7399TIP3    H246393   2.944   5.046   2.428 -0.4969  0.5270  1.0077
 7400TIP3   OH246394   3.796   2.766   0.997 -0.0094  0.3614 -0.2829
 7400TIP3    H146395   3.807   2.861   1.004  0.9183  0.2606 -0.2832
 7400TIP3    H246396   3.885   2.732   0.995 -0.3372 -0.5646  0.3856
 7401TIP3   OH246397   1.346   2.726   2.120 -0.4453  0.7703  0.2411
 7401TIP3    H146398   1.348   2.821   2.132  1.1730  0.8400 -0.4067
 7401TIP3    H246399   1.422   2.707   2.067 -0.0354 -1.0515  1.3959
 7402TIP3   OH246400   5.209   2.122   2.055  0.3976  0.2438 -0.2187
 7402TIP3    H146401   5.136   2.173   2.091 -0.4306 -0.4339 -0.8865
 7402TIP3    H246402   5.287   2.173   2.077 -0.4155  1.9726 -1.1393
 7403TIP3   OH246403   3.743   2.109   2.337  0.5141 -0.3515  0.2346
 7403TIP3    H146404   3.698   2.047   2.395  0.6614 -0.1207  0.5971
 7403TIP3    H246405   3.687   2.186   2.336  0.0687 -0.6710 -0.6247
 7404TIP3   OH246406   2.377   3.494   2.247 -0.1007  0.5025 -0.1188
 7404TIP3    H146407   2.286   3.511   2.271 -0.1935  0.5550 -0.5024
 7404TIP3    H246408   2.382   3.399   2.240  0.1516  0.4300  0.9828
 7405TIP3   OH246409   2.683   5.159   1.637  0.1890  0.2484  0.6210
 7405TIP3    H146410   2.637   5.218   1.577 -0.5512 -1.3352 -0.4440
 7405TIP3    H246411   2.775   5.171   1.615  0.0480  0.9387  0.3620
 7406TIP3   OH246412   3.868   1.319   2.783  0.2255 -0.7564  0.2534
 7406TIP3    H146413   3.883   1.224   2.784 -1.3338 -1.0349  0.0070
 7406TIP3    H246414   3.908   1.350   2.864  2.8678 -1.2164 -0.7468
 7407TIP3   OH246415   6.186   4.383   2.349  0.3106 -0.1110 -0.5382
 7407TIP3    H146416   6.144   4.468   2.360  0.2450 -0.3766  1.9165
 7407TIP3    H246417   6.179   4.364   2.256  1.1317  2.9424 -1.3196
 7408TIP3   OH246418   6.180   3.748   2.306  0.2816 -0.3024  0.4770
 7408TIP3    H146419   6.108   3.700   2.347 -0.4121 -0.8918 -1.3385
 7408TIP3    H246420   6.230   3.681   2.260 -1.0048  0.6442 -2.5551
 7409TIP3   OH246421   6.688   2.686   3.314 -0.2599  0.0264  0.0289
 7409TIP3    H146422   6.715   2.609   3.264 -0.0681  0.7090 -0.9458
 7409TIP3    H246423   6.742   2.758   3.280 -0.7975  0.6982  0.5548
 7410TIP3   OH246424   2.760   6.000   3.636 -0.2695  0.3684  0.3029
 7410TIP3    H146425   2.846   5.958   3.640 -0.7294 -0.9482 -1.8575
 7410TIP3    H246426   2.700   5.933   3.667 -0.7228  0.4753 -0.3269
 7411TIP3   OH246427   6.088   6.008   1.613 -0.0523 -0.5339  0.2024
 7411TIP3    H146428   6.005   6.050   1.590 -0.7527 -1.6479  0.6052
 7411TIP3    H246429   6.118   6.054   1.691 -1.2637 -1.3269  1.1651
 7412TIP3   OH246430   1.857   4.949   1.401 -0.4042 -0.1507 -0.4013
 7412TIP3    H146431   1.820   4.971   1.487  0.8274 -0.2408  0.1700
 7412TIP3    H246432   1.858   5.031   1.354  0.0438  0.1538  0.1236
 7413TIP3   OH246433   5.131   0.236   2.381  0.0222  0.8435 -0.2698
 7413TIP3    H146434   5.214   0.266   2.420  0.1832  0.0091  0.0391
 7413TIP3    H246435   5.074   0.313   2.386  0.3172  1.0122  0.8471
 7414TIP3   OH246436   5.687   6.518   1.152  0.6780 -0.1418 -0.1500
 7414TIP3    H146437   5.698   6.534   1.058 -0.5908 -0.3731 -0.3661
 7414TIP3    H246438   5.720   6.597   1.195  1.2567 -0.0308 -0.7924
 7415TIP3   OH246439   1.632   3.576   1.747 -0.3048  0.2903 -0.1643
 7415TIP3    H146440   1.646   3.544   1.836  1.0166 -0.8075 -0.7393
 7415TIP3    H246441   1.545   3.544   1.723 -0.0174 -0.7645  0.1720
 7416TIP3   OH246442   4.911   6.372   3.563 -0.3339  0.2873 -0.0234
 7416TIP3    H146443   4.901   6.306   3.495  1.4917  0.0035 -0.0444
 7416TIP3    H246444   4.832   6.363   3.617 -0.9405 -0.6930 -1.0327
 7417TIP3   OH246445   6.465   4.584   0.977 -0.2466  0.1418 -0.5496
 7417TIP3    H146446   6.472   4.489   0.990  2.8297  0.0795 -1.9568
 7417TIP3    H246447   6.397   4.611   1.039  0.8669 -2.5668  2.0973
 7418TIP3   OH246448   2.583   5.857   2.024  0.2792 -0.6952 -0.0243
 7418TIP3    H146449   2.563   5.804   1.947  1.7379 -0.8046 -0.3581
 7418TIP3    H246450   2.574   5.947   1.994 -1.1682 -0.7092  0.2632
 7419TIP3   OH246451   1.428   4.969   1.589  0.4497  0.5020  0.5340
 7419TIP3    H146452   1.359   5.018   1.635  0.9057  5.3327 -3.1573
 7419TIP3    H246453   1.380   4.909   1.531 -0.5314  1.4102  0.3775
 7420TIP3   OH246454   0.554   3.197   1.468  0.0839  0.2635 -0.0026
 7420TIP3    H146455   0.574   3.223   1.558 -0.6491 -1.4708  0.7036
 7420TIP3    H246456   0.506   3.272   1.432  0.2811  0.9390  1.0886
 7421TIP3   OH246457   2.326   2.846   1.319 -0.3942  0.0836  0.1528
 7421TIP3    H146458   2.349   2.823   1.409 -1.4846 -1.7015  0.0340
 7421TIP3    H246459   2.279   2.929   1.327  0.6788  0.6299  1.0575
 7422TIP3   OH246460   3.238   2.048   3.848  0.4415  0.6277 -0.4637
 7422TIP3    H146461   3.242   2.090   3.934  0.2949 -0.8612  0.3047
 7422TIP3    H246462   3.157   2.081   3.809  1.1845  2.3487 -0.6152
 7423TIP3   OH246463   0.790   6.437   2.589  0.2484 -0.4621  0.0009
 7423TIP3    H146464   0.822   6.402   2.506  0.7310  0.3073 -0.1528
 7423TIP3    H246465   0.767   6.360   2.640 -0.3514 -0.9361 -0.9571
 7424TIP3   OH246466   0.055   3.362   0.885  0.0959  0.0470  0.1442
 7424TIP3    H146467   0.029   3.346   0.976  0.6730 -0.6276  0.1893
 7424TIP3    H246468   0.078   3.455   0.884 -1.8900  0.5980  0.1990
 7425TIP3   OH246469   4.993   0.238   3.392 -0.5511  0.7586  0.0445
 7425TIP3    H146470   4.958   0.181   3.460  0.4339  2.2395  1.8965
 7425TIP3    H246471   5.032   0.179   3.327 -1.0256 -0.6826  1.0412
 7426TIP3   OH246472   5.817   6.282   1.210 -0.3696 -0.3765  0.2938
 7426TIP3    H146473   5.876   6.326   1.272  0.9639 -2.8329  0.9003
 7426TIP3    H246474   5.758   6.351   1.180  0.4167  1.4040  2.5398
 7427TIP3   OH246475   2.882   1.371   3.148 -0.0132  0.4394  0.6862
 7427TIP3    H146476   2.922   1.457   3.158  0.9802  0.8331 -4.1174
 7427TIP3    H246477   2.937   1.313   3.201  1.9694  2.1578  0.6396
 7428TIP3   OH246478   2.987   4.022   2.009  0.2970  0.2098  0.3862
 7428TIP3    H146479   3.057   4.010   1.944 -0.9010  0.4675 -1.0092
 7428TIP3    H246480   3.029   4.072   2.079  1.5971  0.0898 -0.2648
 7429TIP3   OH246481   1.243   3.919   2.237  0.0275 -0.1856 -0.0809
 7429TIP3    H146482   1.326   3.891   2.200  0.6455 -0.1604  1.2330
 7429TIP3    H246483   1.196   3.837   2.255 -0.4515 -0.1914 -1.2352
 7430TIP3   OH246484   1.894   6.122   0.919  0.1985 -0.1936 -0.3552
 7430TIP3    H146485   1.808   6.123   0.877  1.0844  0.7740 -2.2242
 7430TIP3    H246486   1.894   6.200   0.974  0.2209  0.3382 -1.0976
 7431TIP3   OH246487   3.825   0.381   2.179 -0.1176  0.1678  0.9062
 7431TIP3    H146488   3.748   0.427   2.146 -0.5634 -1.2825 -0.2401
 7431TIP3    H246489   3.899   0.423   2.136 -0.5824 -0.6988 -0.8398
 7432TIP3   OH246490   3.524   1.909   3.143  0.0444  0.0396 -0.2881
 7432TIP3    H146491   3.615   1.933   3.130  0.1263  0.2182  0.5233
 7432TIP3    H246492   3.479   1.937   3.064  0.4921  1.0501 -0.1911
 7433TIP3   OH246493   0.659   4.668   3.675 -0.3190 -0.1056 -0.3990
 7433TIP3    H146494   0.725   4.734   3.692 -2.0113  1.6305 -0.1952
 7433TIP3    H246495   0.590   4.714   3.626 -0.9074 -2.0884 -1.5830
 7434TIP3   OH246496   2.343   5.547   1.162  0.2936  0.1957 -0.1335
 7434TIP3    H146497   2.347   5.627   1.214  0.6554  0.8371 -1.1306
 7434TIP3    H246498   2.297   5.572   1.082 -1.1806 -1.0197  0.2691
 7435TIP3   OH246499   3.991   4.041   2.649  0.0258  0.1018  0.5719
 7435TIP3    H146500   4.084   4.040   2.626 -0.1718 -0.4850 -0.2265
 7435TIP3    H246501   3.976   3.956   2.691 -0.8041 -1.1693 -2.0936
 7436TIP3   OH246502   4.393   1.979   0.822 -0.0774 -0.3332  0.1500
 7436TIP3    H146503   4.377   2.027   0.904  0.7677  1.0499 -0.4639
 7436TIP3    H246504   4.457   1.913   0.846 -1.0630 -1.0426  0.9545
 7437TIP3   OH246505   2.786   2.272   3.819 -0.3043  0.1995  0.0720
 7437TIP3    H146506   2.856   2.211   3.793  0.6608 -0.1441  3.1278
 7437TIP3    H246507   2.830   2.336   3.874 -2.4691 -0.5088  2.8259
 7438TIP3   OH246508   2.212   0.225   2.271  0.1615 -0.4465 -0.2738
 7438TIP3    H146509   2.139   0.287   2.278  3.0283  3.2502  0.0893
 7438TIP3    H246510   2.208   0.194   2.181 -0.9647  0.9084 -0.7369
 7439TIP3   OH246511   1.409   0.043   1.440 -0.4240 -0.3222  0.0403
 7439TIP3    H146512   1.323   0.056   1.479 -0.7756  0.0599 -0.8468
 7439TIP3    H246513   1.392  -0.003   1.358  0.2442 -0.4787 -0.0152
 7440TIP3   OH246514   6.055   2.373   3.862 -0.3991 -0.1480  0.0315
 7440TIP3    H146515   6.092   2.454   3.898 -0.1784 -0.3977  0.3727
 7440TIP3    H246516   6.054   2.312   3.936 -1.3813 -0.1881 -0.0073
 7441TIP3   OH246517   2.222   6.618   2.153 -0.1085  0.2547  0.1733
 7441TIP3    H146518   2.239   6.676   2.227 -0.3513  0.7237 -0.1333
 7441TIP3    H246519   2.179   6.542   2.192 -0.4558  0.6033  0.4887
 7442TIP3   OH246520   3.457   2.606   1.158 -0.0230  0.4139  0.0990
 7442TIP3    H146521   3.532   2.575   1.208  0.0411 -0.8877 -0.7382
 7442TIP3    H246522   3.398   2.530   1.155 -1.2015  1.2922  0.4081
 7443TIP3   OH246523   2.439   1.007   0.774  0.3413 -0.2758  0.0892
 7443TIP3    H146524   2.447   1.052   0.690 -1.7133  0.6517  0.3415
 7443TIP3    H246525   2.375   0.937   0.758 -1.6436  1.1567  1.2919
 7444TIP3   OH246526   3.009   5.637   3.291  0.1656  0.5396  0.1548
 7444TIP3    H146527   3.000   5.599   3.204  2.7954  2.6537 -1.1817
 7444TIP3    H246528   2.962   5.720   3.286 -0.3107  0.3429  1.0449
 7445TIP3   OH246529   4.144   6.591   0.998  0.3399 -0.2462 -0.1936
 7445TIP3    H146530   4.216   6.642   0.960  0.1814  0.3564  0.2806
 7445TIP3    H246531   4.074   6.597   0.933  0.0974  0.7081  0.1366
 7446TIP3   OH246532   4.176   1.817   1.950  0.0527 -0.0805 -0.7406
 7446TIP3    H146533   4.247   1.881   1.949  0.2438 -0.3007 -1.0575
 7446TIP3    H246534   4.103   1.864   1.991  0.6009 -0.0939  0.2807
 7447TIP3   OH246535   4.460   3.367   2.742 -0.2000  0.1639 -0.1439
 7447TIP3    H146536   4.374   3.394   2.709 -0.4874  0.9999  1.2045
 7447TIP3    H246537   4.518   3.375   2.667 -1.4740 -1.4962 -1.3994
 7448TIP3   OH246538   1.341   4.478   2.133 -0.5481 -0.2163 -0.0244
 7448TIP3    H146539   1.417   4.533   2.114  1.0433 -3.0923 -3.0523
 7448TIP3    H246540   1.270   4.540   2.152  1.6587  2.7209 -0.7275
 7449TIP3   OH246541   6.413   1.988   3.622  0.0749 -0.0810  0.3255
 7449TIP3    H146542   6.424   2.061   3.683  0.4493 -0.3704  0.6127
 7449TIP3    H246543   6.385   1.914   3.677 -1.5960  0.1653 -0.1419
 7450TIP3   OH246544   2.230   2.051   1.929 -0.2456  0.1714 -0.0792
 7450TIP3    H146545   2.205   2.141   1.911 -1.2775 -0.1445 -0.2722
 7450TIP3    H246546   2.247   2.012   1.843  0.0981  0.1419 -0.0027
 7451TIP3   OH246547   4.105   1.758   2.991 -0.0952  0.0508  0.0603
 7451TIP3    H146548   4.028   1.716   3.029 -0.1102 -1.4169 -1.4544
 7451TIP3    H246549   4.139   1.815   3.061 -0.4955 -1.9502  1.9844
 7452TIP3   OH246550   5.797   3.338   1.869  0.7530  0.1978  0.0869
 7452TIP3    H146551   5.772   3.260   1.918  2.5416 -0.2844  0.2982
 7452TIP3    H246552   5.735   3.341   1.796 -1.2409  0.3131  1.7053
 7453TIP3   OH246553   4.604   1.689   1.360  0.2074 -0.3393 -0.3647
 7453TIP3    H146554   4.589   1.596   1.347  0.5131 -0.5844  0.8802
 7453TIP3    H246555   4.649   1.718   1.281  0.4648 -1.3267 -0.5914
 7454TIP3   OH246556   1.633   3.312   1.483  0.2746  0.1099 -0.8470
 7454TIP3    H146557   1.572   3.382   1.503 -0.9250 -1.0150 -0.4627
 7454TIP3    H246558   1.703   3.321   1.548 -1.4611 -0.9400  1.2922
 7455TIP3   OH246559   5.926   0.078   2.892 -0.1941  0.0889 -0.7176
 7455TIP3    H146560   5.833   0.098   2.892 -0.0763  0.6903  0.4262
 7455TIP3    H246561   5.932  -0.007   2.848 -1.4526 -0.6902  0.5307
 7456TIP3   OH246562   4.274   1.284   3.704 -0.0849 -0.5812 -0.0919
 7456TIP3    H146563   4.250   1.207   3.652 -0.9192 -1.0505  0.9526
 7456TIP3    H246564   4.191   1.328   3.722  0.1516 -0.5453  1.0017
 7457TIP3   OH246565   3.923   1.421   1.035  0.1298 -0.5818 -0.4637
 7457TIP3    H146566   3.962   1.339   1.065 -0.3036 -1.0449 -1.1158
 7457TIP3    H246567   3.844   1.394   0.988 -0.6194  0.2790  0.2392
 7458TIP3   OH246568   1.277   2.290   2.308 -0.2783  0.2874 -0.1376
 7458TIP3    H146569   1.233   2.374   2.305  1.3929  1.1637 -1.9178
 7458TIP3    H246570   1.329   2.293   2.389 -1.0370  0.5090  0.3512
 7459TIP3   OH246571   1.203   3.169   1.353  0.3582 -0.4185  0.5248
 7459TIP3    H146572   1.296   3.145   1.357  1.2292  2.4332 -0.0173
 7459TIP3    H246573   1.195   3.220   1.273 -1.7635 -0.7748  0.4578
 7460TIP3   OH246574   4.567   1.078   1.000  0.1033  0.1814 -0.6110
 7460TIP3    H146575   4.621   1.133   1.056 -1.2711 -0.9910  2.0588
 7460TIP3    H246576   4.582   0.989   1.032 -1.7624 -0.3966 -1.1988
 7461TIP3   OH246577   6.677   4.877   1.764  0.4980  0.1105  0.6354
 7461TIP3    H146578   6.751   4.889   1.704 -0.4985 -0.5053 -0.7897
 7461TIP3    H246579   6.617   4.948   1.741 -0.6074 -1.0705 -0.2776
 7462TIP3   OH246580   3.066   3.153   3.416 -0.2841  0.8982 -0.0915
 7462TIP3    H146581   3.081   3.174   3.508  0.7064  2.1159 -0.4959
 7462TIP3    H246582   3.015   3.072   3.417 -2.6676  2.2875  1.5880
 7463TIP3   OH246583   4.241   4.512   0.952  0.4210  0.1107  0.4527
 7463TIP3    H146584   4.168   4.574   0.944  1.3006  1.0125 -0.8093
 7463TIP3    H246585   4.243   4.490   1.046 -0.7762  0.9011  0.6880
 7464TIP3   OH246586   1.424   4.945   2.166 -0.3719  0.1360 -0.3170
 7464TIP3    H146587   1.482   4.949   2.242 -0.5631  3.1331 -0.1890
 7464TIP3    H246588   1.431   4.855   2.134  1.5823 -0.5426  1.7861
 7465TIP3   OH246589   1.912   2.907   2.449 -0.0106 -0.1121  0.0783
 7465TIP3    H146590   2.002   2.935   2.466  1.0783 -2.4968 -1.2362
 7465TIP3    H246591   1.903   2.913   2.354 -2.0256  2.0926  0.3292
 7466TIP3   OH246592   2.128   0.819   3.771  0.2688  0.1266  0.2504
 7466TIP3    H146593   2.200   0.814   3.833 -0.4866 -1.4105  1.0458
 7466TIP3    H246594   2.108   0.913   3.765  0.9318  0.3779  1.6487
 7467TIP3   OH246595   3.163   0.035   2.156  0.6034 -0.1726  0.2420
 7467TIP3    H146596   3.115  -0.047   2.170  1.4252 -0.7896 -0.4716
 7467TIP3    H246597   3.210   0.050   2.238  0.0821 -0.1626  0.5410
 7468TIP3   OH246598   1.658   5.249   1.544 -0.3660 -0.4332  0.1778
 7468TIP3    H146599   1.626   5.220   1.458  0.5417 -1.2856  0.1117
 7468TIP3    H246600   1.605   5.200   1.607  0.0456 -1.0252  0.0772
 7469TIP3   OH246601   4.070   4.247   3.485 -0.3571  0.5091 -0.5255
 7469TIP3    H146602   4.004   4.241   3.553  0.0989  1.2539 -0.0025
 7469TIP3    H246603   4.146   4.285   3.528  0.5824 -0.7485 -0.9995
 7470TIP3   OH246604   2.514   1.560   3.143  0.3648  0.2412 -0.2690
 7470TIP3    H146605   2.526   1.599   3.057 -0.3952  0.8273 -0.1164
 7470TIP3    H246606   2.456   1.485   3.128  2.3849 -1.3296 -0.6758
 7471TIP3   OH246607   0.231   2.553   1.474  0.2790 -0.3933  0.4431
 7471TIP3    H146608   0.167   2.482   1.481  0.4427 -0.5641  0.2167
 7471TIP3    H246609   0.232   2.576   1.381  1.2136 -1.0143  0.2813
 7472TIP3   OH246610   2.374   5.480   2.404  0.4563  0.3112  0.1156
 7472TIP3    H146611   2.413   5.477   2.317 -0.7336 -0.3386 -0.4189
 7472TIP3    H246612   2.364   5.574   2.423  0.2605  0.4481 -0.6539
 7473TIP3   OH246613   5.082   1.512   2.226 -0.5392  0.4548 -0.2924
 7473TIP3    H146614   5.043   1.558   2.152 -1.4191  0.9132  0.4305
 7473TIP3    H246615   5.009   1.465   2.266 -0.5254  1.7395  1.3912
 7474TIP3   OH246616   4.305   4.476   1.210  0.6562 -0.4433  0.1670
 7474TIP3    H146617   4.228   4.461   1.265 -0.0630 -0.7743 -0.8867
 7474TIP3    H246618   4.350   4.550   1.251 -1.7875  1.7053 -0.7232
 7475TIP3   OH246619   4.339   5.091   2.311 -0.4021  0.6346  0.6718
 7475TIP3    H146620   4.328   5.059   2.221 -0.9169  0.3669  0.8219
 7475TIP3    H246621   4.392   5.023   2.353 -1.7041 -0.1760  1.0573
 7476TIP3   OH246622   2.922   5.263   1.228  0.4647  0.5657 -0.1393
 7476TIP3    H146623   2.908   5.284   1.136  1.3847 -0.4640 -0.5342
 7476TIP3    H246624   2.835   5.238   1.260  0.3918 -0.6315 -1.1639
 7477TIP3   OH246625   3.783   1.683   2.168  0.3871 -0.0120  0.0306
 7477TIP3    H146626   3.764   1.775   2.185 -2.5102 -0.5634  0.2456
 7477TIP3    H246627   3.843   1.658   2.239  0.7187  1.5234  0.3289
 7478TIP3   OH246628   4.884   2.927   4.042  0.2411 -0.0301 -0.4357
 7478TIP3    H146629   4.878   3.022   4.030 -0.7973  0.1447  1.1367
 7478TIP3    H246630   4.813   2.891   3.990 -0.0255  0.1505 -0.2002
 7479TIP3   OH246631   5.070   0.517   8.918  0.3443  0.0954  0.4085
 7479TIP3    H146632   5.005   0.451   8.892  0.6545 -0.4861  1.0898
 7479TIP3    H246633   5.024   0.600   8.906 -0.0784 -0.2327 -0.3995
 7480TIP3   OH246634   1.165   6.622   0.942  0.3130 -0.6161  0.5666
 7480TIP3    H146635   1.258   6.613   0.964  1.1355 -1.0452 -2.6113
 7480TIP3    H246636   1.148   6.551   0.880 -2.5030 -1.2564  1.8953
 7481TIP3   OH246637   3.325   1.921   1.731  0.1217 -0.3746 -0.0673
 7481TIP3    H146638   3.368   1.915   1.646  1.5809 -0.5513  0.6601
 7481TIP3    H246639   3.341   2.010   1.760 -0.8893 -0.1308 -0.2295
 7482TIP3   OH246640   4.703   2.101   3.439  0.1257 -0.2265 -0.1810
 7482TIP3    H146641   4.784   2.059   3.412 -0.2057 -0.3826 -0.9635
 7482TIP3    H246642   4.692   2.174   3.379  0.3576  0.6031  0.7592
 7483TIP3   OH246643   1.714   2.412   2.180 -0.4727  0.2047  0.5870
 7483TIP3    H146644   1.640   2.369   2.136 -0.3665  1.4395 -0.8755
 7483TIP3    H246645   1.789   2.355   2.163 -0.2391  1.1113 -1.7309
 7484TIP3   OH246646   0.655   4.279   1.174  0.0770 -0.5154  0.3997
 7484TIP3    H146647   0.562   4.297   1.187  0.1125  0.1231 -0.1798
 7484TIP3    H246648   0.698   4.315   1.252 -0.1864 -1.0828  0.8117
 7485TIP3   OH246649   0.017   6.732   3.214  0.6282 -0.0390 -0.1235
 7485TIP3    H146650  -0.075   6.713   3.195  0.1695  1.7290  0.1990
 7485TIP3    H246651   0.022   6.729   3.310  0.8588  0.0928 -0.1316
 7486TIP3   OH246652   6.124   0.531   1.590  0.2610  0.2979 -0.0416
 7486TIP3    H146653   6.140   0.625   1.598 -0.9164  0.4796  0.3556
 7486TIP3    H246654   6.196   0.491   1.639 -0.3401  1.0722  1.5481
 7487TIP3   OH246655   4.197   6.723   1.876 -0.9883 -0.1109  0.4867
 7487TIP3    H146656   4.165   6.790   1.935  0.0669  1.1142 -0.2932
 7487TIP3    H246657   4.153   6.741   1.793 -0.3857 -0.1149  0.1588
 7488TIP3   OH246658   1.920   5.654   1.983  0.1426 -0.8621 -0.1602
 7488TIP3    H146659   1.875   5.570   1.975 -0.7788 -0.4873  0.9293
 7488TIP3    H246660   1.979   5.656   1.907 -1.1838 -1.6541 -1.2703
 7489TIP3   OH246661   1.316   1.047   2.496 -0.3511  0.4096  0.6121
 7489TIP3    H146662   1.396   1.091   2.524  0.5353 -0.0683 -1.0688
 7489TIP3    H246663   1.269   1.112   2.444 -0.8143  0.5093  1.1370
 7490TIP3   OH246664   1.323   3.432   2.347  0.0791 -0.0938  0.0599
 7490TIP3    H146665   1.286   3.355   2.304  0.6694 -0.2482 -0.1845
 7490TIP3    H246666   1.253   3.463   2.405 -0.3470 -0.5046 -0.2256
 7491TIP3   OH246667   4.974   4.174   1.326 -0.6118 -0.0571  0.1826
 7491TIP3    H146668   4.988   4.104   1.262  0.5810  1.8892 -1.8594
 7491TIP3    H246669   5.001   4.253   1.280 -1.3124  1.6875  2.5918
 7492TIP3   OH246670   2.820   3.861   2.694 -0.4500  0.2398 -0.5947
 7492TIP3    H146671   2.786   3.948   2.716 -2.2292 -0.4074 -0.6194
 7492TIP3    H246672   2.808   3.810   2.774  1.2699  0.1700 -0.3435
 7493TIP3   OH246673   0.557   5.579   3.273 -0.4502 -0.0428 -0.4097
 7493TIP3    H146674   0.489   5.616   3.215  0.2270  0.8924 -0.6292
 7493TIP3    H246675   0.533   5.610   3.360 -1.0366 -0.8188 -0.2758
 7494TIP3   OH246676   4.544   1.393   3.656 -0.5924  0.6687 -0.2904
 7494TIP3    H146677   4.460   1.351   3.674 -0.8661  0.2137 -2.3496
 7494TIP3    H246678   4.539   1.477   3.702 -1.5547  0.0508  0.8126
 7495TIP3   OH246679   1.404   2.895   2.799 -0.3878 -0.0092 -0.0425
 7495TIP3    H146680   1.334   2.931   2.853 -1.5923 -0.2620 -1.3726
 7495TIP3    H246681   1.456   2.841   2.859 -0.6460  1.0876  1.2096
 7496TIP3   OH246682   1.818   6.812   2.090 -0.0684  0.2873  0.6126
 7496TIP3    H146683   1.844   6.871   2.160  0.6033  0.9168 -0.1311
 7496TIP3    H246684   1.810   6.869   2.013  1.4981 -0.6814 -0.3322
 7497TIP3   OH246685   1.444   4.629   2.939 -0.2418  0.0835 -0.2061
 7497TIP3    H146686   1.497   4.672   3.006 -0.1253 -2.2574  1.3162
 7497TIP3    H246687   1.394   4.700   2.900  2.8900  2.1964 -0.7410
 7498TIP3   OH246688   3.836   1.483   2.461 -0.2911 -0.2936  0.1077
 7498TIP3    H146689   3.809   1.428   2.387  0.1320 -0.1169 -0.1839
 7498TIP3    H246690   3.892   1.550   2.421  0.0148 -0.2534  0.6014
 7499TIP3   OH246691   5.605   1.084   2.687  0.3778 -0.0398 -0.2783
 7499TIP3    H146692   5.538   1.026   2.724 -0.0669  0.1134 -0.8401
 7499TIP3    H246693   5.677   1.025   2.664 -0.2082 -0.4273 -1.1609
 7500TIP3   OH246694   3.443   3.003   3.253 -0.5701  0.1847  0.3698
 7500TIP3    H146695   3.498   2.947   3.307  0.4325  0.7212 -0.0549
 7500TIP3    H246696   3.462   2.976   3.163 -1.0622  0.3261  0.2190
 7501TIP3   OH246697   5.757   3.173   1.449 -0.7060 -0.3079  0.7385
 7501TIP3    H146698   5.825   3.241   1.453 -0.5842 -0.4965  2.8413
 7501TIP3    H246699   5.674   3.221   1.451 -0.6190 -0.1932  2.1579
 7502TIP3   OH246700   2.977   1.989   1.678 -0.4614  0.4606 -0.3500
 7502TIP3    H146701   2.886   2.010   1.698 -0.8258  0.7297 -2.1495
 7502TIP3    H246702   2.978   1.975   1.584  1.7870  2.6234 -0.7456
 7503TIP3   OH246703   2.339   6.224   3.336  0.8140 -0.3380 -0.2908
 7503TIP3    H146704   2.270   6.196   3.276  1.1325 -1.1604 -0.2873
 7503TIP3    H246705   2.297   6.289   3.392 -0.4447 -2.0296  0.8129
 7504TIP3   OH246706   3.453   4.119   1.992  0.0392 -0.4333 -0.4615
 7504TIP3    H146707   3.440   4.031   2.027 -0.6078 -0.0538  0.2858
 7504TIP3    H246708   3.377   4.168   2.022  1.6536  1.0999  1.4417
 7505TIP3   OH246709   2.240   4.497   2.862 -0.3612  0.4303  0.2208
 7505TIP3    H146710   2.324   4.543   2.854 -0.5091  1.5163  3.4541
 7505TIP3    H246711   2.175   4.563   2.838 -0.4100 -0.2258 -1.6594
 7506TIP3   OH246712   0.891   2.301   1.652 -0.0025 -0.1630 -0.3687
 7506TIP3    H146713   0.946   2.232   1.690 -0.3504  0.1035  0.6387
 7506TIP3    H246714   0.816   2.307   1.711  0.6097  1.9259  0.2980
 7507TIP3   OH246715   6.195   0.833   1.814 -0.7723 -0.5377  0.1329
 7507TIP3    H146716   6.245   0.786   1.881  0.4276 -0.3747 -0.6220
 7507TIP3    H246717   6.261   0.883   1.766 -1.8581  0.8146  0.0150
 7508TIP3   OH246718   1.196   2.903   0.547 -0.8693  0.0798 -0.0916
 7508TIP3    H146719   1.217   2.951   0.467  0.6218  1.6426  1.1489
 7508TIP3    H246720   1.104   2.924   0.564 -0.7349  1.0960 -0.5205
 7509TIP3   OH246721   2.359   0.480   3.857 -0.1821 -0.5431 -0.5009
 7509TIP3    H146722   2.306   0.401   3.856 -1.7676  0.2882  3.0381
 7509TIP3    H246723   2.308   0.543   3.908  3.2798  1.0164  1.3999
 7510TIP3   OH246724   1.354   5.658   1.184  0.1704 -0.3781  0.1346
 7510TIP3    H146725   1.309   5.634   1.103  0.9857  0.9258 -0.7236
 7510TIP3    H246726   1.300   5.727   1.223  0.2967 -0.3241  0.2155
 7511TIP3   OH246727   5.443   3.819   0.808 -0.2841  0.4195  0.2046
 7511TIP3    H146728   5.386   3.787   0.737  0.4508  2.9864 -1.6904
 7511TIP3    H246729   5.531   3.820   0.770  0.1820  1.5437  1.2432
 7512TIP3   OH246730   1.365   5.578   2.533 -0.1715  0.1769 -1.1564
 7512TIP3    H146731   1.300   5.521   2.491 -1.4824  0.2516  0.6785
 7512TIP3    H246732   1.317   5.660   2.550  1.0886  1.0913 -1.8511
 7513TIP3   OH246733   0.654   3.570   2.576  0.8898 -0.2216  0.4384
 7513TIP3    H146734   0.712   3.643   2.558 -1.3043  1.2914 -1.0512
 7513TIP3    H246735   0.627   3.538   2.490 -0.0220 -1.2196  1.0642
 7514TIP3   OH246736   1.671   3.118   2.833 -0.0357 -0.2298  0.3765
 7514TIP3    H146737   1.639   3.056   2.768  0.6356 -0.3217  0.1222
 7514TIP3    H246738   1.592   3.159   2.868 -0.4543 -0.8267  0.1524
 7515TIP3   OH246739   4.010   0.281   0.589  0.2510 -0.2035  0.7166
 7515TIP3    H146740   3.918   0.300   0.572 -0.1389 -1.2079  1.6089
 7515TIP3    H246741   4.034   0.338   0.662  0.5645  0.6019  0.0018
 7516TIP3   OH246742   2.876   6.140   1.339 -0.2068 -0.0121  0.4086
 7516TIP3    H146743   2.907   6.051   1.356  0.1510  0.2643  1.2698
 7516TIP3    H246744   2.801   6.151   1.398 -0.2033  0.2774  0.3612
 7517TIP3   OH246745   0.080   3.541   3.163  0.0796  0.4628 -0.2942
 7517TIP3    H146746   0.138   3.523   3.089  0.3406  1.4722 -0.3534
 7517TIP3    H246747   0.131   3.599   3.220  0.3330 -1.2137  1.2848
 7518TIP3   OH246748   4.673   2.855   1.878  0.0928  0.2820  0.2813
 7518TIP3    H146749   4.640   2.945   1.875 -2.4968 -0.5768  0.7741
 7518TIP3    H246750   4.681   2.835   1.971  1.5001  0.2400  0.1746
 7519TIP3   OH246751   3.298   3.105   2.351 -0.1530  0.0880  0.1145
 7519TIP3    H146752   3.212   3.063   2.349 -0.5165  0.8345 -0.4171
 7519TIP3    H246753   3.340   3.071   2.430 -0.1285 -1.8647 -0.6909
 7520TIP3   OH246754   5.394   0.766   4.023  0.5865 -0.2330  0.0188
 7520TIP3    H146755   5.331   0.752   3.952  0.6901 -0.9613  0.0630
 7520TIP3    H246756   5.446   0.686   4.025 -0.3786 -0.8767  1.8933
 7521TIP3   OH246757   1.545   1.400   1.503  1.0651 -0.2638  0.5159
 7521TIP3    H146758   1.633   1.385   1.537  1.0126 -0.4695  0.5646
 7521TIP3    H246759   1.507   1.465   1.561  2.2669  2.2278 -1.3027
 7522TIP3   OH246760   5.427   1.861   1.218 -0.1124 -0.1612 -0.2197
 7522TIP3    H146761   5.367   1.912   1.163 -1.8534 -1.6051  0.2576
 7522TIP3    H246762   5.491   1.926   1.249 -1.6567  1.5467 -0.4214
 7523TIP3   OH246763   4.793   5.588   2.611  0.4555 -0.1161 -0.0863
 7523TIP3    H146764   4.784   5.663   2.553 -2.3290 -0.3481 -0.1084
 7523TIP3    H246765   4.843   5.621   2.686  0.3190  1.4096 -0.6381
 7524TIP3   OH246766   1.358   0.175   2.154 -0.1146  0.5990  0.4583
 7524TIP3    H146767   1.315   0.095   2.124  1.0745  0.4883 -1.0806
 7524TIP3    H246768   1.442   0.145   2.190  1.0567  1.2040 -1.5805
 7525TIP3   OH246769   1.669   1.158   0.600  0.8504  0.3780 -0.2052
 7525TIP3    H146770   1.635   1.231   0.548  1.0771  0.7962  0.2265
 7525TIP3    H246771   1.592   1.103   0.616  0.2862  1.4992  1.0623
 7526TIP3   OH246772   4.457   2.622   2.126 -0.0929 -0.0482  0.3594
 7526TIP3    H146773   4.512   2.611   2.204  0.0317 -0.9360  0.1597
 7526TIP3    H246774   4.411   2.704   2.140  3.6263  2.5010 -0.8780
 7527TIP3   OH246775   0.523   3.396   2.024 -0.0383  0.1843 -0.0884
 7527TIP3    H146776   0.547   3.398   1.932  1.2176  3.5080  0.1384
 7527TIP3    H246777   0.595   3.350   2.067  0.7059  0.9049 -0.5379
 7528TIP3   OH246778   2.145   1.569   2.586 -0.0614 -0.1090 -0.2590
 7528TIP3    H146779   2.201   1.551   2.510 -0.8445  0.0487 -0.8838
 7528TIP3    H246780   2.064   1.603   2.549  0.2124  1.7633  0.7276
 7529TIP3   OH246781   1.671   6.514   2.545 -0.2047  0.5613  0.5301
 7529TIP3    H146782   1.636   6.507   2.457 -0.8502  0.4946  0.7887
 7529TIP3    H246783   1.603   6.561   2.594  0.1560  0.6134  0.9867
 7530TIP3   OH246784   2.048   0.830   4.053  0.2409  0.2303  0.1112
 7530TIP3    H146785   2.125   0.775   4.066 -0.5440 -1.0161 -0.4198
 7530TIP3    H246786   2.070   0.885   3.978  0.1638 -0.9811 -0.8167
 7531TIP3   OH246787   3.402   1.588   2.972  0.3718  0.4016 -0.2056
 7531TIP3    H146788   3.317   1.600   2.932  0.4566  0.1551 -0.4602
 7531TIP3    H246789   3.389   1.612   3.064 -0.3322 -1.0260  0.0940
 7532TIP3   OH246790   1.194   4.009   1.466  0.7453 -0.3973 -0.3737
 7532TIP3    H146791   1.176   3.937   1.526 -1.9086 -0.2158 -0.8410
 7532TIP3    H246792   1.149   3.985   1.385  0.2220  1.5395 -0.7062
 7533TIP3   OH246793   1.286   0.778   1.929  0.7514  0.3705  0.3767
 7533TIP3    H146794   1.267   0.765   1.836 -0.3679  1.0051  0.4936
 7533TIP3    H246795   1.289   0.873   1.940 -1.0862  0.3576  1.3305
 7534TIP3   OH246796   1.579   2.249   1.509  0.2727 -0.0827 -0.1900
 7534TIP3    H146797   1.660   2.235   1.460  0.9633  0.6133  0.7134
 7534TIP3    H246798   1.535   2.164   1.507  3.0369 -1.8108  2.8455
 7535TIP3   OH246799   2.893   0.873   2.293  0.3318  0.7950  0.2850
 7535TIP3    H146800   2.839   0.801   2.326  1.0096  0.2757  0.2751
 7535TIP3    H246801   2.941   0.903   2.370  1.8712 -0.3802 -0.1726
 7536TIP3   OH246802   4.883   2.538   2.666 -0.3019 -0.4712  0.5370
 7536TIP3    H146803   4.797   2.579   2.658  0.2108  0.3736 -1.3061
 7536TIP3    H246804   4.891   2.516   2.758 -2.4806 -0.5512  0.7587
 7537TIP3   OH246805   3.567   3.491   2.753 -0.2238 -0.3590 -0.3220
 7537TIP3    H146806   3.524   3.530   2.677 -0.1183  3.1699  1.2295
 7537TIP3    H246807   3.513   3.519   2.827  2.3906  0.6524  1.3256
 7538TIP3   OH246808   3.128   6.244   2.097  0.0193 -0.3751  0.4122
 7538TIP3    H146809   3.221   6.248   2.079  0.2133  1.3984  1.5053
 7538TIP3    H246810   3.111   6.153   2.121  1.0769 -1.1308 -1.5579
 7539TIP3   OH246811   5.985   6.335   0.857 -0.7274 -0.4878  0.4792
 7539TIP3    H146812   6.059   6.358   0.801 -1.6562  1.6401 -0.0164
 7539TIP3    H246813   6.024   6.310   0.940  0.5525  1.2706  0.4644
 7540TIP3   OH246814   5.892   3.806   2.203 -0.2174  0.0213  0.1973
 7540TIP3    H146815   5.931   3.839   2.122  0.5853 -0.2489  0.4673
 7540TIP3    H246816   5.921   3.867   2.271  0.9349 -0.9578  0.6324
 7541TIP3   OH246817   1.543   1.984   3.968 -0.5869  0.2949  0.0981
 7541TIP3    H146818   1.480   2.054   3.986 -0.3653  0.8765 -1.2297
 7541TIP3    H246819   1.536   1.925   4.043 -2.6953  0.3569  0.0166
 7542TIP3   OH246820   3.246   2.422   3.649 -0.5510 -0.3920 -0.5298
 7542TIP3    H146821   3.234   2.513   3.621 -0.5220 -0.3302 -0.3396
 7542TIP3    H246822   3.323   2.424   3.705 -0.7521 -0.4752 -0.2457
 7543TIP3   OH246823   6.557   3.101   2.309  0.0526 -0.1360 -0.3889
 7543TIP3    H146824   6.573   3.092   2.215 -0.7745 -2.1192 -0.3901
 7543TIP3    H246825   6.516   3.019   2.334  0.9830  0.0188  1.8777
 7544TIP3   OH246826   4.564   2.187   1.227 -0.2622  0.6435 -0.0311
 7544TIP3    H146827   4.596   2.276   1.212 -0.6154  0.7884  0.0736
 7544TIP3    H246828   4.643   2.133   1.226 -0.1269  0.8469 -0.9212
 7545TIP3   OH246829   3.727   1.841   1.607  0.2417  0.6103 -0.2251
 7545TIP3    H146830   3.681   1.925   1.610  0.3557  0.6632  0.1570
 7545TIP3    H246831   3.747   1.822   1.699 -1.1073 -0.5666 -0.1486
 7546TIP3   OH246832   5.956   1.664   1.702 -0.1065  0.4278  0.3513
 7546TIP3    H146833   5.904   1.738   1.733 -0.4002 -0.1601  1.2882
 7546TIP3    H246834   6.009   1.638   1.777 -0.1520 -0.4384  0.0986
 7547TIP3   OH246835   2.405   4.956   2.427 -0.6492  0.2469  0.1527
 7547TIP3    H146836   2.383   5.004   2.507  0.0883 -0.0744  0.5542
 7547TIP3    H246837   2.479   5.004   2.390 -0.4141 -0.1251  0.1387
 7548TIP3   OH246838   0.375   2.298   2.030 -0.5564  0.5018 -0.1166
 7548TIP3    H146839   0.305   2.362   2.043  0.1541  1.1367  0.7105
 7548TIP3    H246840   0.441   2.345   1.979  0.0822  0.5141  0.7183
 7549TIP3   OH246841   0.856   0.318   0.614  1.1254  0.4065 -0.2278
 7549TIP3    H146842   0.858   0.226   0.640  0.8273  0.3233 -0.4945
 7549TIP3    H246843   0.815   0.318   0.528  0.6040  0.8522  0.0162
 7550TIP3   OH246844   0.514   3.066   0.542 -0.2739 -0.0898  0.2938
 7550TIP3    H146845   0.422   3.088   0.532 -0.8131 -1.9651  0.7021
 7550TIP3    H246846   0.553   3.144   0.581 -1.3708  1.2583 -1.2110
 7551TIP3   OH246847   4.465   0.949   2.252 -0.7531  0.4256  0.4280
 7551TIP3    H146848   4.375   0.932   2.223 -0.5717 -0.9324  0.5898
 7551TIP3    H246849   4.455   0.986   2.340 -1.2016  2.0323 -0.2656
 7552TIP3   OH246850   5.930   3.169   3.562  0.8615 -0.2054  0.6823
 7552TIP3    H146851   5.836   3.186   3.569  0.5028 -1.2493 -1.0367
 7552TIP3    H246852   5.962   3.235   3.502  0.4461 -2.1135 -1.7949
 7553TIP3   OH246853   5.846   2.906   3.390  0.2269 -0.0074  0.3553
 7553TIP3    H146854   5.838   2.912   3.485 -1.7829 -0.5898  0.2691
 7553TIP3    H246855   5.776   2.961   3.356  0.5245 -0.2966 -0.7878
 7554TIP3   OH246856   1.027   3.857   0.785 -1.3624 -0.3352 -0.4363
 7554TIP3    H146857   1.046   3.831   0.875 -0.5215  0.5664 -0.3329
 7554TIP3    H246858   0.938   3.825   0.769 -1.6338 -0.2529  0.7998
 7555TIP3   OH246859   1.494   0.348   2.014  0.2000 -0.1368 -0.2976
 7555TIP3    H146860   1.432   0.284   2.049 -0.0002  0.6763  0.9272
 7555TIP3    H246861   1.500   0.415   2.083  1.0294  0.7344 -1.1836
 7556TIP3   OH246862   5.945   0.903   1.941 -0.4616  0.3075  0.2543
 7556TIP3    H146863   6.025   0.870   1.900 -0.6287 -0.5628  0.6165
 7556TIP3    H246864   5.977   0.961   2.011 -0.1641  0.6812 -0.1880
 7557TIP3   OH246865   1.649   5.243   2.392  0.6671  0.3043 -0.3962
 7557TIP3    H146866   1.676   5.197   2.471 -1.4650  1.1750  0.9240
 7557TIP3    H246867   1.560   5.213   2.376  0.4684  1.4045 -1.5042
 7558TIP3   OH246868   3.216   0.142   3.799  0.0301 -0.1374  0.4840
 7558TIP3    H146869   3.146   0.079   3.816 -1.1328  1.1616  0.7165
 7558TIP3    H246870   3.173   0.227   3.808  2.1049  0.7712  2.7683
 7559TIP3   OH246871   3.189   5.778   1.800  0.3569 -0.0290 -0.4070
 7559TIP3    H146872   3.225   5.703   1.849  0.6393 -0.6766 -1.5515
 7559TIP3    H246873   3.110   5.803   1.848  0.5665 -0.7036  0.3134
 7560TIP3   OH246874   1.180   1.288   3.574 -0.0788  0.3117 -0.8046
 7560TIP3    H146875   1.174   1.192   3.576 -0.3414  0.3282 -0.8291
 7560TIP3    H246876   1.175   1.314   3.666  1.7555  0.1963 -0.6345
 7561TIP3   OH246877   5.264   5.110   1.732  0.0619 -0.1430  0.4744
 7561TIP3    H146878   5.254   5.125   1.638  1.0029  0.0114  0.3885
 7561TIP3    H246879   5.306   5.189   1.765  0.2577 -0.4315  0.9254
 7562TIP3   OH246880   6.155   0.783   3.487  0.2007  0.2939  0.3128
 7562TIP3    H146881   6.113   0.867   3.469  0.0732  0.1458 -0.0914
 7562TIP3    H246882   6.217   0.771   3.415 -0.7936 -0.6189 -0.4148
 7563TIP3   OH246883   5.244   6.612   0.787 -0.8148  0.1195 -0.2622
 7563TIP3    H146884   5.254   6.572   0.873 -0.5080 -0.9473 -0.7818
 7563TIP3    H246885   5.151   6.635   0.782 -1.1863 -1.3227 -0.2887
 7564TIP3   OH246886   4.258   2.865   1.735 -0.1428 -0.0496 -0.1651
 7564TIP3    H146887   4.190   2.931   1.749  1.1293  1.2451  0.2153
 7564TIP3    H246888   4.328   2.912   1.689  1.4838 -0.6827  1.5265
 7565TIP3   OH246889   5.627   3.886   2.154  0.0998  0.3388 -0.4149
 7565TIP3    H146890   5.622   3.979   2.176  1.9488  0.6946 -1.3446
 7565TIP3    H246891   5.715   3.860   2.182 -0.5098 -1.2440  0.1510
 7566TIP3   OH246892   5.312   1.880   2.698  0.1438 -0.3407  0.2524
 7566TIP3    H146893   5.316   1.803   2.641 -0.9472  0.6773 -1.2935
 7566TIP3    H246894   5.321   1.845   2.787  0.9945 -2.0844 -0.4850
 7567TIP3   OH246895   3.048   0.715   0.588 -0.9508  0.0039  0.1069
 7567TIP3    H146896   3.057   0.713   0.684 -0.8636 -0.3014  0.0924
 7567TIP3    H246897   3.127   0.760   0.558 -0.5230 -0.7228  0.1212
 7568TIP3   OH246898   1.210   1.041   3.701 -0.1937 -0.5019 -0.0546
 7568TIP3    H146899   1.240   0.981   3.632  0.2837  0.0407 -0.3323
 7568TIP3    H246900   1.171   0.984   3.767  4.0494 -1.6678  1.7834
 7569TIP3   OH246901   5.467   2.760   1.287  0.6982  0.4842  0.2019
 7569TIP3    H146902   5.470   2.806   1.203  1.2825  2.2099  1.1103
 7569TIP3    H246903   5.553   2.775   1.327  0.9074 -1.4317  0.5749
 7570TIP3   OH246904   3.573   5.735   2.734  0.2334 -0.1192  0.3205
 7570TIP3    H146905   3.631   5.672   2.777 -2.1010 -3.2336 -0.7606
 7570TIP3    H246906   3.493   5.734   2.787 -0.6477  0.2269 -0.9602
 7571TIP3   OH246907   5.112   4.002   1.808 -0.2010 -0.0350  0.0847
 7571TIP3    H146908   5.083   3.920   1.850  1.4479 -0.4528  0.4931
 7571TIP3    H246909   5.110   3.983   1.715  0.3988 -0.6458  0.1863
 7572TIP3   OH246910   6.422   4.976   2.002  0.1671  0.0546  0.0402
 7572TIP3    H146911   6.337   5.010   1.973 -0.0878 -1.0296 -0.5120
 7572TIP3    H246912   6.403   4.934   2.086  0.2535  0.2186  0.1430
 7573TIP3   OH246913   3.978   5.075   2.784  0.0031  0.1203  0.1727
 7573TIP3    H146914   4.059   5.121   2.761  0.0068  0.1358  0.2164
 7573TIP3    H246915   3.912   5.110   2.724  0.2648 -0.6832 -0.6123
 7574TIP3   OH246916   4.656   3.684   3.248  0.1942  0.1732  0.4435
 7574TIP3    H146917   4.658   3.594   3.216  0.8529  0.2879  0.1518
 7574TIP3    H246918   4.573   3.691   3.295 -0.3968 -0.2457 -0.5085
 7575TIP3   OH246919   1.942   3.532   1.321  0.0923 -0.0739  0.2036
 7575TIP3    H146920   1.852   3.549   1.293  0.4466 -1.4715 -1.9829
 7575TIP3    H246921   1.940   3.440   1.350  0.6264  0.1641  1.0124
 7576TIP3   OH246922   1.236   1.889   1.751 -0.3917  0.1203 -0.1468
 7576TIP3    H146923   1.252   1.871   1.658  0.5456  0.6826 -0.1160
 7576TIP3    H246924   1.313   1.853   1.796 -1.8990 -2.2703  0.7036
 7577TIP3   OH246925   1.172   2.774   1.825  0.5642 -1.0499 -0.1003
 7577TIP3    H146926   1.109   2.762   1.754  1.3072  0.5650 -1.0778
 7577TIP3    H246927   1.179   2.868   1.836  2.2188 -1.2113  0.5217
 7578TIP3   OH246928   5.850   5.228   1.300  0.6070  0.4713 -0.8790
 7578TIP3    H146929   5.757   5.211   1.311  0.5989  1.0728  0.0966
 7578TIP3    H246930   5.865   5.223   1.206 -0.8628  2.5675 -1.2979
 7579TIP3   OH246931   5.327   6.016   2.985 -0.7457 -0.0099 -0.0869
 7579TIP3    H146932   5.356   6.080   2.920  1.3743 -0.7151  0.0856
 7579TIP3    H246933   5.393   5.946   2.981 -3.1775 -2.4694 -0.5995
 7580TIP3   OH246934   0.620   0.716   1.035  0.1837 -0.0498  0.7977
 7580TIP3    H146935   0.700   0.708   0.982  0.0765  1.8296  0.2771
 7580TIP3    H246936   0.644   0.778   1.104 -0.1472 -1.3021  2.0801
 7581TIP3   OH246937   0.327   6.403   2.087  0.4175  0.3060  0.7247
 7581TIP3    H146938   0.323   6.308   2.103  1.2897 -0.0210 -0.7546
 7581TIP3    H246939   0.415   6.417   2.051 -0.9470  1.0135 -2.7198
 7582TIP3   OH246940   6.237   5.439   2.170  0.0062  0.2513  0.1393
 7582TIP3    H146941   6.224   5.477   2.257  1.1435  0.1785  0.3510
 7582TIP3    H246942   6.296   5.365   2.184  0.7896  0.6805 -0.7847
 7583TIP3   OH246943   1.296   2.817   3.422 -0.2371  0.2183  0.6087
 7583TIP3    H146944   1.388   2.835   3.443 -0.0467  0.1463 -0.1703
 7583TIP3    H246945   1.296   2.732   3.378 -1.0203 -1.3029  3.2667
 7584TIP3   OH246946   3.938   1.471   0.763 -0.6026  0.4164  0.1560
 7584TIP3    H146947   3.960   1.544   0.706  0.3268 -0.1473 -0.2298
 7584TIP3    H246948   3.961   1.501   0.851 -0.6975  0.7591  0.0650
 7585TIP3   OH246949   1.248   4.804   1.809  0.3998 -0.1308 -0.5175
 7585TIP3    H146950   1.329   4.838   1.771  0.7530 -0.2790  0.0924
 7585TIP3    H246951   1.259   4.709   1.806 -0.9213 -0.2770 -2.9638
 7586TIP3   OH246952   3.408   2.262   0.311  0.0174  0.4500  0.4355
 7586TIP3    H146953   3.392   2.231   0.222  0.8513  1.0815  0.0502
 7586TIP3    H246954   3.390   2.187   0.367 -4.5347  1.0357  0.1528
 7587TIP3   OH246955   0.005   4.882   1.566 -0.0205 -0.3378  0.2614
 7587TIP3    H146956  -0.057   4.876   1.493 -0.0361 -2.0660  0.3851
 7587TIP3    H246957   0.069   4.812   1.549  0.4301 -0.2459  1.4887
 7588TIP3   OH246958   3.750   0.468   1.096 -0.4097 -0.6573  0.0759
 7588TIP3    H146959   3.680   0.470   1.031  0.4104 -3.1586 -1.0220
 7588TIP3    H246960   3.719   0.405   1.162 -0.2840  0.1907  0.9569
 7589TIP3   OH246961   6.668   6.588   3.096 -0.5377 -0.2383  0.5314
 7589TIP3    H146962   6.637   6.581   3.186  0.7529  0.4798  1.0677
 7589TIP3    H246963   6.616   6.659   3.058  0.4742  1.0459  1.4548
 7590TIP3   OH246964   0.145   4.879   0.702 -0.0816  0.3175 -0.1005
 7590TIP3    H146965   0.175   4.962   0.740  0.5953  0.1302 -0.2077
 7590TIP3    H246966   0.160   4.815   0.771  0.3219  0.1242 -0.3647
 7591TIP3   OH246967   3.625   5.262   1.797 -0.1278  0.2941  0.0343
 7591TIP3    H146968   3.661   5.297   1.716 -2.0572 -0.2153 -1.0763
 7591TIP3    H246969   3.640   5.168   1.791 -0.4467  0.2337  0.1873
 7592TIP3   OH246970   6.473   4.609   2.943 -0.1813 -0.0112  0.2969
 7592TIP3    H146971   6.406   4.675   2.927 -0.0431  0.1739  0.4747
 7592TIP3    H246972   6.541   4.655   2.992  0.2861 -0.0773 -0.2725
 7593TIP3   OH246973   2.986   1.460   0.999 -0.5533  0.0260  0.3752
 7593TIP3    H146974   2.936   1.539   0.980  1.5363  1.3809  0.1634
 7593TIP3    H246975   2.981   1.451   1.094 -1.5810 -0.1502  0.3140
 7594TIP3   OH246976   4.511   6.744   0.914 -0.0450  0.3846 -0.0428
 7594TIP3    H146977   4.424   6.758   0.877 -1.2621 -2.0546  1.5637
 7594TIP3    H246978   4.501   6.763   1.007  0.7189 -1.1951  0.4098
 7595TIP3   OH246979   2.959   1.390   1.283 -0.4337  0.0139  0.2526
 7595TIP3    H146980   2.970   1.459   1.348 -4.2195 -0.5431  1.7615
 7595TIP3    H246981   2.950   1.310   1.335 -2.4392 -0.6118 -0.9484
 7596TIP3   OH246982   2.715   5.590   1.600  0.5010 -0.1926 -0.4106
 7596TIP3    H146983   2.738   5.555   1.514 -0.2374 -1.3942 -0.1394
 7596TIP3    H246984   2.782   5.555   1.659  1.6659  1.5364 -0.6435
 7597TIP3   OH246985   1.167   0.790   0.655  0.4070 -0.5915  0.1894
 7597TIP3    H146986   1.118   0.864   0.692  0.5036 -0.1797 -0.4739
 7597TIP3    H246987   1.101   0.721   0.645  0.3951 -0.7245  1.1546
 7598TIP3   OH246988   4.228   3.117   2.408  0.0708 -0.1230 -0.0013
 7598TIP3    H146989   4.185   3.056   2.348  1.9139 -0.5008 -0.9901
 7598TIP3    H246990   4.256   3.062   2.481 -2.7442  0.4352  1.6517
 7599TIP3   OH246991   4.605   5.029   2.690 -0.2665  0.6734 -0.3551
 7599TIP3    H146992   4.624   5.049   2.599  1.4568  3.3686  0.4787
 7599TIP3    H246993   4.673   4.968   2.717 -0.8523 -0.2251 -0.8692
 7600TIP3   OH246994   2.967   1.151   1.443  0.4711 -0.2992  0.0002
 7600TIP3    H146995   2.961   1.102   1.361  1.2506 -0.0225 -0.2310
 7600TIP3    H246996   3.013   1.092   1.503  0.6168 -0.1883 -0.0037
 7601TIP3   OH246997   5.150   1.557   1.594  0.2196  0.3707  0.2824
 7601TIP3    H146998   5.109   1.612   1.527 -3.0243 -0.1725  1.6096
 7601TIP3    H246999   5.153   1.612   1.672  0.3785 -0.1617  0.6624
 7602TIP3   OH247000   1.390   3.770   1.409 -0.0773  0.4164  0.0501
 7602TIP3    H147001   1.407   3.766   1.315 -0.4164  0.4256 -0.0132
 7602TIP3    H247002   1.347   3.688   1.429  1.9347 -0.5632  0.6088
 7603TIP3   OH247003   3.820   2.333   1.208  0.7375 -0.1405 -0.2443
 7603TIP3    H147004   3.897   2.278   1.217 -0.2883 -1.8822 -1.4828
 7603TIP3    H247005   3.839   2.388   1.131  1.0797  0.0517 -0.0247
 7604TIP3   OH247006   3.917   0.801   2.737  0.5153 -0.3746  0.3547
 7604TIP3    H147007   3.894   0.801   2.644 -1.2421  1.1472  0.7312
 7604TIP3    H247008   3.893   0.714   2.768 -2.5431  0.2700  0.1285
 7605TIP3   OH247009   0.952   3.084   1.119  0.2969  0.1500  0.1970
 7605TIP3    H147010   0.949   3.170   1.161  0.9585 -0.5812  1.8241
 7605TIP3    H247011   1.023   3.090   1.055  1.0324  0.5181  1.0289
 7606TIP3   OH247012   1.495   2.159   3.265 -0.0621  0.6919 -0.3339
 7606TIP3    H147013   1.403   2.162   3.290 -0.0288  0.5341 -0.1958
 7606TIP3    H247014   1.523   2.250   3.266  0.1009  0.6364  0.7925
 7607TIP3   OH247015   0.040   1.352   2.814  0.5557  0.2301 -0.0179
 7607TIP3    H147016   0.026   1.399   2.897  0.1292 -0.1056  0.0993
 7607TIP3    H247017   0.134   1.361   2.798  0.4494  1.2870 -0.0942
 7608TIP3   OH247018   3.966   1.624   1.646  0.4067 -0.3428 -0.0885
 7608TIP3    H147019   4.047   1.586   1.679 -1.1321 -2.7573  1.2101
 7608TIP3    H247020   3.921   1.655   1.725 -0.8111 -0.9298 -0.5248
 7609TIP3   OH247021   2.247   1.383   2.810 -0.5453  0.0409 -0.2227
 7609TIP3    H147022   2.340   1.396   2.795 -0.7331  0.4734 -1.1265
 7609TIP3    H247023   2.207   1.467   2.789 -1.0856  0.0262  0.6993
 7610TIP3   OH247024   2.599   5.104   2.308 -0.0133 -0.4291  0.0277
 7610TIP3    H147025   2.664   5.105   2.379 -0.9038  0.2599  0.8581
 7610TIP3    H247026   2.600   5.193   2.273 -0.3573 -0.4669 -0.0842
 7611TIP3   OH247027   5.319   5.068   2.365 -0.0865  0.1165  0.0517
 7611TIP3    H147028   5.365   5.137   2.317 -0.6371  0.2754 -0.2615
 7611TIP3    H247029   5.249   5.114   2.412  0.4399 -0.0389  1.0140
 7612TIP3   OH247030   0.107   4.537   1.867  0.1727  0.2873  0.2208
 7612TIP3    H147031   0.041   4.508   1.930 -0.6826 -0.4384 -0.9668
 7612TIP3    H247032   0.076   4.503   1.783  2.3111 -0.4973 -0.3123
 7613TIP3   OH247033   0.109   2.681   1.272 -0.9905 -0.1026 -0.2021
 7613TIP3    H147034   0.136   2.717   1.188 -3.8045  0.6278 -0.8766
 7613TIP3    H247035   0.103   2.758   1.330 -2.8171 -0.0346 -0.4462
 7614TIP3   OH247036   0.145   1.922   2.459 -0.2891 -0.1597  0.2374
 7614TIP3    H147037   0.200   1.999   2.447 -0.6003 -0.0902 -0.8217
 7614TIP3    H247038   0.065   1.955   2.500 -1.1716  0.4021 -1.8456
 7615TIP3   OH247039   3.693   4.846   3.468  0.3297 -0.2279 -0.6175
 7615TIP3    H147040   3.778   4.851   3.424  0.0178 -0.6541 -1.2896
 7615TIP3    H247041   3.708   4.885   3.554  0.6482  1.9634 -1.5849
 7616TIP3   OH247042   0.808   6.704   2.456  0.3803 -0.2934  0.2035
 7616TIP3    H147043   0.903   6.698   2.465  0.6265 -0.5013 -2.0843
 7616TIP3    H247044   0.781   6.620   2.419 -0.1575  0.9909 -2.6234
 7617TIP3   OH247045   1.965   3.847   1.329 -0.1378  0.1645 -0.2647
 7617TIP3    H147046   1.897   3.887   1.274 -1.4551  0.3655  1.4243
 7617TIP3    H247047   1.951   3.752   1.318  0.3523  0.1774 -1.1208
 7618TIP3   OH247048   4.514   1.818   3.022  0.0280 -0.0727  0.3340
 7618TIP3    H147049   4.504   1.730   2.985  4.8421 -0.6924 -0.1405
 7618TIP3    H247050   4.494   1.876   2.949 -1.2072 -0.8042  0.0529
 7619TIP3   OH247051   5.383   0.735   2.355 -0.3592 -0.0794 -0.2375
 7619TIP3    H147052   5.383   0.665   2.421 -0.7860  0.0401 -0.1058
 7619TIP3    H247053   5.370   0.690   2.272 -0.5439 -0.1634 -0.1626
 7620TIP3   OH247054   5.690   2.754   1.476  0.2923 -0.2704 -0.2997
 7620TIP3    H147055   5.607   2.743   1.523  0.4029 -0.9366 -0.2395
 7620TIP3    H247056   5.754   2.776   1.544 -0.0731  1.6267 -0.5144
 7621TIP3   OH247057   6.656   6.230   3.606  0.7902 -0.1709 -0.0266
 7621TIP3    H147058   6.626   6.197   3.690  0.9934  0.5661  0.3404
 7621TIP3    H247059   6.648   6.155   3.547 -0.0460 -0.4944  0.4750
 7622TIP3   OH247060   0.169   6.165   0.821  0.2810  0.2702  0.3217
 7622TIP3    H147061   0.093   6.123   0.782  1.1841 -1.3116  0.1993
 7622TIP3    H247062   0.221   6.093   0.856  2.3265  1.1980 -0.6682
 7623TIP3   OH247063   2.195   2.300   2.418 -0.0881 -0.6382  0.2114
 7623TIP3    H147064   2.176   2.349   2.498 -0.9581 -0.3976 -0.1313
 7623TIP3    H247065   2.288   2.315   2.402 -0.1384  0.1507  0.6167
 7624TIP3   OH247066   2.478   5.477   3.072  0.2116 -0.0003 -0.5646
 7624TIP3    H147067   2.456   5.404   3.130  1.1507 -0.7601 -1.1354
 7624TIP3    H247068   2.394   5.521   3.056 -0.0903  0.1358  1.2209
 7625TIP3   OH247069   6.254   1.201   0.710  0.4600  0.0135 -0.2921
 7625TIP3    H147070   6.244   1.292   0.739  1.4231  0.2530 -0.6578
 7625TIP3    H247071   6.181   1.187   0.650 -0.1509  0.2863  0.3729
 7626TIP3   OH247072   6.245   5.681   2.940  0.3292 -0.3329  0.7790
 7626TIP3    H147073   6.272   5.617   2.874 -0.6096  1.5036 -1.5373
 7626TIP3    H247074   6.171   5.639   2.985  0.2545 -1.2019 -0.1191
 7627TIP3   OH247075   4.604   6.798   3.031 -0.4874  0.3414 -0.5976
 7627TIP3    H147076   4.645   6.726   2.984 -0.3131 -0.6916  1.0539
 7627TIP3    H247077   4.677   6.847   3.068 -0.5257 -2.0758  3.1988
 7628TIP3   OH247078   0.398   5.795   0.535 -0.1006  0.0018  0.4170
 7628TIP3    H147079   0.419   5.702   0.526  0.5072  0.0474  1.2467
 7628TIP3    H247080   0.455   5.826   0.605  0.1543  1.1452 -0.2602
 7629TIP3   OH247081   2.676   0.882   0.878 -0.2103  0.5196 -0.5868
 7629TIP3    H147082   2.715   0.825   0.812  1.7582  0.5204  0.4922
 7629TIP3    H247083   2.600   0.921   0.835  1.7140  1.5560 -3.3219
 7630TIP3   OH247084   4.002   0.605   2.976 -0.0069 -0.6199 -0.7888
 7630TIP3    H147085   4.020   0.549   2.900  0.6633 -1.4705 -0.0293
 7630TIP3    H247086   4.081   0.598   3.029  0.2325  1.3547 -0.8289
 7631TIP3   OH247087   5.551   6.212   1.408 -0.1487 -0.0645 -0.3043
 7631TIP3    H147088   5.536   6.271   1.334  0.6977  0.3742 -0.1391
 7631TIP3    H247089   5.515   6.259   1.483  1.1405  0.5825 -0.0576
 7632TIP3   OH247090   3.174   1.102   2.784  0.7216 -0.1273  0.0477
 7632TIP3    H147091   3.269   1.098   2.795  1.2676  1.1768 -3.1521
 7632TIP3    H247092   3.141   1.024   2.829  3.3013 -0.6976  1.0894
 7633TIP3   OH247093   5.990   5.915   3.127 -0.3562 -0.0186  0.2956
 7633TIP3    H147094   5.941   5.972   3.185  0.9263 -0.2297  1.6322
 7633TIP3    H247095   6.058   5.876   3.182  2.1300  1.2050 -1.6723
 7634TIP3   OH247096   4.917   6.670   2.195  0.2445 -0.5148  0.2159
 7634TIP3    H147097   4.864   6.698   2.270 -1.0124 -2.4779  0.1366
 7634TIP3    H247098   4.996   6.632   2.234  0.3634 -0.0141  0.4637
 7635TIP3   OH247099   3.080   3.870   0.651  0.5713 -0.3507 -0.5706
 7635TIP3    H147100   3.123   3.946   0.688 -1.2841  0.7883 -0.5999
 7635TIP3    H247101   2.988   3.897   0.641  0.2282 -1.9302 -2.3665
 7636TIP3   OH247102   4.335   6.045   3.918  0.0996  0.0368 -0.4756
 7636TIP3    H147103   4.355   5.986   3.845  0.2220 -0.4243 -0.0769
 7636TIP3    H247104   4.421   6.073   3.950  0.0509  0.0668 -0.3719
 7637TIP3   OH247105   4.055   3.929   3.255  0.4649  0.5754 -0.0857
 7637TIP3    H147106   4.131   3.900   3.306 -0.0090 -0.7085 -0.0725
 7637TIP3    H247107   3.989   3.952   3.321 -1.3849 -4.2392  0.1662
 7638TIP3   OH247108   6.684   6.664   2.504 -0.6201 -0.3003  0.3853
 7638TIP3    H147109   6.696   6.634   2.415  1.0798 -3.2757  1.4901
 7638TIP3    H247110   6.703   6.758   2.500  1.0722 -0.6566 -2.0810
 7639TIP3   OH247111   5.396   5.548   3.224 -0.2149  0.3501  0.4325
 7639TIP3    H147112   5.429   5.635   3.202 -0.1618 -0.3300 -2.6302
 7639TIP3    H247113   5.473   5.492   3.222 -0.7196 -0.3923 -1.8099
 7640TIP3   OH247114   1.833   3.115   3.054  0.2139  0.2079 -0.1677
 7640TIP3    H147115   1.780   3.125   2.976 -0.0074  1.5941  0.1371
 7640TIP3    H247116   1.871   3.027   3.047  1.0707  0.7038 -2.3511
 7641TIP3   OH247117   1.724   0.068   3.755  0.0783  0.3971 -0.4060
 7641TIP3    H147118   1.733   0.127   3.680  1.2918  1.3946  0.4836
 7641TIP3    H247119   1.682   0.121   3.822  0.5239  0.0399  0.1656
 7642TIP3   OH247120   6.051   5.475   0.455  0.1407  0.5283 -0.0405
 7642TIP3    H147121   6.027   5.464   0.547 -0.7060  1.2023 -0.1724
 7642TIP3    H247122   5.971   5.503   0.412  0.6759  0.8170 -0.8754
 7643TIP3   OH247123   6.788   5.093   0.895 -0.8843  0.9286 -0.2314
 7643TIP3    H147124   6.880   5.099   0.918 -0.9524 -0.5802  0.5506
 7643TIP3    H247125   6.783   5.126   0.806  0.9708 -1.8553 -1.5127
 7644TIP3   OH247126   5.368   2.587   3.540 -0.4991 -0.0093  0.2591
 7644TIP3    H147127   5.383   2.670   3.585 -0.4678  0.0902  0.0669
 7644TIP3    H247128   5.349   2.525   3.610 -0.9125  0.2430  0.3755
 7645TIP3   OH247129   3.781   2.463   2.619  0.3010  0.8567 -0.2617
 7645TIP3    H147130   3.788   2.528   2.688 -0.0465  0.3993  0.2135
 7645TIP3    H247131   3.862   2.470   2.570  1.2005  0.2017  1.0758
 7646TIP3   OH247132   4.918   6.617   3.739  0.5214 -0.1642  0.2257
 7646TIP3    H147133   4.971   6.696   3.727  0.6751 -0.4072 -0.7400
 7646TIP3    H247134   4.828   6.650   3.747  0.7198  0.1933  1.1460
 7647TIP3   OH247135   6.523   1.887   2.513  0.1719  0.1350 -0.2688
 7647TIP3    H147136   6.582   1.812   2.520  1.3373  0.8342 -1.9359
 7647TIP3    H247137   6.482   1.893   2.599  1.8614 -0.9380  0.6801
 7648TIP3   OH247138   2.113   5.189   3.294 -0.3637  0.5782 -0.4627
 7648TIP3    H147139   2.136   5.119   3.232  1.2605  3.1955 -3.0806
 7648TIP3    H247140   2.197   5.220   3.328 -1.1544  0.1378  2.1403
 7649TIP3   OH247141   3.917   2.068   1.021  0.2003  0.6620 -0.4304
 7649TIP3    H147142   3.832   2.103   1.050 -0.4736  0.7261 -2.3889
 7649TIP3    H247143   3.963   2.145   0.986  0.8098  0.4992 -0.0021
 7650TIP3   OH247144   0.776   4.648   0.845 -0.0066  0.6422 -0.2819
 7650TIP3    H147145   0.787   4.574   0.905  0.0067  0.2835 -0.7164
 7650TIP3    H247146   0.686   4.677   0.860  0.4243  1.4384  0.8844
 7651TIP3   OH247147   0.421   2.965   1.691 -0.1891  0.1654  0.2163
 7651TIP3    H147148   0.516   2.964   1.697 -0.1987 -1.1163  0.4538
 7651TIP3    H247149   0.401   2.914   1.612 -0.6638  1.1727 -0.3387
 7652TIP3   OH247150   4.998   5.879   2.066  0.3501 -0.6190 -0.2873
 7652TIP3    H147151   5.004   5.805   2.126  0.9884 -0.6009 -0.3223
 7652TIP3    H247152   4.979   5.954   2.122  2.1895 -0.3820  0.0707
 7653TIP3   OH247153   6.350   1.913   4.115  0.0385  0.0276 -0.0570
 7653TIP3    H147154   6.274   1.958   4.080 -0.2871 -0.2108  0.3287
 7653TIP3    H247155   6.320   1.823   4.130  0.0885  0.1786  1.0350
 7654TIP3   OH247156   4.145   5.387   2.029  0.2267 -0.0343  0.1624
 7654TIP3    H147157   4.122   5.370   1.938  0.2245  0.6558  0.0283
 7654TIP3    H247158   4.236   5.417   2.026 -0.0066  0.7129  0.2974
 7655TIP3   OH247159   2.834   6.254   3.065  0.0532  0.0731  0.5043
 7655TIP3    H147160   2.739   6.265   3.061  0.2669  2.0955 -0.5427
 7655TIP3    H247161   2.861   6.310   3.138  0.5065  0.1325  0.2918
 7656TIP3   OH247162   1.893   4.413   3.699 -0.2293 -0.2102  0.1553
 7656TIP3    H147163   1.806   4.451   3.712  0.2814  0.4509  1.9905
 7656TIP3    H247164   1.953   4.489   3.701  0.7084 -0.9351  2.7461
 7657TIP3   OH247165   5.530   3.901   2.944 -0.8595 -0.0311 -0.2948
 7657TIP3    H147166   5.492   3.894   3.031 -0.2132 -0.8879 -0.0664
 7657TIP3    H247167   5.585   3.823   2.935 -2.1360 -0.7968 -2.0709
 7658TIP3   OH247168   1.503   6.262   2.935 -0.5269  0.0156  0.5718
 7658TIP3    H147169   1.584   6.288   2.980  0.6891 -1.7074 -0.5205
 7658TIP3    H247170   1.453   6.343   2.930  0.6152  0.9145  2.2692
 7659TIP3   OH247171   3.545   5.345   2.269  0.0828 -0.0635  0.0874
 7659TIP3    H147172   3.583   5.430   2.247  0.6534  0.0436  1.4070
 7659TIP3    H247173   3.554   5.339   2.364  1.0801 -2.0994 -0.1011
 7660TIP3   OH247174   0.786   6.071   3.179 -0.4000  0.0362  0.0053
 7660TIP3    H147175   0.809   6.156   3.216 -0.7022  0.1776 -0.1230
 7660TIP3    H247176   0.832   6.067   3.095 -0.7461  0.2719 -0.2012
 7661TIP3   OH247177   5.261   6.499   1.210 -0.2867 -0.0907  0.0885
 7661TIP3    H147178   5.345   6.458   1.227  0.8165  2.0084  0.0977
 7661TIP3    H247179   5.213   6.436   1.157  1.1589 -1.4662  0.3463
 7662TIP3   OH247180   6.199   0.116   4.239 -0.2342  0.2704  0.0735
 7662TIP3    H147181   6.275   0.058   4.226 -0.8717 -1.0886  1.8744
 7662TIP3    H247182   6.165   0.132   4.151  0.3021 -1.6868 -0.5406
 7663TIP3   OH247183   1.405   3.150   3.466 -0.2155  0.3412 -0.1413
 7663TIP3    H147184   1.345   3.076   3.476 -0.4966  0.6651  0.6311
 7663TIP3    H247185   1.371   3.198   3.390 -0.9443  0.5310  0.2963
 7664TIP3   OH247186   6.311   5.117   1.121 -0.1372  0.1928 -0.2977
 7664TIP3    H147187   6.286   5.071   1.041 -0.8003 -0.2896  0.1729
 7664TIP3    H247188   6.239   5.178   1.137  0.2699  0.6987 -0.3797
 7665TIP3   OH247189   6.651   0.597   2.023  0.1182  0.6080  0.2098
 7665TIP3    H147190   6.733   0.600   1.975 -0.5955 -0.7377 -1.2042
 7665TIP3    H247191   6.587   0.634   1.963 -0.4233  1.0545  1.0428
 7666TIP3   OH247192   3.609   5.721   3.242  0.5927 -0.0381  0.0051
 7666TIP3    H147193   3.650   5.696   3.324  0.6223 -0.6530 -0.1890
 7666TIP3    H247194   3.518   5.741   3.266  0.5800 -0.2934  0.1780
 7667TIP3   OH247195   6.680   1.431   1.148 -0.0866 -0.3444  0.2451
 7667TIP3    H147196   6.660   1.405   1.058 -0.5746  0.8860 -0.0182
 7667TIP3    H247197   6.615   1.386   1.201 -1.1959  0.6110 -0.2439
 7668TIP3   OH247198   3.942   0.612   0.948  0.1169 -0.3063 -0.1076
 7668TIP3    H147199   3.925   0.705   0.934  0.8036  0.1063  1.4983
 7668TIP3    H247200   3.873   0.584   1.008  1.2288 -0.2297  1.2499
 7669TIP3   OH247201   4.951   2.520   1.277  0.2710  0.8053  0.0515
 7669TIP3    H147202   4.912   2.444   1.322 -1.3639  2.1685  1.0535
 7669TIP3    H247203   5.045   2.512   1.294  0.2899 -1.5822 -0.8290
 7670TIP3   OH247204   0.479   5.832   2.985 -0.1716 -0.9929 -0.3313
 7670TIP3    H147205   0.452   5.888   2.912 -0.1465 -1.2256 -0.5199
 7670TIP3    H247206   0.575   5.831   2.981  0.1304  2.2491  2.1163
 7671TIP3   OH247207   0.534   5.936   1.965  0.5427  0.0411 -0.4460
 7671TIP3    H147208   0.540   5.985   1.884  3.1205  2.7964  1.1895
 7671TIP3    H247209   0.447   5.896   1.964 -0.1116  1.2929 -3.7615
 7672TIP3   OH247210   2.019   0.560   2.629 -0.6595 -0.5719  0.8405
 7672TIP3    H147211   1.999   0.475   2.668  0.8463 -2.2934 -1.8503
 7672TIP3    H247212   2.104   0.547   2.587 -0.7474  2.0714 -0.2948
 7673TIP3   OH247213   1.435   6.551   2.980  0.0178  0.3084  0.5169
 7673TIP3    H147214   1.440   6.595   3.065  0.2295 -1.1705  1.3049
 7673TIP3    H247215   1.524   6.557   2.944 -0.3392  1.9430 -0.1559
 7674TIP3   OH247216   0.173   6.637   0.548  0.5910  0.3733  0.2140
 7674TIP3    H147217   0.086   6.671   0.527  0.4310  0.2718  0.6941
 7674TIP3    H247218   0.157   6.571   0.615  1.0517  0.4573  0.4081
 7675TIP3   OH247219   3.002   2.958   0.802  0.2448  0.4927 -0.1701
 7675TIP3    H147220   3.028   3.033   0.747  0.1334 -0.3172 -1.3768
 7675TIP3    H247221   3.033   2.981   0.889  1.7565  1.1986 -0.8421
 7676TIP3   OH247222   2.632   6.185   3.291 -0.6810  0.2199  0.2201
 7676TIP3    H147223   2.629   6.092   3.268 -1.4097  0.6806 -1.7526
 7676TIP3    H247224   2.540   6.209   3.305 -0.4880  0.6361  0.8051
 7677TIP3   OH247225   0.399   0.338   3.386  0.1883 -0.0970  0.2262
 7677TIP3    H147226   0.419   0.397   3.313  0.7600  0.3365  0.7191
 7677TIP3    H247227   0.396   0.251   3.346 -0.8921  0.2725 -0.5514
 7678TIP3   OH247228   2.633   1.908   2.877 -0.1460  0.5078 -0.2397
 7678TIP3    H147229   2.608   1.828   2.830  1.2835  0.0380 -0.2576
 7678TIP3    H247230   2.637   1.975   2.809 -0.0275  0.2860 -0.4553
 7679TIP3   OH247231   3.023   2.481   1.119  0.5173 -0.4592 -0.0091
 7679TIP3    H147232   2.988   2.470   1.031  1.4529 -1.4569 -0.2800
 7679TIP3    H247233   3.073   2.401   1.136  3.5502  1.2480 -0.0817
 7680TIP3   OH247234   0.949   0.798   3.427  0.0221  0.3935 -0.1622
 7680TIP3    H147235   1.043   0.802   3.409  0.0832 -0.6701 -0.1372
 7680TIP3    H247236   0.908   0.798   3.340  0.0415  0.6802 -0.1753
 7681TIP3   OH247237   6.503   6.078   1.847 -0.5872 -0.1763 -0.3411
 7681TIP3    H147238   6.426   6.109   1.895  1.0286 -1.0758  3.1303
 7681TIP3    H247239   6.559   6.156   1.838  1.2040 -0.7299  3.8136
 7682TIP3   OH247240   3.025   4.528   2.820 -0.5614 -0.3297 -0.2664
 7682TIP3    H147241   3.098   4.487   2.774  0.1264  0.2243  0.3222
 7682TIP3    H247242   3.046   4.518   2.912  0.1541  2.2569 -0.0975
 7683TIP3   OH247243   6.750   3.132   0.883  0.1492 -0.2790 -0.0496
 7683TIP3    H147244   6.829   3.183   0.865 -0.2239  0.9737  1.6887
 7683TIP3    H247245   6.692   3.192   0.930 -1.6080 -1.3632 -0.7179
 7684TIP3   OH247246   1.187   2.977   2.980 -0.3370  0.7575  0.2614
 7684TIP3    H147247   1.157   2.888   2.961 -4.2802  1.4383  2.1865
 7684TIP3    H247248   1.177   2.986   3.075  0.4621  3.1052  0.1837
 7685TIP3   OH247249   5.648   4.096   1.510 -0.2221 -0.1306  0.3222
 7685TIP3    H147250   5.606   4.011   1.502 -1.1576  0.4290 -0.9961
 7685TIP3    H247251   5.633   4.121   1.601 -0.1042 -1.2741  0.6748
 7686TIP3   OH247252   1.468   6.636   2.666  0.0698  0.3375  0.1905
 7686TIP3    H147253   1.385   6.622   2.711  0.4230 -0.3823  0.6437
 7686TIP3    H247254   1.478   6.731   2.661 -0.1865  0.4262  1.2496
 7687TIP3   OH247255   3.782   0.815   1.158 -0.2465  0.0911  0.0733
 7687TIP3    H147256   3.806   0.740   1.212  0.8328  1.0348  0.9670
 7687TIP3    H247257   3.706   0.786   1.108 -0.0584 -1.4702  0.6450
 7688TIP3   OH247258   1.714   0.640   2.865  0.2890  0.2330  0.7205
 7688TIP3    H147259   1.791   0.591   2.895  0.8450  1.5041  1.4007
 7688TIP3    H247260   1.715   0.628   2.770  1.2477  0.1041  0.7310
 7689TIP3   OH247261   6.320   3.298   2.530 -0.2448  0.2038  0.2635
 7689TIP3    H147262   6.391   3.301   2.466 -0.9604  0.0138 -0.5579
 7689TIP3    H247263   6.269   3.377   2.513 -1.0232 -0.3632 -0.0994
 7690TIP3   OH247264   5.998   1.674   2.711  0.5215  0.3622  0.2384
 7690TIP3    H147265   5.996   1.705   2.620 -1.6447 -2.0515 -0.6475
 7690TIP3    H247266   6.077   1.620   2.716  0.6129  0.4508 -0.2045
 7691TIP3   OH247267   1.394   0.080   3.867  0.1747  0.1948 -0.0269
 7691TIP3    H147268   1.457   0.138   3.911 -0.1522  1.3455 -1.0199
 7691TIP3    H247269   1.321   0.073   3.929  0.5149  0.2946  0.3862
 7692TIP3   OH247270   2.117   3.864   2.428 -0.3132 -0.1834 -0.1017
 7692TIP3    H147271   2.029   3.890   2.400 -0.5082  0.5965  1.1919
 7692TIP3    H247272   2.107   3.840   2.520  0.4292 -2.1683 -0.4736
 7693TIP3   OH247273   1.711   5.190   9.611 -0.9556 -0.3094 -0.4903
 7693TIP3    H147274   1.766   5.261   9.643 -0.2879 -0.8398 -0.4455
 7693TIP3    H247275   1.756   5.158   9.532 -1.7083 -0.1065 -1.0185
 7694TIP3   OH247276   1.072   1.457   0.744 -0.5037  0.2793 -0.4180
 7694TIP3    H147277   1.116   1.394   0.801  0.3381  1.4772  0.3043
 7694TIP3    H247278   0.980   1.434   0.750 -0.6303  1.1118  2.4598
 7695TIP3   OH247279   2.562   2.842   1.742 -0.4096  0.1724 -0.1825
 7695TIP3    H147280   2.526   2.775   1.800 -0.6643  0.6160  0.1724
 7695TIP3    H247281   2.627   2.888   1.794 -1.1797  1.0760  0.0182
 7696TIP3   OH247282   5.988   5.577   3.067 -0.1774  0.2016 -0.5444
 7696TIP3    H147283   5.948   5.493   3.089 -0.0947 -0.4024 -2.5216
 7696TIP3    H247284   5.913   5.632   3.040 -0.1599  0.6004  0.1711
 7697TIP3   OH247285   3.513   0.929   2.740 -0.1068  0.0333 -0.4207
 7697TIP3    H147286   3.553   0.881   2.812  0.6006  0.1664 -0.7207
 7697TIP3    H247287   3.483   1.011   2.780  1.6991  0.8149 -0.5661
 7698TIP3   OH247288   0.348   2.154   3.624 -0.7194 -0.1761  0.1793
 7698TIP3    H147289   0.318   2.217   3.689  1.0887 -0.2781  1.1662
 7698TIP3    H247290   0.306   2.072   3.649 -1.7820  0.2584 -0.1303
 7699TIP3   OH247291   2.377   0.729   1.077 -0.1217  0.8636 -0.2008
 7699TIP3    H147292   2.329   0.655   1.112  0.4426  1.3444  1.7233
 7699TIP3    H247293   2.469   0.705   1.088  0.1778  0.2546 -3.1629
 7700TIP3   OH247294   1.268   4.156   2.907 -0.1160 -0.0393 -0.0865
 7700TIP3    H147295   1.336   4.222   2.914 -0.4032  0.7940 -3.3628
 7700TIP3    H247296   1.306   4.089   2.849 -0.5599 -1.7962  1.5493
 7701TIP3   OH247297   3.743   2.706   3.951  0.2134 -0.1223 -0.0107
 7701TIP3    H147298   3.664   2.739   3.907  0.4540 -1.7598 -1.8231
 7701TIP3    H247299   3.744   2.613   3.930  2.6568 -0.1218 -0.0955
 7702TIP3   OH247300   0.760   3.077   2.917 -0.6442 -0.1762 -0.0945
 7702TIP3    H147301   0.810   3.138   2.971 -0.7258  1.3864 -1.6780
 7702TIP3    H247302   0.700   3.034   2.977  2.4197 -2.0465  1.8846
 7703TIP3   OH247303   3.251   2.299   1.046 -0.2126  0.0197 -0.1327
 7703TIP3    H147304   3.343   2.283   1.025 -0.7258 -3.2540 -0.3713
 7703TIP3    H247305   3.208   2.311   0.961 -0.4565 -1.5787 -0.2571
 7704TIP3   OH247306   5.698   3.832   3.559  0.5571 -0.2463  0.2845
 7704TIP3    H147307   5.657   3.886   3.627  0.2815  0.4403 -0.4188
 7704TIP3    H247308   5.751   3.894   3.508  0.7371 -0.7477 -0.1433
 7705TIP3   OH247309   2.405   2.236   2.717  0.6045 -0.2501 -0.0278
 7705TIP3    H147310   2.445   2.277   2.640  0.2168  1.7898  0.7798
 7705TIP3    H247311   2.457   2.267   2.791  0.0787 -0.9620  0.6590
 7706TIP3   OH247312   3.514   4.816   3.255 -0.2955  0.1023  0.1584
 7706TIP3    H147313   3.566   4.823   3.334  0.4703  2.4662 -0.4750
 7706TIP3    H247314   3.545   4.736   3.212 -0.4901 -1.0291  2.0009
 7707TIP3   OH247315   5.811   0.550   2.134  0.2019  0.0775  0.2238
 7707TIP3    H147316   5.900   0.554   2.100 -1.0952  3.3270 -3.4743
 7707TIP3    H247317   5.771   0.476   2.088  0.6392 -0.7313  1.1065
 7708TIP3   OH247318   1.087   3.522   3.452  0.0965 -0.1839 -0.5932
 7708TIP3    H147319   1.182   3.532   3.442  0.8648 -1.5720  3.4790
 7708TIP3    H247320   1.052   3.610   3.438  2.7451  1.7352  3.1876
 7709TIP3   OH247321   0.313   2.840   1.953  0.5660  0.0454 -0.5871
 7709TIP3    H147322   0.314   2.887   1.870  0.6392  0.4460 -0.3622
 7709TIP3    H247323   0.257   2.764   1.937  1.7473 -0.6920 -1.4303
 7710TIP3   OH247324   0.093   5.189   2.384  0.1137  0.0874  0.1040
 7710TIP3    H147325   0.080   5.155   2.295  2.0299 -0.0847 -0.1569
 7710TIP3    H247326   0.146   5.122   2.427  0.7122  0.9955  0.8103
 7711TIP3   OH247327   6.478   4.363   1.175 -0.3849 -0.6170  0.1156
 7711TIP3    H147328   6.534   4.287   1.192  0.5139  0.4178  1.9725
 7711TIP3    H247329   6.424   4.371   1.253  1.3329  2.1499  1.1388
 7712TIP3   OH247330   6.600   0.445   2.248  0.3751 -0.4172 -0.1455
 7712TIP3    H147331   6.634   0.523   2.204 -0.1863  2.0236  3.3124
 7712TIP3    H247332   6.678   0.398   2.278  1.1340  2.8288  3.9252
 7713TIP3   OH247333   5.245   1.359   2.620 -0.1303  0.1915  0.1024
 7713TIP3    H147334   5.309   1.291   2.598  0.2014  0.9336 -1.3652
 7713TIP3    H247335   5.179   1.352   2.551 -0.9676  0.2974  0.8713
 7714TIP3   OH247336   0.279   0.857   1.670 -0.0852 -0.2080 -0.3974
 7714TIP3    H147337   0.368   0.857   1.634  0.8090  0.9146  1.6151
 7714TIP3    H247338   0.274   0.938   1.722 -1.5902 -1.1985  1.1316
 7715TIP3   OH247339   0.061   0.074   1.591  0.3142 -0.1114  0.3246
 7715TIP3    H147340   0.050   0.154   1.642  1.9377  0.6021 -0.3843
 7715TIP3    H247341   0.137   0.090   1.536  0.1367 -1.8141 -0.4993
 7716TIP3   OH247342   4.217   6.442   2.512 -0.0695 -0.0548 -0.4387
 7716TIP3    H147343   4.302   6.486   2.517 -1.0156  2.1397 -2.1639
 7716TIP3    H247344   4.223   6.386   2.435  0.5595 -1.7364  0.7894
 7717TIP3   OH247345   3.078   6.387   2.470  0.1566 -0.2636  0.3253
 7717TIP3    H147346   3.002   6.343   2.432  1.5867 -2.4810 -0.1188
 7717TIP3    H247347   3.108   6.448   2.402  0.4821 -1.5058 -0.6697
 7718TIP3   OH247348   1.148   6.614   2.045 -0.0199 -0.4701  0.0049
 7718TIP3    H147349   1.241   6.630   2.026 -0.3631 -0.0856 -1.4237
 7718TIP3    H247350   1.117   6.695   2.085  0.0890 -0.3594 -0.1380
 7719TIP3   OH247351   1.755   1.761   3.972 -0.1792  0.2060 -0.2768
 7719TIP3    H147352   1.812   1.831   3.941  2.1495 -1.7130 -0.6936
 7719TIP3    H247353   1.698   1.803   4.037 -1.0900  3.0645 -2.7025
 7720TIP3   OH247354   0.264   5.124   3.495  0.3997 -0.3532 -0.8239
 7720TIP3    H147355   0.204   5.170   3.436 -0.8347  0.3661  0.9045
 7720TIP3    H247356   0.228   5.036   3.503  0.3362 -0.3291 -0.8424
 7721TIP3   OH247357   3.738   3.616   1.586  0.1101 -0.3767  0.1058
 7721TIP3    H147358   3.823   3.640   1.549 -0.7443  1.2177 -0.9088
 7721TIP3    H247359   3.724   3.679   1.657  0.0234 -0.9960  0.6465
 7722TIP3   OH247360   2.308   6.184   3.006  0.2350 -0.1615  0.1133
 7722TIP3    H147361   2.329   6.276   3.023 -0.3191  0.3146 -1.6133
 7722TIP3    H247362   2.212   6.180   3.010  0.1263 -0.2098 -1.7650
 7723TIP3   OH247363   3.808   2.158   3.852  0.0704 -0.2929 -0.0179
 7723TIP3    H147364   3.870   2.109   3.798  0.2452 -1.6489  1.3252
 7723TIP3    H247365   3.739   2.094   3.873 -0.1970  0.3039  0.9998
 7724TIP3   OH247366   4.977   6.068   2.594  0.0648 -0.5758 -0.0534
 7724TIP3    H147367   4.901   6.045   2.541  0.5806 -1.0089 -0.6345
 7724TIP3    H247368   4.954   6.151   2.636 -0.6633 -0.6321 -0.3320
 7725TIP3   OH247369   3.290   1.566   1.632  0.6564  0.4625 -0.2565
 7725TIP3    H147370   3.237   1.502   1.680 -0.9863  1.4113 -0.7053
 7725TIP3    H247371   3.332   1.515   1.563 -0.2456 -0.2338 -0.3112
 7726TIP3   OH247372   4.000   6.505   2.659 -0.1636 -0.3638  0.1985
 7726TIP3    H147373   4.074   6.475   2.605  0.3586 -0.4166  0.9399
 7726TIP3    H247374   3.988   6.597   2.634 -1.4973 -0.9891 -1.7777
 7727TIP3   OH247375   4.961   2.929   1.773  0.2935 -0.0710 -0.2356
 7727TIP3    H147376   5.009   2.948   1.853 -1.2098  0.6667  0.5238
 7727TIP3    H247377   4.883   2.882   1.802 -0.5614  0.7015 -1.1976
 7728TIP3   OH247378   2.601   5.568   3.399 -0.4680 -0.5060 -0.3146
 7728TIP3    H147379   2.628   5.528   3.317  1.6209 -0.8975  0.4980
 7728TIP3    H247380   2.527   5.514   3.428 -1.8983  0.2375 -2.3424
 7729TIP3   OH247381   1.981   6.613   1.322  0.1909  0.0879  0.4803
 7729TIP3    H147382   2.035   6.601   1.244  1.9946  1.1272  1.4938
 7729TIP3    H247383   1.943   6.527   1.339  0.7734 -0.4520 -0.8111
 7730TIP3   OH247384   0.664   4.322   1.924 -0.5573  0.0041 -0.0998
 7730TIP3    H147385   0.685   4.301   2.015  1.7964  0.6416 -0.4437
 7730TIP3    H247386   0.665   4.238   1.879 -3.2703 -0.5321  0.6589
 7731TIP3   OH247387   2.281   3.920   2.956 -0.3451  0.1015 -0.5216
 7731TIP3    H147388   2.234   3.839   2.976  1.8495 -1.2542 -0.3966
 7731TIP3    H247389   2.339   3.933   3.032  2.2891 -0.5819 -2.2550
 7732TIP3   OH247390   5.136   2.913   3.925 -1.0010 -0.0170  0.2337
 7732TIP3    H147391   5.230   2.918   3.910 -0.7097  0.3555  2.0233
 7732TIP3    H247392   5.101   2.994   3.888 -0.4330  0.4876  0.7964
 7733TIP3   OH247393   0.389   2.439   1.183  0.1117  0.3935 -0.1673
 7733TIP3    H147394   0.334   2.500   1.134 -1.6183 -0.9732 -0.0308
 7733TIP3    H247395   0.475   2.481   1.185 -0.3427  1.6089 -2.3002
 7734TIP3   OH247396   6.012   3.930   1.075 -0.1110 -0.2418  0.2895
 7734TIP3    H147397   6.097   3.976   1.073 -0.8148  1.0998  0.0197
 7734TIP3    H247398   5.981   3.940   1.165 -1.1239  1.5004 -0.2116
 7735TIP3   OH247399   4.282   1.506   1.246  0.3337  0.8713 -0.4752
 7735TIP3    H147400   4.210   1.555   1.206 -2.2368 -0.6830  1.8980
 7735TIP3    H247401   4.278   1.529   1.339  0.6023 -1.8533  0.3024
 7736TIP3   OH247402   2.107   3.253   1.927  0.0126  0.0787  0.2530
 7736TIP3    H147403   2.048   3.263   2.002 -0.2510 -1.0882  0.2161
 7736TIP3    H247404   2.177   3.197   1.959 -0.3954 -0.9036 -0.5154
 7737TIP3   OH247405   4.694   4.306   1.618 -0.1022  0.4304 -0.2611
 7737TIP3    H147406   4.614   4.260   1.645  0.9023  0.0972  2.4615
 7737TIP3    H247407   4.761   4.237   1.614  1.0699  1.2939  2.2943
 7738TIP3   OH247408   2.446   1.123   3.090  0.4182 -0.1554 -0.2473
 7738TIP3    H147409   2.527   1.161   3.055  0.8052  0.2853  1.0794
 7738TIP3    H247410   2.471   1.087   3.175 -0.2837 -2.0788 -0.8014
 7739TIP3   OH247411   0.115   6.350   1.096  0.1598  0.0902  0.0618
 7739TIP3    H147412   0.111   6.294   1.174  0.4972  2.1592  1.6800
 7739TIP3    H247413   0.206   6.343   1.067  1.5260  3.0122  2.9660
 7740TIP3   OH247414   3.955   2.861   3.860  0.0757 -0.3001  0.4070
 7740TIP3    H147415   3.925   2.915   3.787 -0.0647  0.7451  1.2088
 7740TIP3    H247416   3.880   2.803   3.879 -0.7003  0.8632  1.0445
 7741TIP3   OH247417   0.611   1.900   3.405  0.1017 -0.2027  0.0564
 7741TIP3    H147418   0.606   1.974   3.465 -0.5270  0.4186 -0.7291
 7741TIP3    H247419   0.703   1.874   3.405  0.4005  0.8392  0.0362
 7742TIP3   OH247420   5.573   3.648   3.174  0.0047  0.1028  0.0855
 7742TIP3    H147421   5.554   3.741   3.174  0.5974  0.2547  1.4683
 7742TIP3    H247422   5.602   3.629   3.264  1.8704 -0.9944 -0.6839
 7743TIP3   OH247423   0.606   5.128   3.726 -0.3303 -0.0623  0.0513
 7743TIP3    H147424   0.603   5.039   3.761 -0.1137 -0.2381 -0.3709
 7743TIP3    H247425   0.579   5.184   3.799  0.2085 -0.4167  0.5241
 7744TIP3   OH247426   0.483   4.522   4.004  0.5600 -0.1017 -0.2994
 7744TIP3    H147427   0.447   4.456   3.944  1.3921 -1.1992  0.3535
 7744TIP3    H247428   0.547   4.473   4.056 -1.3327  0.3499  2.7023
 7745TIP3   OH247429   4.974   3.138   3.839  0.3168  0.1448 -0.2834
 7745TIP3    H147430   4.905   3.179   3.891 -0.9878 -2.6220  0.3930
 7745TIP3    H247431   4.967   3.179   3.753  0.0534  2.2219  0.6660
 7746TIP3   OH247432   2.137   1.304   0.676  0.1852  0.3481 -0.1824
 7746TIP3    H147433   2.052   1.294   0.718 -1.3465  1.1014 -2.8821
 7746TIP3    H247434   2.139   1.235   0.609  2.0272 -0.0809  0.2512
 7747TIP3   OH247435   1.499   1.828   1.362 -0.1343  0.0491  0.7445
 7747TIP3    H147436   1.562   1.897   1.340 -0.2666 -0.1663 -0.3245
 7747TIP3    H247437   1.551   1.762   1.408  1.1195 -1.4964 -2.5977
 7748TIP3   OH247438   0.296   0.574   2.292  0.1437  0.4864  0.3047
 7748TIP3    H147439   0.263   0.561   2.380  0.6379  1.3003  0.6157
 7748TIP3    H247440   0.389   0.548   2.297 -0.0601 -0.4182 -0.2209
 7749TIP3   OH247441   5.532   5.511   1.995 -0.0236  0.3077  0.1202
 7749TIP3    H147442   5.604   5.570   2.018 -0.2376  0.2708  0.9254
 7749TIP3    H247443   5.453   5.565   2.003 -0.0592  0.5579 -1.4934
 7750TIP3   OH247444   4.570   5.757   1.403  0.2964  0.2791  0.1133
 7750TIP3    H147445   4.477   5.777   1.398  0.5509  1.5637  0.0796
 7750TIP3    H247446   4.575   5.663   1.389 -0.9199  0.3334 -0.9283
 7751TIP3   OH247447   4.607   3.983   1.022  0.0069  0.0762  0.0847
 7751TIP3    H147448   4.593   4.018   1.110  0.6032  0.4431  0.0410
 7751TIP3    H247449   4.641   3.895   1.036  1.5287  0.6606  0.2674
 7752TIP3   OH247450   1.056   3.020   3.250 -0.0298 -0.8933  0.1743
 7752TIP3    H147451   0.963   3.023   3.229  0.6056  0.7203 -3.1071
 7752TIP3    H247452   1.086   2.935   3.219 -0.2027 -0.9789  0.2436
 7753TIP3   OH247453   3.327   6.015   1.701  0.4602 -0.2792 -0.0091
 7753TIP3    H147454   3.417   5.987   1.716 -0.1935 -1.9655  1.2524
 7753TIP3    H247455   3.274   5.944   1.739 -1.3865  0.9654 -0.1176
 7754TIP3   OH247456   4.485   4.707   1.557  0.0528 -0.2989  0.2309
 7754TIP3    H147457   4.497   4.802   1.560 -0.0230 -0.1348 -2.2214
 7754TIP3    H247458   4.545   4.673   1.623  0.6036  1.4165  0.6607
 7755TIP3   OH247459   6.378   4.710   1.457  0.1608 -0.2990  0.1083
 7755TIP3    H147460   6.354   4.800   1.435  0.9210 -0.3353 -0.9404
 7755TIP3    H247461   6.301   4.675   1.503 -0.5322  0.5612 -0.3701
 7756TIP3   OH247462   2.772   1.600   3.545 -0.2918  0.0864  0.0472
 7756TIP3    H147463   2.738   1.598   3.455 -0.9666 -1.5578  0.2871
 7756TIP3    H247464   2.694   1.589   3.600  0.4212 -3.6128  0.6308
 7757TIP3   OH247465   4.843   4.891   2.931  0.2783  0.5399  0.5815
 7757TIP3    H147466   4.802   4.977   2.933  0.0881  0.5026 -0.9206
 7757TIP3    H247467   4.861   4.874   2.839  0.1520 -1.1081  0.8164
 7758TIP3   OH247468   0.630   1.099   2.053  0.2546 -0.0819 -0.4978
 7758TIP3    H147469   0.602   1.154   2.126  2.0239  0.7400 -0.3998
 7758TIP3    H247470   0.559   1.109   1.988 -0.4927  0.5778  0.3873
 7759TIP3   OH247471   5.681   5.930   1.808 -0.4255 -0.0831 -0.9014
 7759TIP3    H147472   5.613   5.998   1.804 -0.0530  0.4140  0.4701
 7759TIP3    H247473   5.647   5.859   1.754 -2.9477 -0.6422  1.2385
 7760TIP3   OH247474   5.800   5.572   2.043 -0.1810  0.4673 -1.0613
 7760TIP3    H147475   5.839   5.502   2.095 -0.8356 -0.1863 -1.4433
 7760TIP3    H247476   5.844   5.568   1.959  1.0057  1.6413 -0.5401
 7761TIP3   OH247477   6.530   1.263   0.868  0.2117  0.4830  0.1332
 7761TIP3    H147478   6.476   1.270   0.789  3.0962  0.3294 -1.9914
 7761TIP3    H247479   6.558   1.353   0.885  2.2913  0.1354 -1.1281
 7762TIP3   OH247480   0.714   5.350   3.868 -0.5514  0.1623  0.5171
 7762TIP3    H147481   0.640   5.355   3.928 -0.4086  0.1469  0.6972
 7762TIP3    H247482   0.769   5.280   3.905 -1.4734 -1.3034 -0.7695
 7763TIP3   OH247483   6.175   1.504   1.373  0.0534 -0.3262  0.1287
 7763TIP3    H147484   6.218   1.520   1.289 -0.3017 -0.1090 -0.0147
 7763TIP3    H247485   6.237   1.449   1.421  0.5837  0.1547  0.0110
 7764TIP3   OH247486   1.807   4.602   1.648  0.0857  0.1372  0.3881
 7764TIP3    H147487   1.741   4.657   1.604  0.2568 -0.5112 -0.7052
 7764TIP3    H247488   1.814   4.524   1.593  1.4736  0.0142  0.7059
 7765TIP3   OH247489   6.564   4.653   1.266  0.7401  0.5070  0.1795
 7765TIP3    H147490   6.530   4.653   1.356  1.0254 -1.6011  0.3338
 7765TIP3    H247491   6.511   4.588   1.220  2.2307 -0.2931 -0.4889
 7766TIP3   OH247492   3.730   1.530   1.509  0.5824 -0.1234  0.0850
 7766TIP3    H147493   3.814   1.551   1.548  1.0325 -0.5949 -0.5998
 7766TIP3    H247494   3.679   1.611   1.516  0.8535 -0.0307  1.0921
 7767TIP3   OH247495   1.766   0.131   1.425  0.1632  0.1157  0.0879
 7767TIP3    H147496   1.847   0.114   1.472  0.3787  0.3717 -0.1941
 7767TIP3    H247497   1.737   0.217   1.455  0.2058  0.2001 -0.1122
 7768TIP3   OH247498   2.314   5.770   3.293 -0.0091 -0.0673  0.6491
 7768TIP3    H147499   2.329   5.688   3.340 -0.8808 -0.0659  0.9320
 7768TIP3    H247500   2.220   5.774   3.279  0.1462  0.2853 -0.4752
 7769TIP3   OH247501   1.434   5.226   3.529 -0.2436 -0.2859  0.4118
 7769TIP3    H147502   1.498   5.193   3.591 -0.8529 -1.0726  0.6421
 7769TIP3    H247503   1.381   5.288   3.579  0.3049  0.3439  0.2282
 7770TIP3   OH247504   5.236   5.798   0.696 -0.4770  0.1296  0.1671
 7770TIP3    H147505   5.177   5.722   0.697 -2.3137  1.4750  0.6853
 7770TIP3    H247506   5.220   5.842   0.780  1.2579  0.5731  0.2882
 7771TIP3   OH247507   1.666   6.530   1.694  0.3921 -0.4892  0.3096
 7771TIP3    H147508   1.669   6.619   1.657  0.2859 -0.9574 -0.8699
 7771TIP3    H247509   1.756   6.499   1.686  0.5026 -0.3694  1.0438
 7772TIP3   OH247510   2.700   2.484   3.190 -0.0321  0.0780  0.6407
 7772TIP3    H147511   2.703   2.476   3.285  2.2320  0.0871  0.6418
 7772TIP3    H247512   2.731   2.399   3.158 -0.3392  0.2258 -0.0678
 7773TIP3   OH247513   5.948   2.096   4.171  0.3017  0.3748  0.5250
 7773TIP3    H147514   5.864   2.097   4.125  0.3113  1.6776  0.5106
 7773TIP3    H247515   5.978   2.186   4.168  0.9193  0.2478  1.9612
 7774TIP3   OH247516   3.154   0.332   1.748  0.1193 -0.6317  0.0766
 7774TIP3    H147517   3.070   0.316   1.791 -0.3073  0.1534 -0.4194
 7774TIP3    H247518   3.199   0.394   1.806  0.4890 -1.2918  0.4966
 7775TIP3   OH247519   4.084   2.730   3.018 -0.3631  0.2939 -0.4559
 7775TIP3    H147520   4.097   2.819   2.984  1.2524 -0.0049 -0.6859
 7775TIP3    H247521   4.072   2.676   2.940 -2.4716  0.4194 -0.2874
 7776TIP3   OH247522   5.130   5.154   3.020 -0.2509  0.3088  0.1426
 7776TIP3    H147523   5.188   5.211   3.071  1.3067 -0.3656 -0.7751
 7776TIP3    H247524   5.149   5.177   2.929  0.0890 -1.3372 -0.2330
 7777TIP3   OH247525   0.901   2.461   1.222  0.5294  0.5254  0.1552
 7777TIP3    H147526   0.912   2.372   1.189  1.4650  0.6073  0.2358
 7777TIP3    H247527   0.904   2.516   1.143  1.3696  0.6009  0.2331
 7778TIP3   OH247528   0.333   5.815   2.313 -0.3275  0.0033 -0.0996
 7778TIP3    H147529   0.350   5.738   2.367 -0.6266  0.2905  0.4146
 7778TIP3    H247530   0.256   5.856   2.353 -0.7146  0.0867 -0.8985
 7779TIP3   OH247531   6.668   2.966   0.470  0.2018  0.4560  0.0477
 7779TIP3    H147532   6.630   3.026   0.533 -0.1211 -0.0590  0.3544
 7779TIP3    H247533   6.601   2.956   0.402  1.4137  2.7802 -1.6077
 7780TIP3   OH247534   1.603   6.803   4.150  0.1296 -0.0917  0.6795
 7780TIP3    H147535   1.527   6.745   4.150 -1.1734  1.4628 -1.1972
 7780TIP3    H247536   1.663   6.763   4.088 -0.3728  0.0509  0.0858
 7781TIP3   OH247537   5.697   5.911   3.606  0.5496 -0.1413  0.2752
 7781TIP3    H147538   5.637   5.898   3.679  1.0968  0.2621  0.8029
 7781TIP3    H247539   5.767   5.848   3.620  1.6464  1.2074  1.1792
 7782TIP3   OH247540   4.296   4.059   1.900 -0.2923  0.3761 -0.4547
 7782TIP3    H147541   4.221   4.055   1.840 -0.0813 -1.7804 -0.6587
 7782TIP3    H247542   4.259   4.037   1.986  0.0751 -0.7869 -0.5718
 7783TIP3   OH247543   4.989   2.895   2.073  1.0688  0.0288 -0.2284
 7783TIP3    H147544   4.914   2.849   2.113  1.1411 -0.1259 -0.2706
 7783TIP3    H247545   5.061   2.833   2.080  0.8743 -0.3535 -1.3875
 7784TIP3   OH247546   0.080   1.712   1.712  0.0627  0.3115  0.4496
 7784TIP3    H147547   0.026   1.789   1.692  2.2195  1.5808 -0.9494
 7784TIP3    H247548   0.094   1.669   1.628  1.3267  0.1280  0.7263
 7785TIP3   OH247549   5.065   3.006   3.204  0.0455  0.1107 -0.2387
 7785TIP3    H147550   5.035   2.928   3.157 -0.1095  0.1860 -0.2661
 7785TIP3    H247551   5.140   3.038   3.152  1.5319 -1.2580  0.9511
 7786TIP3   OH247552   2.333   4.811   1.388 -0.2551  0.0049 -0.0290
 7786TIP3    H147553   2.274   4.867   1.337 -1.8015 -1.0813  0.4786
 7786TIP3    H247554   2.386   4.873   1.439 -0.3361  1.0365 -1.1642
 7787TIP3   OH247555   5.515   1.328   0.745  0.2888 -0.4524 -0.2532
 7787TIP3    H147556   5.436   1.306   0.697 -0.0482 -2.0212  0.9327
 7787TIP3    H247557   5.522   1.261   0.813  1.7780  0.5612  0.6759
 7788TIP3   OH247558   1.454   1.742   1.075  0.0661  0.2607 -0.4364
 7788TIP3    H147559   1.443   1.647   1.081  0.6436  0.2336  0.3792
 7788TIP3    H247560   1.467   1.770   1.166  1.0167  0.9820 -0.7776
 7789TIP3   OH247561   3.086   4.390   2.427 -0.1931  0.3808 -0.0602
 7789TIP3    H147562   3.154   4.368   2.364 -1.1350  0.8493 -1.2723
 7789TIP3    H247563   3.031   4.454   2.382 -2.6308 -1.4555  0.0806
 7790TIP3   OH247564   4.553   3.433   0.683 -0.2385 -0.2519 -0.3621
 7790TIP3    H147565   4.525   3.517   0.719 -0.1288 -0.3400 -0.0696
 7790TIP3    H247566   4.474   3.398   0.641 -0.3336 -0.0920 -0.3188
 7791TIP3   OH247567   5.965   5.790   3.741 -0.6641  0.2452  0.1345
 7791TIP3    H147568   5.903   5.775   3.813 -0.3489 -1.5225  0.0773
 7791TIP3    H247569   6.049   5.760   3.776 -0.1811  0.9122 -0.4288
 7792TIP3   OH247570   3.152   6.015   0.788 -0.0234  0.2183 -0.1854
 7792TIP3    H147571   3.120   5.942   0.735  0.0301  0.7385 -0.9586
 7792TIP3    H247572   3.234   5.984   0.826 -0.4232 -0.4112  0.1666
 7793TIP3   OH247573   2.979   3.266   1.282 -0.4961 -0.0326 -0.7546
 7793TIP3    H147574   2.888   3.295   1.288 -0.0412  1.1615  0.9899
 7793TIP3    H247575   2.986   3.197   1.348  0.2084  0.9120  0.1857
 7794TIP3   OH247576   4.109   0.298   2.072  0.6025  1.0451  0.1859
 7794TIP3    H147577   4.202   0.276   2.062 -0.0603 -1.9213 -0.4879
 7794TIP3    H247578   4.109   0.373   2.133  3.4052  1.2547  0.0935
 7795TIP3   OH247579   5.314   6.588   2.040 -0.2359  0.1491  0.5019
 7795TIP3    H147580   5.250   6.596   2.112 -0.5716 -1.4567  0.4179
 7795TIP3    H247581   5.260   6.572   1.963  0.2029  0.2175  0.1821
 7796TIP3   OH247582   5.987   6.388   1.373 -0.1822  0.0567 -0.2163
 7796TIP3    H147583   6.019   6.474   1.345 -0.4539  0.2166 -0.0349
 7796TIP3    H247584   6.034   6.371   1.455 -0.1527  0.0477 -0.2352
 7797TIP3   OH247585   4.934   2.421   2.916  0.3942  0.1346  0.2273
 7797TIP3    H147586   5.023   2.452   2.930 -0.1280  1.2701  1.2250
 7797TIP3    H247587   4.926   2.343   2.971  0.6092  0.3512  0.5675
 7798TIP3   OH247588   1.239   1.958   2.237  0.2058  0.5601 -0.2417
 7798TIP3    H147589   1.211   1.904   2.164  0.9106 -1.7797  1.1168
 7798TIP3    H247590   1.261   1.896   2.306  0.8041  2.6158  1.5366
 7799TIP3   OH247591   3.210   4.697   1.073  0.2316 -0.8042 -0.2106
 7799TIP3    H147592   3.150   4.753   1.124  0.7221 -1.1640  0.7993
 7799TIP3    H247593   3.284   4.755   1.052 -0.4791 -0.3435 -1.5104
 7800TIP3   OH247594   6.038   0.481   1.982 -0.0221 -0.3255 -0.0381
 7800TIP3    H147595   6.059   0.504   1.892 -0.4241 -0.9164 -0.2922
 7800TIP3    H247596   6.091   0.539   2.036 -0.4474  0.6460 -0.6548
 7801TIP3   OH247597   3.867   4.712   2.958  0.6106 -0.1906  0.6850
 7801TIP3    H147598   3.806   4.641   2.939 -0.0113  0.3466  0.6014
 7801TIP3    H247599   3.920   4.722   2.879  1.4336 -1.2641  1.0882
 7802TIP3   OH247600   6.780   1.777   1.120 -0.3912  0.0159 -0.0785
 7802TIP3    H147601   6.794   1.871   1.107 -0.1392 -0.0715 -0.4525
 7802TIP3    H247602   6.808   1.737   1.037 -0.8437 -0.3542 -0.0565
 7803TIP3   OH247603   4.573   0.062   1.763  0.7335 -0.4586  0.6997
 7803TIP3    H147604   4.636   0.096   1.826 -0.8437  0.6862  1.7372
 7803TIP3    H247605   4.578   0.121   1.689  0.3183  0.1401  1.1353
 7804TIP3   OH247606   1.607   5.043   1.135  0.1925  0.2485  0.0200
 7804TIP3    H147607   1.637   5.112   1.076  2.2105  1.0430  1.8359
 7804TIP3    H247608   1.569   5.090   1.209 -0.7156 -0.6769  0.1588
 7805TIP3   OH247609   6.690   1.923   3.535  0.1651 -0.3018 -0.5677
 7805TIP3    H147610   6.595   1.924   3.545  0.1850 -1.3337 -0.1510
 7805TIP3    H247611   6.723   1.966   3.614  0.0389  0.9840 -1.1818
 7806TIP3   OH247612   5.046   6.330   2.905 -0.2357 -0.0407  0.6022
 7806TIP3    H147613   4.999   6.302   2.826  1.9961 -1.5501 -0.2871
 7806TIP3    H247614   5.025   6.263   2.970  2.3815 -2.1365 -0.5100
 7807TIP3   OH247615   4.172   0.303   3.245 -0.0973 -0.1076  0.1518
 7807TIP3    H147616   4.145   0.218   3.279 -0.0195 -0.4541 -0.6302
 7807TIP3    H247617   4.119   0.366   3.294  2.3366 -0.3009  3.3453
 7808TIP3   OH247618   0.936   6.034   1.633 -0.1291 -0.4223  0.5693
 7808TIP3    H147619   0.889   6.064   1.554  2.5180  1.5302 -0.4114
 7808TIP3    H247620   0.905   5.944   1.646 -1.8256 -0.2855 -1.7549
 7809TIP3   OH247621   2.315   5.312   1.296 -0.4856 -0.0513 -0.0112
 7809TIP3    H147622   2.227   5.349   1.295  0.4601  2.5254  1.4081
 7809TIP3    H247623   2.371   5.380   1.259  1.0908 -1.0668  0.3552
 7810TIP3   OH247624   0.335   4.769   2.190 -0.2326  0.2218  0.9161
 7810TIP3    H147625   0.380   4.690   2.162 -1.2658 -1.1482  2.8801
 7810TIP3    H247626   0.267   4.783   2.124  1.3143  0.8185 -0.6458
 7811TIP3   OH247627   2.931   6.014   2.927 -0.0700 -0.4193  0.3041
 7811TIP3    H147628   2.892   5.935   2.965  2.1872 -2.1014 -0.6344
 7811TIP3    H247629   2.911   6.083   2.989 -1.7862 -1.7985  1.3864
 7812TIP3   OH247630   0.603   2.222   4.155 -0.6679  0.2525  0.9709
 7812TIP3    H147631   0.650   2.145   4.187  1.0022  0.4688 -0.7923
 7812TIP3    H247632   0.515   2.190   4.137 -0.2024 -1.0844  0.9117
 7813TIP3   OH247633   2.616   4.332   2.330 -0.0530  0.5502  0.6178
 7813TIP3    H147634   2.603   4.314   2.423 -2.9380  0.8337  0.3597
 7813TIP3    H247635   2.616   4.427   2.323 -0.2129  0.5289  0.2963
 7814TIP3   OH247636   2.953   4.382   3.251  0.1265 -0.0050 -0.2996
 7814TIP3    H147637   2.962   4.438   3.329 -1.2185 -0.6980  0.3975
 7814TIP3    H247638   3.038   4.337   3.244 -0.5575 -2.0177  2.4866
 7815TIP3   OH247639   4.926   0.175   4.213 -0.4205 -0.1008  0.1404
 7815TIP3    H147640   4.877   0.110   4.264 -0.0550  0.1424  0.8057
 7815TIP3    H247641   4.878   0.181   4.130 -1.1087 -0.3824  0.5110
 7816TIP3   OH247642   5.447   5.234   2.914  0.2461  0.1349  0.4794
 7816TIP3    H147643   5.433   5.150   2.869  0.2410 -0.2341  1.1623
 7816TIP3    H247644   5.425   5.216   3.005 -3.6805  1.8336  0.0716
 7817TIP3   OH247645   1.800   5.866   2.310  0.3270 -0.2547 -0.3385
 7817TIP3    H147646   1.829   5.902   2.394  1.5275 -0.7618 -0.5177
 7817TIP3    H247647   1.819   5.935   2.246  0.4197 -0.2861 -0.3449
 7818TIP3   OH247648   5.152   6.008   2.359  0.4811 -0.5295  0.6297
 7818TIP3    H147649   5.113   5.937   2.308  0.2516 -0.8564  1.2494
 7818TIP3    H247650   5.101   6.010   2.440 -0.4226  1.2349  0.0729
 7819TIP3   OH247651   4.653   0.977   2.064 -0.3872  0.2049  0.3212
 7819TIP3    H147652   4.686   0.888   2.065  1.2237  0.7408  2.1099
 7819TIP3    H247653   4.566   0.971   2.105 -0.5865 -0.6032 -0.1956
 7820TIP3   OH247654   2.611   1.373   3.353  0.0912 -0.4634  0.5253
 7820TIP3    H147655   2.637   1.293   3.307  2.6096  0.8528 -0.5851
 7820TIP3    H247656   2.626   1.443   3.289 -4.3633  0.8307  0.5822
 7821TIP3   OH247657   3.138   2.774   0.570 -0.1691 -0.2617  0.1745
 7821TIP3    H147658   3.162   2.820   0.651  0.7231 -1.5300  0.6730
 7821TIP3    H247659   3.043   2.782   0.565 -0.4694 -1.6385  2.3381
 7822TIP3   OH247660   3.426   6.479   2.909 -0.0358  0.0561 -0.3162
 7822TIP3    H147661   3.339   6.465   2.874 -0.2878 -1.4573  0.8026
 7822TIP3    H247662   3.412   6.517   2.996  0.5128  1.8691 -0.9763
 7823TIP3   OH247663   3.135   3.816   3.485  0.2804  0.1719  0.3564
 7823TIP3    H147664   3.058   3.771   3.452  1.3035 -1.5820  0.2537
 7823TIP3    H247665   3.115   3.909   3.474 -1.8040 -0.2308  0.3648
 7824TIP3   OH247666   4.927   3.620   3.201 -0.1003  0.1767  0.6517
 7824TIP3    H147667   4.845   3.570   3.205  0.9748 -2.0270 -2.1004
 7824TIP3    H247668   4.908   3.693   3.142 -0.1068 -0.3415  0.0029
 7825TIP3   OH247669   5.990   2.364   2.998 -0.5871  0.3703 -0.3790
 7825TIP3    H147670   6.010   2.270   3.008 -1.3188  0.0690 -1.5942
 7825TIP3    H247671   6.065   2.400   2.951 -0.0310  0.5383  0.5971
 7826TIP3   OH247672   5.417   2.007   2.495  0.2718  0.8488  0.2847
 7826TIP3    H147673   5.342   2.063   2.474  0.0885  0.2737 -0.6747
 7826TIP3    H247674   5.394   1.966   2.578  0.3355  2.0548  0.9197
 7827TIP3   OH247675   3.590   2.835   3.410 -0.5582 -0.1776 -0.2789
 7827TIP3    H147676   3.554   2.747   3.419  1.7641 -1.0184  2.4051
 7827TIP3    H247677   3.685   2.822   3.408 -0.0778  2.2665  1.5587
 7828TIP3   OH247678   3.997   4.365   3.229  0.4065 -0.2973  0.2064
 7828TIP3    H147679   4.023   4.302   3.296  0.3110 -1.2377 -0.6285
 7828TIP3    H247680   3.964   4.440   3.279 -0.4086 -1.2870  1.2158
 7829TIP3   OH247681   4.826   5.262   2.741  0.1582 -0.1569 -0.2874
 7829TIP3    H147682   4.915   5.298   2.745  0.7125 -1.6015  1.7801
 7829TIP3    H247683   4.821   5.202   2.816 -2.1434 -1.0886 -1.1140
 7830TIP3   OH247684   3.237   4.728   3.155 -0.2635  0.2920 -0.3071
 7830TIP3    H147685   3.245   4.634   3.145 -1.7961 -0.1544  2.0967
 7830TIP3    H247686   3.325   4.757   3.179 -0.3398 -0.9375  1.5801
 7831TIP3   OH247687   0.508   3.859   0.882 -0.4025  0.3348 -0.3654
 7831TIP3    H147688   0.439   3.880   0.945 -0.7300 -0.6944 -0.3517
 7831TIP3    H247689   0.467   3.873   0.797 -0.0139  1.5590 -0.3709
 7832TIP3   OH247690   2.519   1.216   0.960  0.1851  0.8731  0.1807
 7832TIP3    H147691   2.614   1.225   0.948  0.4045  0.5766  1.5283
 7832TIP3    H247692   2.498   1.133   0.917  0.5055  1.0104 -0.2551
 7833TIP3   OH247693   2.151   6.305   1.850  0.2957 -0.1291  0.1024
 7833TIP3    H147694   2.069   6.342   1.819  0.9198 -0.5789 -2.3241
 7833TIP3    H247695   2.132   6.212   1.862  0.0510  0.0476  1.1403
 7834TIP3   OH247696   0.915   2.747   0.806  0.0498 -0.2582  0.7619
 7834TIP3    H147697   0.963   2.829   0.789  1.2451 -1.1908 -0.5938
 7834TIP3    H247698   0.954   2.713   0.886 -0.4754  0.4900  1.3535
 7835TIP3   OH247699   5.545   4.694   0.397  0.2284 -0.0232  0.1488
 7835TIP3    H147700   5.611   4.625   0.408  0.0400 -0.2008  0.1749
 7835TIP3    H247701   5.461   4.647   0.396 -0.0781  0.3853  2.2470
 7836TIP3   OH247702   2.863   4.167   1.558  0.4480  0.0793  0.3674
 7836TIP3    H147703   2.818   4.217   1.626  1.4355  2.0911 -0.3960
 7836TIP3    H247704   2.808   4.176   1.480  0.8402  0.3231  0.1168
 7837TIP3   OH247705   4.667   6.784   2.635  0.1634  0.7252 -0.5807
 7837TIP3    H147706   4.668   6.689   2.619  1.0624  1.0344 -2.6880
 7837TIP3    H247707   4.651   6.792   2.729  0.3473 -1.5226 -0.2963
 7838TIP3   OH247708   1.759   0.896   1.006  0.0172 -0.2182  0.0263
 7838TIP3    H147709   1.811   0.816   1.006 -0.0004 -0.2295 -0.6245
 7838TIP3    H247710   1.807   0.955   1.064 -0.3658 -0.9437  1.1253
 7839TIP3   OH247711   2.538   5.501   2.736 -0.0248 -0.2095  0.1941
 7839TIP3    H147712   2.567   5.432   2.676  1.3266  0.3139  0.2140
 7839TIP3    H247713   2.489   5.455   2.804 -0.4461 -0.9599 -0.5998
 7840TIP3   OH247714   0.854   0.719   1.302  0.0055 -0.2859 -0.6906
 7840TIP3    H147715   0.945   0.703   1.279 -0.3148  0.6654 -2.8996
 7840TIP3    H247716   0.804   0.656   1.249 -0.6237 -1.3935  1.1319
 7841TIP3   OH247717   1.021   4.904   1.957  0.3756 -0.0557  0.0490
 7841TIP3    H147718   1.110   4.870   1.948  0.2358  0.0797 -2.5398
 7841TIP3    H247719   1.013   4.927   2.050  2.7180 -0.8943  0.5131
 7842TIP3   OH247720   2.598   1.477   1.019 -0.1174  0.3989 -0.0435
 7842TIP3    H147721   2.679   1.453   0.973  0.4387  0.6648  0.7750
 7842TIP3    H247722   2.539   1.403   1.004  0.3424  0.1130 -0.4840
 7843TIP3   OH247723   0.764   2.825   2.763  0.2230 -0.5781  0.3098
 7843TIP3    H147724   0.789   2.913   2.792 -1.2036 -0.5514  1.6017
 7843TIP3    H247725   0.797   2.768   2.833 -2.0587 -0.6635  1.3886
 7844TIP3   OH247726   6.316   2.366   1.772  0.0310  0.2912 -0.0853
 7844TIP3    H147727   6.300   2.272   1.760  0.1672  0.3165 -0.4607
 7844TIP3    H247728   6.341   2.398   1.686  1.2740  0.4209  0.3038
 7845TIP3   OH247729   4.632   5.103   3.394  0.5901  0.2850  0.2684
 7845TIP3    H147730   4.549   5.075   3.432  0.1948  0.1072 -0.7065
 7845TIP3    H247731   4.611   5.124   3.303  1.8889 -1.1964 -0.4140
 7846TIP3   OH247732   6.563   5.859   2.029  0.4821  0.4743  0.4020
 7846TIP3    H147733   6.511   5.785   2.060  0.1224  1.1275  1.3670
 7846TIP3    H247734   6.507   5.903   1.964  0.4402  0.2872  0.3107
 7847TIP3   OH247735   5.995   5.277   2.027 -0.5541 -0.3509  0.1839
 7847TIP3    H147736   6.031   5.311   2.108  0.0925  0.4564 -0.4271
 7847TIP3    H247737   5.996   5.351   1.967  2.2748 -1.7219 -1.6678
 7848TIP3   OH247738   5.499   5.486   1.539 -0.5745 -0.1786  0.1162
 7848TIP3    H147739   5.431   5.443   1.487 -1.7277  0.6996  0.8350
 7848TIP3    H247740   5.452   5.520   1.615  0.6528  0.5925  0.5537
 7849TIP3   OH247741   4.077   4.016   1.712  0.4260 -0.4052  0.1917
 7849TIP3    H147742   3.995   4.040   1.756 -0.1216 -2.1678  0.2205
 7849TIP3    H247743   4.054   4.010   1.620  0.5685 -0.6495  0.1698
 7850TIP3   OH247744   2.413   3.901   2.477 -0.1974 -0.2581 -0.3841
 7850TIP3    H147745   2.324   3.895   2.443 -0.5529  0.4793  0.3642
 7850TIP3    H247746   2.403   3.947   2.561  1.0328  0.9781 -0.8843
 7851TIP3   OH247747   3.929   3.600   4.004  0.1405  0.5850 -0.4998
 7851TIP3    H147748   3.973   3.566   3.926  2.3411  0.4254  0.7396
 7851TIP3    H247749   3.851   3.645   3.970  0.0028 -1.1136 -2.5993
 7852TIP3   OH247750   3.080   5.474   3.635 -0.9566 -0.3246  0.2697
 7852TIP3    H147751   3.052   5.425   3.712 -2.1133  0.0488  0.1085
 7852TIP3    H247752   2.998   5.506   3.596 -0.3417  0.1314 -0.6815
 7853TIP3   OH247753   3.320   2.219   3.447 -0.1077  0.1665  0.4361
 7853TIP3    H147754   3.312   2.274   3.524  1.4195 -0.4023  1.0422
 7853TIP3    H247755   3.365   2.140   3.478 -1.4167 -1.0441 -0.5868
 7854TIP3   OH247756   4.755   6.770   2.361  0.3790  0.0521 -0.8937
 7854TIP3    H147757   4.729   6.783   2.452 -0.1842  1.4667 -1.2320
 7854TIP3    H247758   4.673   6.775   2.311  1.0188  3.5461 -1.8743
 7855TIP3   OH247759   0.302   1.746   0.891  0.3961  0.3792 -0.1418
 7855TIP3    H147760   0.339   1.701   0.815  1.5326  0.4274  0.3620
 7855TIP3    H247761   0.285   1.835   0.862 -1.4085 -0.1825 -1.0064
 7856TIP3   OH247762   4.946   2.104   2.511  0.7260  1.1771  0.6736
 7856TIP3    H147763   4.964   2.094   2.605  2.2970 -1.0419  0.2072
 7856TIP3    H247764   4.850   2.098   2.505  0.7175 -0.7642  1.9586
 7857TIP3   OH247765   5.515   0.395   2.091 -0.2205  0.2738  0.1221
 7857TIP3    H147766   5.543   0.485   2.074  1.1713 -0.3529 -1.1972
 7857TIP3    H247767   5.577   0.342   2.042 -1.4576 -1.3915  0.2908
 7858TIP3   OH247768   2.734   3.964   3.505 -0.0539 -0.1506 -0.7507
 7858TIP3    H147769   2.641   3.942   3.516  0.1412 -0.2488  1.0449
 7858TIP3    H247770   2.780   3.903   3.564  0.9911  1.0350 -0.2934
 7859TIP3   OH247771   3.774   5.344   1.307  0.6015 -0.2439  0.1178
 7859TIP3    H147772   3.703   5.287   1.333 -0.1977  0.2566 -0.9089
 7859TIP3    H247773   3.803   5.385   1.389  0.6701 -1.4963  0.7448
 7860TIP3   OH247774   0.907   6.360   0.937 -0.1535  0.1102  0.4073
 7860TIP3    H147775   0.915   6.369   1.032  0.4431  0.8717  0.2905
 7860TIP3    H247776   0.841   6.425   0.912  0.1260  0.3229  0.2254
 7861TIP3   OH247777   3.287   2.692   0.855 -0.5306  0.1898 -0.1018
 7861TIP3    H147778   3.293   2.780   0.817 -1.1519 -0.7198 -2.4645
 7861TIP3    H247779   3.377   2.671   0.882  0.3488  0.3008 -2.6362
 7862TIP3   OH247780   0.431   4.292   3.848 -0.1602 -0.1627  0.0934
 7862TIP3    H147781   0.481   4.216   3.819 -0.8146 -0.8206  0.6763
 7862TIP3    H247782   0.356   4.256   3.895  0.6571  0.8219  2.2956
 7863TIP3   OH247783   2.072   1.065   2.280 -0.1894  0.5360 -0.2622
 7863TIP3    H147784   2.094   1.052   2.188 -1.7974  1.1957 -0.7657
 7863TIP3    H247785   2.106   0.986   2.323  2.9368  1.3505 -0.9181
 7864TIP3   OH247786   6.614   1.528   0.890 -0.0738 -0.6460 -0.5380
 7864TIP3    H147787   6.578   1.600   0.941  0.6423 -0.4863 -0.2514
 7864TIP3    H247788   6.706   1.549   0.878 -0.2136 -0.6883 -1.9005
 7865TIP3   OH247789   2.309   5.983   3.471 -0.4621 -0.0271  0.1769
 7865TIP3    H147790   2.295   6.069   3.432 -0.3882 -0.0129  0.1820
 7865TIP3    H247791   2.331   5.926   3.396 -4.6462 -1.0394 -0.5383
 7866TIP3   OH247792   2.526   6.185   2.828  0.6105 -0.4674  0.0329
 7866TIP3    H147793   2.463   6.165   2.897  0.5802  0.1402  0.1822
 7866TIP3    H247794   2.602   6.130   2.849  1.0295  0.5207  1.1818
 7867TIP3   OH247795   1.020   5.883   0.450  0.1506 -0.3635 -0.2150
 7867TIP3    H147796   1.097   5.832   0.478  1.1733  1.8226  1.2429
 7867TIP3    H247797   1.046   5.918   0.364  0.6251  0.0184  0.0774
 7868TIP3   OH247798   0.584   2.084   0.657  0.1343  0.6367  0.0269
 7868TIP3    H147799   0.627   2.053   0.737  0.5365  0.9908 -0.0484
 7868TIP3    H247800   0.597   2.179   0.658  0.6280  0.5835 -0.7389
 7869TIP3   OH247801   1.146   5.540   2.288 -0.2772  0.1798 -0.3834
 7869TIP3    H147802   1.219   5.537   2.226 -0.7987  3.0324 -1.2590
 7869TIP3    H247803   1.070   5.511   2.237 -0.3236  0.3359 -0.4016
 7870TIP3   OH247804   5.063   0.974   1.550  0.0890  0.0462 -0.1022
 7870TIP3    H147805   5.082   1.039   1.482  0.4279  1.3219  1.1667
 7870TIP3    H247806   5.013   1.022   1.616  3.2570  0.0856  2.5566
 7871TIP3   OH247807   3.676   5.062   2.052 -0.2245  0.3700 -0.0665
 7871TIP3    H147808   3.692   5.117   2.129 -2.8380  0.8572  0.2348
 7871TIP3    H247809   3.683   4.973   2.085 -1.7762  0.5682  0.9244
 7872TIP3   OH247810   6.561   2.726   0.983  0.3157  0.6608 -0.2509
 7872TIP3    H147811   6.500   2.673   0.931  1.0382 -0.0172 -0.4280
 7872TIP3    H247812   6.624   2.760   0.920  0.3655  1.0175 -0.0136
 7873TIP3   OH247813   2.623   0.400   1.353  0.0499 -0.4466 -0.1280
 7873TIP3    H147814   2.630   0.319   1.303  2.5764  0.3849 -1.2827
 7873TIP3    H247815   2.681   0.388   1.428  0.2621  0.2000 -0.1814
 7874TIP3   OH247816   5.933   1.301   3.474  0.8720  0.5492  0.2600
 7874TIP3    H147817   5.970   1.218   3.444  0.2157  0.3076  0.0974
 7874TIP3    H247818   5.840   1.281   3.489  0.7729  1.1822  0.4974
 7875TIP3   OH247819   2.757   2.291   1.775 -1.1095  0.1972  0.0898
 7875TIP3    H147820   2.718   2.368   1.734 -1.4450 -0.0842 -0.1146
 7875TIP3    H247821   2.716   2.216   1.732  0.6134 -0.1272 -1.0972
 7876TIP3   OH247822   5.921   2.943   1.427  0.2743  0.0424  0.2235
 7876TIP3    H147823   5.890   2.891   1.353  1.8057  1.0876 -1.2257
 7876TIP3    H247824   5.855   3.011   1.439  0.1027 -0.0309 -0.3092
 7877TIP3   OH247825   0.291   3.596   0.771 -0.5264  0.1627 -0.1668
 7877TIP3    H147826   0.350   3.549   0.713  0.4471  1.1178  0.0194
 7877TIP3    H247827   0.342   3.611   0.851 -1.6505 -0.6334  0.7388
 7878TIP3   OH247828   5.448   4.232   0.818 -0.3577  0.2128  0.0335
 7878TIP3    H147829   5.505   4.192   0.753  0.3667  0.1472  0.6827
 7878TIP3    H247830   5.463   4.326   0.808 -1.4742  0.2964 -0.9719
 7879TIP3   OH247831   6.128   6.383   1.609 -0.2756 -0.2734 -0.3452
 7879TIP3    H147832   6.147   6.307   1.665  1.3679 -0.3175 -0.9031
 7879TIP3    H247833   6.139   6.458   1.667 -1.3513 -0.4241  0.0697
 7880TIP3   OH247834   1.600   0.115   2.263  0.0547 -0.0560 -0.2533
 7880TIP3    H147835   1.666   0.147   2.202 -0.5885 -1.7754 -1.9692
 7880TIP3    H247836   1.650   0.084   2.338  1.1685 -0.5829 -1.1725
 7881TIP3   OH247837   4.487   5.229   3.166 -0.5469 -0.1064  0.3491
 7881TIP3    H147838   4.484   5.325   3.164  0.0314 -0.0232  1.8782
 7881TIP3    H247839   4.400   5.203   3.196 -1.1508 -0.1498 -1.3665
 7882TIP3   OH247840   6.566   5.090   1.440 -0.3950 -0.3659  0.0412
 7882TIP3    H147841   6.575   5.156   1.370 -1.2858 -1.4311 -1.1206
 7882TIP3    H247842   6.599   5.009   1.401 -1.0780 -1.0266  0.8014
 7883TIP3   OH247843   5.073   3.331   0.525  0.2776 -0.0827 -0.5295
 7883TIP3    H147844   5.091   3.280   0.605  2.1163  0.7713 -0.3356
 7883TIP3    H247845   4.979   3.320   0.510 -0.1237 -0.2740  1.7526
 7884TIP3   OH247846   0.837   0.050   0.672 -0.7956  0.2979 -0.2233
 7884TIP3    H147847   0.914   0.009   0.712 -0.5977 -0.3868 -1.2565
 7884TIP3    H247848   0.804  -0.016   0.612 -2.6660  0.3011  0.7507
 7885TIP3   OH247849   0.595   5.015   1.600  0.0941  0.3395  0.0616
 7885TIP3    H147850   0.656   4.977   1.537  1.0784 -0.9428  1.7118
 7885TIP3    H247851   0.527   5.055   1.546  0.4754 -1.3596 -1.8049
 7886TIP3   OH247852   4.101   6.132   1.646 -0.3405  0.0901 -0.3055
 7886TIP3    H147853   4.124   6.119   1.554 -1.3088  1.4107 -0.7633
 7886TIP3    H247854   4.061   6.219   1.649 -0.8023 -0.1414  1.2774
 7887TIP3   OH247855   2.054   2.393   1.621  0.4481 -0.1116  0.1455
 7887TIP3    H147856   1.978   2.447   1.644 -0.2692 -1.5300  1.1938
 7887TIP3    H247857   2.071   2.414   1.529 -0.1980  1.4164  0.3444
 7888TIP3   OH247858   0.656   4.675   2.878  0.6084 -0.1221 -0.1125
 7888TIP3    H147859   0.695   4.752   2.918  0.4555 -0.1474  0.0859
 7888TIP3    H247860   0.627   4.704   2.791  1.6547 -0.2618 -0.5280
 7889TIP3   OH247861   1.939   2.522   1.953  0.1193 -0.1569 -0.2097
 7889TIP3    H147862   1.940   2.430   1.981  2.0645 -0.5785 -1.4924
 7889TIP3    H247863   1.860   2.529   1.898 -0.5179 -0.8133  0.5878
 7890TIP3   OH247864   5.423   4.470   1.121  0.2742 -0.2035  0.2514
 7890TIP3    H147865   5.488   4.484   1.052  0.6478  0.4650  0.7376
 7890TIP3    H247866   5.447   4.385   1.159  0.6196 -0.1464  0.1671
 7891TIP3   OH247867   2.418   5.305   0.566  0.1786 -0.2339  0.0237
 7891TIP3    H147868   2.478   5.320   0.639  0.4447  1.1357 -0.4641
 7891TIP3    H247869   2.474   5.301   0.489 -0.3838  1.6409 -0.5093
 7892TIP3   OH247870   2.238   6.500   2.538 -0.8525 -0.7769 -0.4473
 7892TIP3    H147871   2.145   6.522   2.540 -0.8449 -0.7725 -0.2122
 7892TIP3    H247872   2.243   6.422   2.483 -1.0407 -1.0140 -0.1270
 7893TIP3   OH247873   4.788   0.710   2.951  0.0107  0.2464  0.3416
 7893TIP3    H147874   4.861   0.766   2.926  0.0076  0.4255  0.7343
 7893TIP3    H247875   4.788   0.641   2.885  0.0739  0.6508 -0.0913
 7894TIP3   OH247876   4.461   1.209   1.816  0.3253  0.0568  0.0827
 7894TIP3    H147877   4.553   1.220   1.840  0.2076  2.3704 -0.2963
 7894TIP3    H247878   4.417   1.187   1.898  1.0021  0.4447  0.5556
 7895TIP3   OH247879   4.950   3.864   1.003  0.6039 -0.1641 -0.2299
 7895TIP3    H147880   4.925   3.786   0.953  0.4772 -0.4801  0.3211
 7895TIP3    H247881   4.889   3.866   1.077  0.7149  0.3652 -0.1486
 7896TIP3   OH247882   1.106   2.851   0.984  0.2514 -0.3160 -0.4841
 7896TIP3    H147883   1.156   2.769   0.986 -1.2015 -1.2519 -0.5762
 7896TIP3    H247884   1.037   2.838   1.050  0.3251  1.0663 -0.1011
 7897TIP3   OH247885   3.347   2.606   3.266 -0.2441 -0.2702 -0.2738
 7897TIP3    H147886   3.285   2.550   3.221  1.5495 -1.6272 -1.1790
 7897TIP3    H247887   3.422   2.550   3.285  1.0219  1.4442  0.1196
 7898TIP3   OH247888   1.181   5.861   1.291 -0.4680  0.3981  0.1486
 7898TIP3    H147889   1.085   5.867   1.297 -0.5336  1.3316 -1.1582
 7898TIP3    H247890   1.213   5.890   1.376 -1.3480 -2.2963  1.5064
 7899TIP3   OH247891   2.569   1.837   1.905 -0.3118  0.1660 -0.3198
 7899TIP3    H147892   2.647   1.812   1.855  0.8356 -0.8372  1.8163
 7899TIP3    H247893   2.496   1.820   1.845  0.8139 -3.0682 -1.0127
 7900TIP3   OH247894   1.489   6.346   1.549 -0.2574  0.4866  0.2997
 7900TIP3    H147895   1.516   6.347   1.457  0.2133  0.6615  0.4359
 7900TIP3    H247896   1.565   6.380   1.596 -0.4280  0.2156  0.7724
 7901TIP3   OH247897   4.912   3.635   0.834  0.8045 -0.2087 -0.2612
 7901TIP3    H147898   4.859   3.663   0.759 -0.1223  0.3123  0.5643
 7901TIP3    H247899   4.890   3.543   0.845  0.8491 -0.2568 -0.5566
 7902TIP3   OH247900   1.178   0.466   3.637 -0.0776 -0.3299 -0.2480
 7902TIP3    H147901   1.147   0.383   3.675 -0.6552  0.2625  0.6026
 7902TIP3    H247902   1.100   0.520   3.630  0.5667  0.8130  0.9534
 7903TIP3   OH247903   3.840   2.939   3.191  0.6334  0.0737  0.1162
 7903TIP3    H147904   3.767   2.887   3.156  0.0471  1.5366 -0.9395
 7903TIP3    H247905   3.856   2.902   3.278 -0.1113 -1.4915 -0.3735
 7904TIP3   OH247906   6.326   1.756   2.043 -0.7838 -0.4895 -0.5870
 7904TIP3    H147907   6.298   1.809   1.968  0.5489  0.4957 -0.4364
 7904TIP3    H247908   6.336   1.819   2.114 -1.2106 -1.2833  0.1887
 7905TIP3   OH247909   3.153   2.691   1.217 -0.6364  0.4223 -0.0504
 7905TIP3    H147910   3.086   2.653   1.160 -0.0315  0.1658 -0.6084
 7905TIP3    H247911   3.216   2.732   1.156  0.0380  0.1131  0.4279
 7906TIP3   OH247912   3.226   1.823   2.929  0.2730  0.2587  0.3446
 7906TIP3    H147913   3.156   1.886   2.916 -0.9450 -1.1276 -0.1709
 7906TIP3    H247914   3.304   1.864   2.890 -0.5132  1.3585 -0.0971
 7907TIP3   OH247915   6.090   3.993  10.239 -0.1530 -0.2219  0.0941
 7907TIP3    H147916   6.079   4.053  10.313 -0.3134 -0.0391 -0.0758
 7907TIP3    H247917   6.134   3.917  10.276 -1.2391 -0.6153  0.6178
 7908TIP3   OH247918   5.960   6.841   1.955  0.0157 -0.2830 -0.4815
 7908TIP3    H147919   5.873   6.876   1.931  0.2496 -1.4137 -3.4834
 7908TIP3    H247920   6.017   6.917   1.951 -0.8285  0.5611  1.9475
 7909TIP3   OH247921   0.912   6.555   3.167  0.1507  0.5452 -0.6774
 7909TIP3    H147922   0.881   6.629   3.115 -1.0022 -0.0574 -0.8777
 7909TIP3    H247923   1.000   6.537   3.134  0.9328  2.5041  0.1161
 7910TIP3   OH247924   1.856   3.092   1.964  0.4169  0.2783  0.3642
 7910TIP3    H147925   1.763   3.114   1.955  0.3361  0.2896  1.0973
 7910TIP3    H247926   1.903   3.172   1.939  0.1953  0.5568  0.8192
 7911TIP3   OH247927   5.819   0.378   0.989 -0.9861  0.0061  0.4009
 7911TIP3    H147928   5.726   0.401   0.985 -1.2823 -1.2053 -3.1477
 7911TIP3    H247929   5.821   0.287   1.018 -0.8320  0.2562  1.1913
 7912TIP3   OH247930   4.649   0.787   3.177  0.0867 -0.4842  0.2583
 7912TIP3    H147931   4.726   0.758   3.128  0.1465  2.5293 -1.6862
 7912TIP3    H247932   4.671   0.772   3.269  3.0486  0.3162 -0.2269
 7913TIP3   OH247933   4.286   1.656   0.849 -0.1136  0.2401 -0.4461
 7913TIP3    H147934   4.335   1.584   0.890 -0.6378  0.4698  0.6153
 7913TIP3    H247935   4.221   1.681   0.915  0.3890  2.0279 -0.5765
 7914TIP3   OH247936   2.363   1.507   2.172 -0.1409 -0.1874 -0.0311
 7914TIP3    H147937   2.454   1.536   2.173 -0.5530  1.1771  0.1106
 7914TIP3    H247938   2.349   1.468   2.258 -0.4016  2.0488  1.0085
 7915TIP3   OH247939   2.446   4.003   3.198 -0.4103  0.1037 -0.4090
 7915TIP3    H147940   2.375   3.965   3.250 -0.6996  0.8179 -0.2679
 7915TIP3    H247941   2.499   4.052   3.261  0.8595 -1.3076 -0.3230
 7916TIP3   OH247942   3.499   5.738   2.035 -0.7287  0.4344 -0.1207
 7916TIP3    H147943   3.589   5.704   2.034 -1.4172 -1.5671  0.3222
 7916TIP3    H247944   3.504   5.821   1.988  1.4207  0.5688  0.2331
 7917TIP3   OH247945   5.169   5.387   3.226  0.0454  0.2707  0.1413
 7917TIP3    H147946   5.211   5.317   3.275  1.6919 -0.1617 -1.7495
 7917TIP3    H247947   5.237   5.452   3.212 -0.9719  1.4016  0.2725
 7918TIP3   OH247948   2.520   1.136   0.547 -0.1237  0.2137 -0.1080
 7918TIP3    H147949   2.562   1.099   0.469 -1.8271  0.1151 -1.0227
 7918TIP3    H247950   2.555   1.225   0.554  0.3116  0.0982 -0.7776
 7919TIP3   OH247951   1.841   0.820   1.774 -0.2093  0.2051  0.2625
 7919TIP3    H147952   1.925   0.840   1.816  0.2656  1.6063 -1.2575
 7919TIP3    H247953   1.778   0.877   1.819 -0.1001  0.1344  0.5063
 7920TIP3   OH247954   5.446   2.667   2.156 -0.5220 -0.1038 -0.0616
 7920TIP3    H147955   5.510   2.606   2.191 -0.7162 -0.2792 -0.0076
 7920TIP3    H247956   5.494   2.749   2.144  0.2940 -0.8467 -2.1859
 7921TIP3   OH247957   2.614   5.980   1.723 -0.3722  0.5500  0.6879
 7921TIP3    H147958   2.578   5.892   1.712 -2.0596  1.5185 -3.4815
 7921TIP3    H247959   2.708   5.967   1.731 -0.7284 -1.6460  2.0783
 7922TIP3   OH247960   2.806   2.995   1.196 -0.1116  0.5305  0.0027
 7922TIP3    H147961   2.793   2.901   1.209 -0.0825  0.4999 -0.1897
 7922TIP3    H247962   2.876   3.001   1.131 -0.8615  0.6783 -0.8033
 7923TIP3   OH247963   5.572   6.548   3.822  0.0936  0.3967  0.1355
 7923TIP3    H147964   5.659   6.524   3.855  0.7814  1.4847 -0.8379
 7923TIP3    H247965   5.515   6.539   3.899  0.4532 -3.1732  0.1416
 7924TIP3   OH247966   4.817   1.861   1.420  0.0932 -0.1375  0.5697
 7924TIP3    H147967   4.737   1.825   1.457 -0.5607  1.6592  1.0244
 7924TIP3    H247968   4.831   1.943   1.468  1.0480  0.6216 -0.9207
 7925TIP3   OH247969   4.953   5.537   1.297  0.2745  0.1831  0.2097
 7925TIP3    H147970   4.926   5.625   1.323  2.5834  1.3641 -1.0535
 7925TIP3    H247971   4.979   5.546   1.205  1.6156 -1.5324  0.3634
 7926TIP3   OH247972   2.099   1.100   0.934 -0.1086 -0.2287 -0.0016
 7926TIP3    H147973   2.012   1.086   0.896 -0.5520 -0.0368  0.9020
 7926TIP3    H247974   2.149   1.023   0.909 -1.1364 -1.2819  1.0937
 7927TIP3   OH247975   6.552   1.012   2.295  0.8926 -0.0744  0.3625
 7927TIP3    H147976   6.646   1.007   2.312  1.0825 -0.4894 -0.6958
 7927TIP3    H247977   6.512   1.022   2.381  1.9057  0.1160  0.8245
 7928TIP3   OH247978   4.279   0.743   2.840 -0.1952 -0.2777 -0.2124
 7928TIP3    H147979   4.373   0.764   2.842  0.4740 -2.7963  2.3325
 7928TIP3    H247980   4.247   0.771   2.926 -1.1849 -1.5485 -0.1438
 7929TIP3   OH247981   5.534   0.443   3.052  0.2537 -0.2015  0.3101
 7929TIP3    H147982   5.497   0.463   3.138  0.2994 -1.0018  0.5233
 7929TIP3    H247983   5.617   0.399   3.071  0.0477 -0.7892 -0.1362
 7930TIP3   OH247984   4.580   6.052   1.442  0.2893  0.1793  0.4806
 7930TIP3    H147985   4.618   6.064   1.355  1.4630  0.1056  0.9780
 7930TIP3    H247986   4.550   5.961   1.442  0.8340 -0.0035  0.3650
 7931TIP3   OH247987   2.764   3.989   3.080 -0.6000 -0.2759  0.3819
 7931TIP3    H147988   2.692   3.978   3.017 -0.7454 -0.2480  0.5437
 7931TIP3    H247989   2.839   3.947   3.037 -0.2646  1.1980 -0.5517
 7932TIP3   OH247990   3.490   3.937   2.254  0.7274  0.2283  0.0246
 7932TIP3    H147991   3.553   3.929   2.326  0.5650  0.5840  0.2122
 7932TIP3    H247992   3.405   3.941   2.297  0.7383  2.3224 -0.0383
 7933TIP3   OH247993   3.531   1.662   1.725 -0.6096 -0.5136  0.7603
 7933TIP3    H147994   3.455   1.614   1.690 -0.0991 -0.8077  0.0295
 7933TIP3    H247995   3.544   1.734   1.664 -0.4835 -0.2921  1.0499
 7934TIP3   OH247996   2.708   1.645   3.290  0.0956 -0.2886  0.4500
 7934TIP3    H147997   2.644   1.620   3.223  0.1340  3.0222 -0.9771
 7934TIP3    H247998   2.792   1.649   3.243  0.8649 -1.6409  1.6270
 7935TIP3   OH247999   5.196   5.546   2.437 -0.6434 -0.0993 -0.3309
 7935TIP3    H148000   5.276   5.507   2.401 -1.1368 -1.0324 -0.4546
 7935TIP3    H248001   5.214   5.555   2.531 -0.1739  0.2484 -0.4545
 7936TIP3   OH248002   6.738   4.306   1.018 -0.1098  0.1234 -0.4707
 7936TIP3    H148003   6.688   4.231   0.985  2.0812 -2.3323  1.3340
 7936TIP3    H248004   6.705   4.320   1.106 -0.2530  1.0764 -0.6670
 7937TIP3   OH248005   3.659   3.863   1.051 -0.3785  0.2815  0.3141
 7937TIP3    H148006   3.666   3.865   0.956 -1.8693  0.5972  0.1921
 7937TIP3    H248007   3.595   3.930   1.072  0.1205  0.3966  1.5790
 7938TIP3   OH248008   0.007   2.129   3.444 -0.0927 -0.0454  0.1128
 7938TIP3    H148009  -0.050   2.079   3.503 -1.1394  0.4910 -0.4140
 7938TIP3    H248010  -0.019   2.220   3.458  1.0917  0.2780  0.3144
 7939TIP3   OH248011   1.958   4.363   3.063 -0.3001  0.4983 -0.1627
 7939TIP3    H148012   2.032   4.302   3.071  1.0633  1.9891 -0.8453
 7939TIP3    H248013   1.959   4.414   3.144 -1.9782 -0.8779  0.7960
 7940TIP3   OH248014   1.193   5.565   3.386 -0.0614  0.5772 -0.6790
 7940TIP3    H148015   1.285   5.562   3.410 -0.6245  0.1428  1.6858
 7940TIP3    H248016   1.167   5.656   3.402 -0.1813  0.5522 -0.7281
 7941TIP3   OH248017   4.752   3.256   2.091 -0.1411  0.0958 -0.6476
 7941TIP3    H148018   4.815   3.294   2.030  0.3248  0.0353 -0.2146
 7941TIP3    H248019   4.686   3.215   2.036  0.1448  0.2536 -1.1079
 7942TIP3   OH248020   5.720   6.368   0.590 -0.2282  0.2335  0.3142
 7942TIP3    H148021   5.670   6.406   0.661 -0.5315 -0.4765  0.4894
 7942TIP3    H248022   5.745   6.442   0.534  0.3554  0.8471  1.3674
 7943TIP3   OH248023   0.404   6.009   2.769  0.5348 -0.5499  0.0998
 7943TIP3    H148024   0.331   5.962   2.729 -1.5517 -0.5875  3.5001
 7943TIP3    H248025   0.394   6.099   2.739 -0.3566 -0.7415 -0.2163
 7944TIP3   OH248026   4.334   3.439   3.321  0.3518  0.4274  0.6500
 7944TIP3    H148027   4.378   3.487   3.391 -1.5999  0.9373  1.5947
 7944TIP3    H248028   4.267   3.499   3.289 -0.3937 -0.6963  0.0223
 7945TIP3   OH248029   4.056   5.067   0.590 -0.3716  0.2847  0.0871
 7945TIP3    H148030   4.028   5.158   0.586 -0.5050  0.2743  0.7540
 7945TIP3    H248031   3.988   5.022   0.640  0.5228  0.1431  1.2067
 7946TIP3   OH248032   0.980   0.971   0.732 -0.0493 -0.2250  0.0176
 7946TIP3    H148033   0.909   0.976   0.796 -1.0045 -1.4750 -0.8732
 7946TIP3    H248034   1.049   1.027   0.767 -1.2402  0.5434  1.2219
 7947TIP3   OH248035   5.104   5.160   3.393 -0.0948 -0.3527  0.1066
 7947TIP3    H148036   5.178   5.190   3.446  0.0239  1.8243 -1.1754
 7947TIP3    H248037   5.030   5.213   3.424 -1.2866 -2.6898  1.5690
 7948TIP3   OH248038   0.495   0.978   3.533  0.4598 -0.6670  0.5040
 7948TIP3    H148039   0.549   0.908   3.498 -0.6315 -1.8446  1.0922
 7948TIP3    H248040   0.432   0.998   3.464  1.6724  0.7792 -0.2230
 7949TIP3   OH248041   0.587   4.951   0.928 -0.0942 -0.2492 -0.6049
 7949TIP3    H148042   0.546   4.865   0.941  0.8473 -0.8933 -1.7378
 7949TIP3    H248043   0.646   4.961   1.002 -2.3541  0.7812  1.1709
 7950TIP3   OH248044   1.164   0.689   2.696 -0.4566  0.4608  0.1539
 7950TIP3    H148045   1.144   0.629   2.624  1.4970 -2.3808  1.7847
 7950TIP3    H248046   1.242   0.736   2.667  0.0556 -0.3415  0.2108
 7951TIP3   OH248047   1.143   2.938   3.624  0.1436  0.0496 -0.5289
 7951TIP3    H148048   1.189   2.903   3.547  1.7288 -0.8731  0.7796
 7951TIP3    H248049   1.163   3.032   3.623  0.0775  0.0649 -1.2712
 7952TIP3   OH248050   1.356   4.079   2.407 -0.1471  0.4227 -0.3124
 7952TIP3    H148051   1.296   4.139   2.451 -1.2531 -0.6630 -0.3075
 7952TIP3    H248052   1.300   4.013   2.367  1.0546 -0.8599  0.0417
 7953TIP3   OH248053   2.005   0.963   2.824  0.3366  0.7072  0.1447
 7953TIP3    H148054   2.010   1.032   2.758  0.5653  2.6466  2.0527
 7953TIP3    H248055   1.919   0.974   2.864  1.0782  1.1139  1.6851
 7954TIP3   OH248056   6.109   6.499   0.588 -0.0225 -0.2435  0.4217
 7954TIP3    H148057   6.201   6.524   0.575 -0.2746  1.1530  1.1127
 7954TIP3    H248058   6.059   6.577   0.562 -0.9650 -0.6469  0.9813
 7955TIP3   OH248059   4.180   6.440   1.872  0.0605  0.3537 -0.1554
 7955TIP3    H148060   4.169   6.534   1.883  1.2359  0.4005  0.8663
 7955TIP3    H248061   4.248   6.432   1.804  0.8956  0.2861  0.6717
 7956TIP3   OH248062   2.417   5.112   2.673  0.4519 -0.2197 -0.0054
 7956TIP3    H148063   2.368   5.175   2.726 -0.7202  0.2195 -1.5152
 7956TIP3    H248064   2.488   5.163   2.636 -0.2833  0.1636 -0.9343
 7957TIP3   OH248065   1.563   6.547   3.930  0.5097 -0.2625  0.0317
 7957TIP3    H148066   1.644   6.597   3.941 -0.4749  2.0186 -1.9750
 7957TIP3    H248067   1.509   6.571   4.005  0.5878  0.6239 -0.1859
 7958TIP3   OH248068   1.787   4.477   1.409 -0.4166  0.4805 -0.1867
 7958TIP3    H148069   1.858   4.537   1.387  0.2865  0.8322  2.6170
 7958TIP3    H248070   1.707   4.527   1.390  0.1465  1.6231  0.2923
 7959TIP3   OH248071   2.192   3.384   1.498 -0.4424  0.4237  0.1377
 7959TIP3    H148072   2.216   3.475   1.478  2.8654 -0.0795  1.2976
 7959TIP3    H248073   2.133   3.392   1.574  0.0771  1.6154  0.4474
 7960TIP3   OH248074   1.346   2.828   2.506  0.4395  0.4195 -0.2839
 7960TIP3    H148075   1.353   2.872   2.421 -0.8725 -0.1545 -0.7158
 7960TIP3    H248076   1.356   2.898   2.570 -0.7410  1.2208 -0.9460
 7961TIP3   OH248077   2.797   1.941   3.084  0.0533 -0.1807 -0.3777
 7961TIP3    H148078   2.737   1.914   3.015  0.5133  2.3668 -1.8884
 7961TIP3    H248079   2.742   1.950   3.162 -1.3051  0.7695 -1.3953
 7962TIP3   OH248080   5.327   3.364   0.409 -0.0076  0.2426  0.6306
 7962TIP3    H148081   5.235   3.342   0.427 -0.3758 -0.3149 -1.7044
 7962TIP3    H248082   5.377   3.294   0.451 -0.7624 -0.5747  0.1843
 7963TIP3   OH248083   1.301   2.025   3.525  0.0226 -0.6122  0.5305
 7963TIP3    H148084   1.274   2.064   3.442  0.3423  0.1727  0.7875
 7963TIP3    H248085   1.360   1.954   3.499 -1.2132 -1.5062  0.0232
 7964TIP3   OH248086   4.675   3.150   0.419  0.2052  0.0345  1.1138
 7964TIP3    H148087   4.729   3.217   0.460  0.5014  0.0142  0.7624
 7964TIP3    H248088   4.737   3.080   0.397  0.3195  0.6561 -0.7101
 7965TIP3   OH248089   3.328   1.464   0.698  0.3101  0.4004 -0.1374
 7965TIP3    H148090   3.296   1.472   0.787  0.0260  0.3126 -0.2316
 7965TIP3    H248091   3.423   1.464   0.707  0.2790 -0.0253  0.1992
 7966TIP3   OH248092   5.547   2.248   2.884 -0.2333  0.1328 -0.3727
 7966TIP3    H148093   5.525   2.227   2.975  1.7555  0.1613  0.1677
 7966TIP3    H248094   5.632   2.205   2.870 -0.1838  0.7081 -2.0031
 7967TIP3   OH248095   5.748   5.096   1.761 -0.1412  0.0557 -0.2423
 7967TIP3    H148096   5.674   5.062   1.711 -2.4048  0.4808  2.5530
 7967TIP3    H248097   5.775   5.175   1.714 -0.8084 -0.6054 -1.8162
 7968TIP3   OH248098   4.758   5.281   1.579  0.5367 -0.0929  0.2117
 7968TIP3    H148099   4.764   5.358   1.523 -0.2979  0.2617  0.5908
 7968TIP3    H248100   4.795   5.210   1.527 -0.9490  0.0604 -1.1347
 7969TIP3   OH248101   5.303   3.913   2.196 -0.0177 -0.0729  0.5472
 7969TIP3    H148102   5.248   3.836   2.208 -1.7152  1.0903  0.5931
 7969TIP3    H248103   5.393   3.881   2.206 -0.5976 -2.2566 -0.7353
 7970TIP3   OH248104   2.815   1.759   1.794 -0.3221  0.0904  0.3757
 7970TIP3    H148105   2.833   1.666   1.809  1.1229  0.2795 -0.0067
 7970TIP3    H248106   2.866   1.781   1.716 -1.8149  0.8725 -0.4232
 7971TIP3   OH248107   6.419   3.717   3.331 -0.2217 -0.5195  0.2361
 7971TIP3    H148108   6.501   3.755   3.362 -0.5779  2.6980 -2.2595
 7971TIP3    H248109   6.444   3.669   3.252 -0.7304  0.9820 -0.8796
 7972TIP3   OH248110   4.969   2.478   3.258 -1.0823 -0.0386  0.6995
 7972TIP3    H148111   4.980   2.438   3.345 -0.2360 -0.7175  0.2933
 7972TIP3    H248112   4.886   2.441   3.226 -0.7812 -0.7617  0.7211
 7973TIP3   OH248113   6.062   6.148   2.774 -0.6779 -0.0334  0.3338
 7973TIP3    H148114   5.986   6.093   2.752  0.3246 -1.8144  1.0894
 7973TIP3    H248115   6.132   6.085   2.790  1.4088  1.5630 -1.7770
 7974TIP3   OH248116   6.315   3.007   0.703 -0.3641 -0.3748 -0.1308
 7974TIP3    H148117   6.336   3.020   0.795  2.2098  0.2224 -0.7111
 7974TIP3    H248118   6.245   3.069   0.684  2.0632  2.8247  0.4644
 7975TIP3   OH248119   2.168   5.630   1.809  0.1533 -0.0040 -0.2408
 7975TIP3    H148120   2.200   5.584   1.886 -0.2082  0.2771  0.0797
 7975TIP3    H248121   2.147   5.561   1.746 -3.0526 -0.5315  1.2081
 7976TIP3   OH248122   2.750   4.178   1.263  0.3545  0.4521  0.2735
 7976TIP3    H148123   2.742   4.091   1.302  1.3394  0.7365  1.1521
 7976TIP3    H248124   2.741   4.163   1.169  1.0710 -0.6801  0.3690
 7977TIP3   OH248125   5.321   1.188   1.777 -0.2489 -0.1402 -0.6050
 7977TIP3    H148126   5.335   1.233   1.694  1.9149  2.6754  1.0830
 7977TIP3    H248127   5.254   1.240   1.821 -0.0191 -0.4470  0.1216
 7978TIP3   OH248128   4.542   5.281   0.924 -0.6420 -0.1135  0.3453
 7978TIP3    H148129   4.591   5.224   0.865  0.1389  1.2677 -0.4053
 7978TIP3    H248130   4.459   5.236   0.939  0.0959 -1.6036  0.0951
 7979TIP3   OH248131   0.177   4.105   3.652  0.5422 -0.4340 -0.6966
 7979TIP3    H148132   0.195   4.059   3.570 -1.4904 -0.8855 -0.9580
 7979TIP3    H248133   0.214   4.192   3.639  1.5492 -0.9612 -1.5067
 7980TIP3   OH248134   2.328   4.238   2.821  0.0713 -0.2856 -0.1915
 7980TIP3    H148135   2.249   4.184   2.824 -1.1095  1.3332 -0.5149
 7980TIP3    H248136   2.296   4.327   2.834  1.6158  0.6236 -2.0539
 7981TIP3   OH248137   3.476   5.633   2.293 -0.2853 -0.0604  0.2684
 7981TIP3    H148138   3.419   5.568   2.253 -0.0328 -0.2123  0.1523
 7981TIP3    H248139   3.488   5.699   2.225 -0.2439 -0.0784  0.2580
 7982TIP3   OH248140   4.660   1.318   0.586  0.0951  0.0788 -0.3256
 7982TIP3    H148141   4.615   1.244   0.628 -1.0413  1.0304  0.2214
 7982TIP3    H248142   4.610   1.334   0.506 -0.5618  1.1148  0.2601
 7983TIP3   OH248143   1.519   4.534   3.426 -0.2250  0.0279  0.2534
 7983TIP3    H148144   1.605   4.498   3.450  0.5012 -0.1055 -2.3088
 7983TIP3    H248145   1.457   4.480   3.475  1.0550 -1.6729  0.1172
 7984TIP3   OH248146   4.812   0.957   3.367 -0.2101  0.0275  0.4728
 7984TIP3    H148147   4.779   0.963   3.457 -0.6675 -0.2942  0.3308
 7984TIP3    H248148   4.874   0.884   3.369 -0.2205  0.0201  0.5270
 7985TIP3   OH248149   5.325   4.212   1.724 -0.1613  0.8404  0.1512
 7985TIP3    H148150   5.312   4.125   1.685  2.0177  0.3287  0.4359
 7985TIP3    H248151   5.237   4.240   1.749 -1.0723 -0.7465 -1.0485
 7986TIP3   OH248152   6.542   3.634   2.431 -0.6290 -0.2488  0.0879
 7986TIP3    H148153   6.529   3.551   2.385 -0.2792  0.1797 -0.7962
 7986TIP3    H248154   6.550   3.700   2.362  1.5841  0.1950  0.6917
 7987TIP3   OH248155   4.417   2.410   3.004  0.0007 -0.2938 -0.1479
 7987TIP3    H148156   4.504   2.437   3.032 -0.3975  0.0165  0.8383
 7987TIP3    H248157   4.373   2.383   3.085  0.1009 -3.1608 -0.9352
 7988TIP3   OH248158   0.409   4.498   2.369  0.0310  0.6183 -0.6610
 7988TIP3    H148159   0.344   4.433   2.342 -0.4504  1.0174 -0.4794
 7988TIP3    H248160   0.440   4.537   2.288  1.8750 -1.2700 -0.9539
 7989TIP3   OH248161   4.857   3.611   0.564  0.7308  0.4452  0.7459
 7989TIP3    H148162   4.921   3.637   0.497 -1.4285 -0.2951 -1.7640
 7989TIP3    H248163   4.838   3.519   0.545 -2.6302  1.1786 -0.0624
 7990TIP3   OH248164   1.986   3.685   3.291 -0.4413 -0.2990  0.7616
 7990TIP3    H148165   2.051   3.630   3.335 -0.4535 -0.2473  0.8435
 7990TIP3    H248166   2.032   3.767   3.273  0.9782 -1.7417 -3.1743
 7991TIP3   OH248167   6.013   6.422   1.931 -0.1687  0.6395 -0.0695
 7991TIP3    H148168   5.977   6.483   1.995  2.0708  2.6932 -0.5881
 7991TIP3    H248169   6.034   6.344   1.981 -0.3492  1.4287  1.2799
 7992TIP3   OH248170   0.011   2.803   1.014  0.3522  0.1074  0.2908
 7992TIP3    H148171  -0.028   2.827   0.930 -0.1869  0.1226  0.5350
 7992TIP3    H248172  -0.045   2.846   1.079  1.5917  1.2784  0.6244
 7993TIP3   OH248173   3.654   4.781   2.454 -0.3377 -0.0365 -0.8746
 7993TIP3    H148174   3.738   4.813   2.421 -0.1401 -0.9515 -1.2905
 7993TIP3    H248175   3.647   4.819   2.542  1.4842 -1.5678 -0.0001
 7994TIP3   OH248176   0.054   0.186   3.258  0.1867 -0.0420  0.0286
 7994TIP3    H148177   0.061   0.090   3.256  0.3758 -0.0367  0.3762
 7994TIP3    H248178  -0.040   0.202   3.270 -0.0292 -0.1579 -1.3108
 7995TIP3   OH248179   3.567   0.523   2.366  0.1848 -0.6386  0.2005
 7995TIP3    H148180   3.559   0.502   2.273  0.6158 -0.3826  0.1056
 7995TIP3    H248181   3.478   0.545   2.393  0.1277 -0.3001 -0.2513
 7996TIP3   OH248182   4.780   1.305   3.562  0.3447 -0.2358 -0.3701
 7996TIP3    H148183   4.702   1.332   3.610 -1.0029 -1.6811 -1.6133
 7996TIP3    H248184   4.822   1.240   3.618 -0.3288 -0.7383 -0.4364
 7997TIP3   OH248185   3.012   0.538   2.810 -0.6448 -0.2301  0.3956
 7997TIP3    H148186   3.045   0.482   2.740  0.7828  1.8511 -0.7057
 7997TIP3    H248187   2.920   0.554   2.787 -0.5704 -0.7023 -0.2395
 7998TIP3   OH248188   6.688   4.265   3.039  0.9244 -0.0261 -0.1797
 7998TIP3    H148189   6.639   4.321   2.980 -2.9338 -0.5265  2.2012
 7998TIP3    H248190   6.749   4.325   3.084 -1.6740  2.0042  0.8889
 7999TIP3   OH248191   1.455   3.791   3.003 -0.0385 -0.1118  0.0048
 7999TIP3    H148192   1.365   3.771   3.026 -0.5384  0.2804 -1.4944
 7999TIP3    H248193   1.492   3.832   3.081 -1.2916  0.1460  0.4743
 8000TIP3   OH248194   1.137   2.477   1.374  0.0629 -0.1282  0.0257
 8000TIP3    H148195   1.042   2.480   1.357 -0.0931 -1.3561  0.5693
 8000TIP3    H248196   1.149   2.397   1.425  1.3644  0.1808  0.2183
 8001TIP3   OH248197   5.769   0.560   3.222  0.3698  0.1060  0.1554
 8001TIP3    H148198   5.767   0.617   3.145  0.5000  1.3201  1.0040
 8001TIP3    H248199   5.776   0.472   3.187 -2.5477  0.3437 -1.3155
 8002TIP3   OH248200   2.238   0.838   2.375 -0.2603 -0.7929  0.1819
 8002TIP3    H148201   2.242   0.835   2.471  0.2330 -0.8819  0.1595
 8002TIP3    H248202   2.327   0.861   2.348 -0.5899  0.0582 -0.2209
 8003TIP3   OH248203   6.605   5.991   3.121  0.1392 -0.5478 -0.0177
 8003TIP3    H148204   6.513   5.967   3.133 -0.6773  1.7949 -1.1016
 8003TIP3    H248205   6.628   5.955   3.035  0.1274 -0.7564  0.0641
 8004TIP3   OH248206   5.683   1.752   4.169 -0.4235  0.4067 -0.2644
 8004TIP3    H148207   5.664   1.706   4.251  0.6910 -1.1541 -0.8273
 8004TIP3    H248208   5.747   1.819   4.194 -1.2972  1.0203  0.3967
 8005TIP3   OH248209   2.681   4.936   3.074  0.4383  0.3458 -0.2082
 8005TIP3    H148210   2.753   4.884   3.110 -1.2679 -1.3722  0.9368
 8005TIP3    H248211   2.710   5.027   3.084  2.7070 -0.2890 -0.4353
 8006TIP3   OH248212   1.455   1.477   1.221  0.1035  0.3697  0.2100
 8006TIP3    H148213   1.549   1.490   1.221  0.2194 -0.3998  0.1572
 8006TIP3    H248214   1.428   1.489   1.312  0.6291 -1.8425  0.7066
 8007TIP3   OH248215   2.805   3.985   0.675 -0.6162 -0.2448  0.2649
 8007TIP3    H148216   2.811   4.079   0.688 -2.8159 -0.3444  2.5296
 8007TIP3    H248217   2.713   3.968   0.654 -0.7558 -2.0456  1.9689
 8008TIP3   OH248218   5.874   2.040   2.192 -0.1763 -0.6977 -0.2419
 8008TIP3    H148219   5.916   2.071   2.272  0.1728 -0.2583 -0.5862
 8008TIP3    H248220   5.899   2.104   2.126  1.0810 -2.0021 -1.1233
 8009TIP3   OH248221   6.132   4.277   2.100  0.1944  0.5703 -0.1478
 8009TIP3    H148222   6.192   4.215   2.059 -1.0127 -0.0193 -1.0892
 8009TIP3    H248223   6.045   4.243   2.079 -0.4808  1.8320  0.5154
 8010TIP3   OH248224   5.613   1.224   3.846  0.6735 -0.1625  0.1708
 8010TIP3    H148225   5.620   1.133   3.818  2.2637  0.0750 -0.3218
 8010TIP3    H248226   5.537   1.226   3.905  2.2839 -2.4196  2.5324
 8011TIP3   OH248227   1.346   3.621   2.108 -0.3015  0.1858 -0.1255
 8011TIP3    H148228   1.331   3.557   2.178  0.3867  0.1442 -0.0130
 8011TIP3    H248229   1.428   3.663   2.132 -1.0517  1.5624  0.1374
 8012TIP3   OH248230   1.892   5.895   1.116  0.5550 -0.3103 -0.4966
 8012TIP3    H148231   1.907   5.971   1.060  0.2479 -0.9652 -1.5021
 8012TIP3    H248232   1.868   5.825   1.055  1.1326 -1.2974  0.3745
 8013TIP3   OH248233   1.979   1.883   1.528  0.6012  0.1003  0.8968
 8013TIP3    H148234   1.988   1.937   1.607  2.5121 -0.1386  0.8909
 8013TIP3    H248235   2.023   1.801   1.551  0.0879 -0.4407 -0.0159
 8014TIP3   OH248236   6.816   4.103   2.454  0.3143 -0.6067  0.1000
 8014TIP3    H148237   6.787   4.018   2.489  0.7034 -1.4153 -1.4535
 8014TIP3    H248238   6.805   4.095   2.359  1.2899  0.7372 -0.1496
 8015TIP3   OH248239   5.867   4.105   2.772 -0.7250  0.2565 -0.0089
 8015TIP3    H148240   5.826   4.041   2.831 -1.8610  2.0596  1.2702
 8015TIP3    H248241   5.849   4.189   2.813  0.8220  1.4101 -1.5813
 8016TIP3   OH248242   2.426   0.636   1.757  0.3840 -0.0741  0.3267
 8016TIP3    H148243   2.331   0.647   1.748  0.5052  0.2532 -0.7184
 8016TIP3    H248244   2.442   0.546   1.729  0.5380  0.3251 -0.9024
 8017TIP3   OH248245   3.479   0.035   1.295 -0.9227  0.0615 -0.2505
 8017TIP3    H148246   3.481  -0.026   1.221  1.3673  0.3616 -0.5032
 8017TIP3    H248247   3.431  -0.011   1.363 -0.7030 -1.3393 -1.0153
 8018TIP3   OH248248   4.347   0.526   1.288  0.5862 -0.0928 -0.1913
 8018TIP3    H148249   4.301   0.448   1.317  0.0339  0.6566  1.0344
 8018TIP3    H248250   4.287   0.567   1.224 -0.0099  0.3213  0.6088
 8019TIP3   OH248251   6.014   6.156   2.073  0.2178  0.7584 -0.4335
 8019TIP3    H148252   6.058   6.071   2.069 -1.2886 -0.0043 -2.8171
 8019TIP3    H248253   5.930   6.138   2.115 -0.8710  0.6060 -2.5339
 8020TIP3   OH248254   2.413   3.530   2.951 -0.0683  0.6372 -0.3835
 8020TIP3    H148255   2.405   3.564   2.862  0.6840  0.0291 -0.6901
 8020TIP3    H248256   2.497   3.485   2.953 -1.1802 -1.6054 -0.1402
 8021TIP3   OH248257   2.393   3.274   2.761  1.0279 -0.3028  0.4014
 8021TIP3    H148258   2.414   3.195   2.810 -1.7605  0.5358  3.2462
 8021TIP3    H248259   2.463   3.336   2.782  1.4108 -0.9181  0.9326
 8022TIP3   OH248260   4.675   3.392   2.312 -0.1213  0.4407 -0.0052
 8022TIP3    H148261   4.636   3.471   2.274  1.5510  0.7246 -1.2979
 8022TIP3    H248262   4.716   3.348   2.237  0.4723 -0.7273  0.9795
 8023TIP3   OH248263   0.572   0.973   2.421  0.3473  0.0694 -0.2291
 8023TIP3    H148264   0.523   0.911   2.475  1.9483 -0.3118  0.8728
 8023TIP3    H248265   0.578   0.930   2.335 -0.6145 -0.1831 -0.1796
 8024TIP3   OH248266   3.709   4.932   1.077 -0.1216 -0.4221  0.1020
 8024TIP3    H148267   3.749   4.899   1.158 -0.0410  0.7162  0.5393
 8024TIP3    H248268   3.641   4.992   1.106 -0.2259 -0.1474 -0.6811
 8025TIP3   OH248269   0.306   5.038   1.968 -0.2851  0.1416 -0.3592
 8025TIP3    H148270   0.294   5.030   1.874 -1.6174  1.3236 -0.3295
 8025TIP3    H248271   0.299   4.948   2.001  1.1809 -0.4057 -1.4615
 8026TIP3   OH248272   1.933   4.990   1.954  0.2504 -0.3567 -0.2591
 8026TIP3    H148273   2.016   4.977   2.000  0.4846 -0.7907 -0.7842
 8026TIP3    H248274   1.935   4.925   1.883 -0.3220 -0.0410 -0.5699
 8027TIP3   OH248275   6.676   5.305   1.194 -1.0223 -0.5061 -0.1564
 8027TIP3    H148276   6.618   5.378   1.172 -0.0389  0.2942 -0.1522
 8027TIP3    H248277   6.652   5.236   1.132 -1.3935  0.1137 -0.7107
 8028TIP3   OH248278   4.622   2.177   2.417  0.2760 -0.3386 -0.1765
 8028TIP3    H148279   4.549   2.195   2.476  0.3893 -1.8379  0.4845
 8028TIP3    H248280   4.598   2.219   2.335 -0.6996  0.3263  0.4289
 8029TIP3   OH248281   3.553   0.751   1.021  0.2152  0.0648  0.2019
 8029TIP3    H148282   3.597   0.724   0.940  0.7161 -0.9448  0.7968
 8029TIP3    H248283   3.470   0.788   0.991  0.3222 -0.4379 -0.7751
 8030TIP3   OH248284   2.319   6.645   3.596  0.1218  0.5549 -0.5639
 8030TIP3    H148285   2.407   6.659   3.630  0.4454  0.1046 -1.2104
 8030TIP3    H248286   2.273   6.728   3.613  1.6002  2.0109 -3.0742
 8031TIP3   OH248287   1.703   5.978   2.898  0.4243 -0.0798 -0.6136
 8031TIP3    H148288   1.622   5.934   2.925  0.6939  0.6226  1.4547
 8031TIP3    H248289   1.687   6.071   2.914  1.9194 -0.0091  0.6558
 8032TIP3   OH248290   1.257   5.467   3.084  0.1653  0.5327  0.5336
 8032TIP3    H148291   1.340   5.420   3.089  0.2969  0.7132  0.1000
 8032TIP3    H248292   1.280   5.559   3.092  0.1498  0.6748 -0.8243
 8033TIP3   OH248293   5.735   1.313   2.611  0.2567 -0.5365 -0.0313
 8033TIP3    H148294   5.816   1.328   2.659  0.9393 -1.8938 -0.7123
 8033TIP3    H248295   5.692   1.241   2.656 -0.2468 -0.2905 -0.0993
 8034TIP3   OH248296   3.028   3.828   2.988 -0.1870 -0.2225 -0.3501
 8034TIP3    H148297   3.092   3.757   2.996  0.1932  0.0478 -0.9700
 8034TIP3    H248298   3.071   3.893   2.933 -0.7375  0.2632 -0.2096
 8035TIP3   OH248299   5.656   3.225   0.727 -0.0984  0.1055 -0.3186
 8035TIP3    H148300   5.622   3.314   0.732  1.5382  0.8915 -2.0737
 8035TIP3    H248301   5.745   3.231   0.761 -0.5642 -1.2878  1.2849
 8036TIP3   OH248302   3.190   3.873   1.248  0.3299 -0.0031  0.4050
 8036TIP3    H148303   3.112   3.927   1.234  0.4371  0.0276 -0.0663
 8036TIP3    H248304   3.165   3.814   1.320 -0.0355  0.1828  0.4333
 8037TIP3   OH248305   6.131   4.360   2.851 -0.1790  0.0665  0.4054
 8037TIP3    H148306   6.114   4.308   2.929 -0.9788  0.1755  0.3167
 8037TIP3    H248307   6.114   4.450   2.877 -1.6541 -0.0021 -0.1826
 8038TIP3   OH248308   2.600   5.762   3.650 -0.8308 -0.4285 -0.2738
 8038TIP3    H148309   2.610   5.679   3.605 -0.2080 -0.2129 -0.5496
 8038TIP3    H248310   2.639   5.748   3.736 -1.0236 -0.5194 -0.2019
 8039TIP3   OH248311   5.613   0.608   3.662 -0.2598 -0.4377 -0.6600
 8039TIP3    H148312   5.521   0.586   3.679  0.0929 -1.7985 -0.3414
 8039TIP3    H248313   5.638   0.665   3.735 -0.5065 -1.1410 -0.0029
 8040TIP3   OH248314   2.101   6.446   3.860  0.1587 -0.3894  0.2354
 8040TIP3    H148315   2.105   6.541   3.853  0.9434 -0.5232 -1.4718
 8040TIP3    H248316   2.111   6.429   3.954  0.8010  1.1746  0.4822
 8041TIP3   OH248317   5.348   0.924   1.831 -0.4686  0.0372 -0.2305
 8041TIP3    H148318   5.358   0.872   1.751 -0.4106 -0.6382  0.2105
 8041TIP3    H248319   5.357   1.015   1.802 -0.3452 -0.2079 -0.9731
 8042TIP3   OH248320   6.231   6.140   0.511  0.4490  0.1541 -1.1568
 8042TIP3    H148321   6.223   6.104   0.422 -0.0694 -0.2319 -0.9580
 8042TIP3    H248322   6.143   6.171   0.532  0.5471  0.1520 -0.7400
 8043TIP3   OH248323   6.199   3.987   2.189 -0.0179  0.1315  0.5698
 8043TIP3    H148324   6.193   3.903   2.234 -2.8696  0.8379  1.7712
 8043TIP3    H248325   6.149   3.975   2.109 -0.9335  0.8174  1.0282
 8044TIP3   OH248326   1.680   5.255   0.965 -0.3571 -0.3168  0.7815
 8044TIP3    H148327   1.638   5.341   0.971 -0.6129 -0.4122  0.3541
 8044TIP3    H248328   1.645   5.216   0.885  1.9599  0.3462 -0.6502
 8045TIP3   OH248329   6.266   0.703   2.061  0.4852 -0.4365 -0.3392
 8045TIP3    H148330   6.268   0.653   2.143  0.2880  0.7550  0.4291
 8045TIP3    H248331   6.314   0.783   2.082  1.2494 -0.5259 -1.6924
 8046TIP3   OH248332   4.959   1.807   0.791 -0.1223  0.0685 -0.3169
 8046TIP3    H148333   5.037   1.780   0.743  0.2972  1.5220 -0.4927
 8046TIP3    H248334   4.885   1.773   0.740  0.3670 -1.2051 -0.2164
 8047TIP3   OH248335   4.675   0.173   2.045  0.7730 -0.6365 -0.3712
 8047TIP3    H148336   4.759   0.194   2.003  0.8668  0.8179  0.4773
 8047TIP3    H248337   4.694   0.177   2.139 -0.4875  0.9388 -0.1392
 8048TIP3   OH248338   6.542   1.649   1.879 -0.2674 -0.0923 -0.0466
 8048TIP3    H148339   6.556   1.621   1.789 -1.0634  0.5966 -0.4002
 8048TIP3    H248340   6.476   1.718   1.873 -0.7876 -0.4516  1.1277
 8049TIP3   OH248341   1.207   4.521   1.798  0.6913 -0.4020 -0.0540
 8049TIP3    H148342   1.276   4.481   1.851  0.5590  0.2204  0.6039
 8049TIP3    H248343   1.127   4.474   1.821  1.2105 -2.6948 -2.5029
 8050TIP3   OH248344   1.103   6.169   1.330  0.0910  0.9136  0.3387
 8050TIP3    H148345   1.011   6.156   1.353 -0.2601 -0.7728 -1.7883
 8050TIP3    H248346   1.150   6.155   1.413 -1.2828 -2.3616  0.7310
 8051TIP3   OH248347   2.568   3.818   2.930 -0.1450 -0.6048 -0.2813
 8051TIP3    H148348   2.489   3.794   2.882 -0.5864  0.8256 -0.3068
 8051TIP3    H248349   2.638   3.769   2.886 -0.8210 -0.8553 -1.1099
 8052TIP3   OH248350   1.416   1.211   3.789 -0.0351 -0.0592 -0.0054
 8052TIP3    H148351   1.416   1.268   3.713 -3.0942 -1.0358 -0.8881
 8052TIP3    H248352   1.349   1.145   3.770  0.9536 -1.9267  2.4117
 8053TIP3   OH248353   6.772   3.914   1.402  0.2556 -0.6917 -0.0978
 8053TIP3    H148354   6.781   3.900   1.497 -1.4742 -0.9695  0.0517
 8053TIP3    H248355   6.718   3.842   1.372 -2.1822  1.2126 -0.6576
 8054TIP3   OH248356   5.983   5.443   1.589  0.0399  0.4873  0.4896
 8054TIP3    H148357   5.902   5.393   1.596 -0.0673  0.6765  0.6207
 8054TIP3    H248358   6.046   5.383   1.548 -0.9912  1.2932 -2.5518
 8055TIP3   OH248359   1.324   4.318   1.913 -0.7086  0.3234 -0.3651
 8055TIP3    H148360   1.247   4.282   1.957  0.3089  0.3464  1.5194
 8055TIP3    H248361   1.387   4.333   1.983  1.6973 -1.3773 -2.0016
 8056TIP3   OH248362   1.870   2.622   2.244 -0.3067  0.2000 -0.0969
 8056TIP3    H148363   1.838   2.537   2.213 -0.5068 -0.5363  1.9443
 8056TIP3    H248364   1.792   2.677   2.247 -0.6433 -0.2977  0.8120
 8057TIP3   OH248365   0.746   1.540   2.359  0.7446  0.2698  0.3744
 8057TIP3    H148366   0.701   1.575   2.436 -0.1560  1.7575 -0.7785
 8057TIP3    H248367   0.823   1.596   2.348 -0.9486  2.3672 -1.7483
 8058TIP3   OH248368   3.266   6.227   0.577  0.5541  0.1988  0.2525
 8058TIP3    H148369   3.244   6.177   0.655 -0.6800 -0.1406 -0.2841
 8058TIP3    H248370   3.271   6.161   0.507 -1.6815  0.8411 -0.5779
 8059TIP3   OH248371   5.891   2.750   1.719 -0.2330 -0.5285  0.2448
 8059TIP3    H148372   5.928   2.703   1.644 -0.5652 -2.7770  1.3893
 8059TIP3    H248373   5.870   2.681   1.782 -0.9194  1.1935  2.0015
 8060TIP3   OH248374   3.699   3.721   2.639  0.4490  0.4762  0.2762
 8060TIP3    H148375   3.791   3.734   2.662  0.5278  0.8835 -0.2727
 8060TIP3    H248376   3.652   3.730   2.722  0.9123  0.1611  0.5753
 8061TIP3   OH248377   3.457   6.222   2.894 -0.3717 -0.1852  0.0709
 8061TIP3    H148378   3.368   6.188   2.907 -0.5493  0.2582  0.0237
 8061TIP3    H248379   3.449   6.316   2.907  0.0263 -0.1013 -0.2724
 8062TIP3   OH248380   0.560   0.620   3.135 -0.5183  0.2110  0.6923
 8062TIP3    H148381   0.616   0.546   3.161 -0.7322 -0.5620 -0.8976
 8062TIP3    H248382   0.577   0.631   3.042  0.9819  3.5128  1.2187
 8063TIP3   OH248383   0.909   5.081   1.469 -0.5166  0.2280  0.9214
 8063TIP3    H148384   1.002   5.098   1.484 -0.0264 -2.1596  1.0583
 8063TIP3    H248385   0.898   4.987   1.489 -2.9291  0.4059  0.7866
 8064TIP3   OH248386   5.417   1.083   1.314 -0.0752  0.4647  0.5935
 8064TIP3    H148387   5.467   1.037   1.381 -0.5753  0.3444  0.8860
 8064TIP3    H248388   5.464   1.065   1.233 -0.2508 -0.5469  0.7087
 8065TIP3   OH248389   0.000   5.298   3.005 -0.7026  0.2192  0.3441
 8065TIP3    H148390   0.030   5.329   2.920 -2.0969  1.0253  0.1145
 8065TIP3    H248391   0.078   5.261   3.046  0.5230  1.9378 -0.3287
 8066TIP3   OH248392   4.935   2.525   1.012 -0.0214  0.0646  0.0057
 8066TIP3    H148393   4.920   2.535   1.106 -0.3183  0.4591 -0.0843
 8066TIP3    H248394   4.979   2.440   1.004  0.4477  0.2492  0.5436
 8067TIP3   OH248395   3.800   5.444   2.416 -0.1085 -0.6215  0.6166
 8067TIP3    H148396   3.863   5.461   2.346  0.4795  0.0925  1.3141
 8067TIP3    H248397   3.771   5.530   2.444 -0.6315 -0.9186  1.0039
 8068TIP3   OH248398   4.910   4.215   2.564 -0.2136  0.3680  0.3570
 8068TIP3    H148399   4.819   4.190   2.574 -0.3456  0.6292 -0.1519
 8068TIP3    H248400   4.950   4.144   2.514 -0.4653  0.8914 -0.6222
 8069TIP3   OH248401   1.906   0.664   3.860 -0.1020  0.0641 -0.0927
 8069TIP3    H148402   1.943   0.616   3.934  0.9195 -1.7442 -1.6731
 8069TIP3    H248403   1.950   0.749   3.861  0.1050 -0.0476  1.1981
 8070TIP3   OH248404   3.627   6.204   3.267  0.2510 -0.1351 -0.4048
 8070TIP3    H148405   3.597   6.295   3.259  0.4546 -0.0850 -0.6197
 8070TIP3    H248406   3.722   6.211   3.275  0.3410 -0.3676 -1.1794
 8071TIP3   OH248407   0.485   5.016   3.000 -0.2676 -0.0287  0.3930
 8071TIP3    H148408   0.553   5.070   3.040 -0.3146  0.1860  0.1792
 8071TIP3    H248409   0.457   5.064   2.923 -0.5651 -0.1833  0.4007
 8072TIP3   OH248410   1.223   1.963   2.942 -0.3146 -0.3778 -0.3084
 8072TIP3    H148411   1.299   2.020   2.934  0.0985 -0.9255 -0.3133
 8072TIP3    H248412   1.208   1.957   3.036 -0.2290 -0.4373 -0.2989
 8073TIP3   OH248413   5.413   2.195   3.523  0.1451 -0.5936 -0.1781
 8073TIP3    H148414   5.363   2.160   3.597 -1.6023  0.3114 -0.8736
 8073TIP3    H248415   5.418   2.289   3.539 -0.8251 -0.2830 -1.4834
 8074TIP3   OH248416   2.038   3.283   1.217  0.6661 -0.3875  0.2879
 8074TIP3    H148417   2.011   3.239   1.136  0.3786  0.9565 -0.3741
 8074TIP3    H248418   2.103   3.224   1.256 -0.7676 -2.0964  0.2034
 8075TIP3   OH248419   5.625   3.643   2.728 -0.3739 -0.1397  0.3122
 8075TIP3    H148420   5.638   3.590   2.649 -2.1494 -1.1308  0.6373
 8075TIP3    H248421   5.700   3.623   2.783  1.0812  0.8199 -1.2195
 8076TIP3   OH248422   1.206   2.510   1.117 -0.0264 -0.1408 -0.3135
 8076TIP3    H148423   1.197   2.489   1.210 -1.6524  0.7378 -0.2361
 8076TIP3    H248424   1.269   2.582   1.114 -1.0351  0.8008  0.2844
 8077TIP3   OH248425   4.396   6.671   2.507 -0.0033  0.3809  0.0784
 8077TIP3    H148426   4.311   6.715   2.516 -0.2559  0.2031 -1.1829
 8077TIP3    H248427   4.436   6.679   2.593 -1.6241 -0.1951  0.9399
 8078TIP3   OH248428   2.062   4.403   2.072 -0.5391 -0.2142 -0.5934
 8078TIP3    H148429   2.054   4.459   1.995 -2.3335 -0.0463 -0.3257
 8078TIP3    H248430   2.153   4.412   2.099 -0.3844  1.2859 -1.5215
 8079TIP3   OH248431   2.916   6.344   2.783 -0.4490 -0.2566 -0.0308
 8079TIP3    H148432   2.859   6.311   2.852 -0.1207  0.8269  0.7844
 8079TIP3    H248433   2.857   6.394   2.726 -0.8481 -1.7154 -0.9726
 8080TIP3   OH248434   1.115   4.527   2.390 -0.0043  0.0238 -0.1818
 8080TIP3    H148435   1.034   4.578   2.393  0.0599  0.2196 -1.1862
 8080TIP3    H248436   1.185   4.593   2.394  0.0909  0.2432 -2.9464
 8081TIP3   OH248437   3.752   1.005   2.440 -0.1070  0.1694  0.0113
 8081TIP3    H148438   3.803   1.002   2.359 -0.3924  0.7522 -0.1926
 8081TIP3    H248439   3.749   0.914   2.470  1.9825  0.2372  0.6167
 8082TIP3   OH248440   6.707   4.899   1.317  0.3259 -0.1415  0.2689
 8082TIP3    H148441   6.696   4.949   1.236  1.4309  0.0277  0.2072
 8082TIP3    H248442   6.665   4.814   1.298  0.2300  0.0321 -0.3371
 8083TIP3   OH248443   4.611   3.627   2.142  0.2913 -0.0659 -0.7960
 8083TIP3    H148444   4.623   3.620   2.047 -0.4399 -0.9231 -0.8268
 8083TIP3    H248445   4.518   3.643   2.153  0.1472 -1.3091 -0.1528
 8084TIP3   OH248446   2.260   4.151   2.368 -0.0212 -0.5050  0.2277
 8084TIP3    H148447   2.349   4.178   2.387 -0.0759  0.6855 -1.0252
 8084TIP3    H248448   2.220   4.136   2.454  0.9250  0.4983  0.8646
 8085TIP3   OH248449   5.032   6.241   3.199 -0.6933 -0.0537 -0.1348
 8085TIP3    H148450   4.936   6.236   3.196 -0.8481  1.2032  1.6090
 8085TIP3    H248451   5.055   6.214   3.287  0.5110  0.4149 -0.2846
 8086TIP3   OH248452   5.198   3.237   2.511  0.4269  0.4126  0.4857
 8086TIP3    H148453   5.240   3.267   2.592 -1.3985  0.3240  1.5201
 8086TIP3    H248454   5.182   3.144   2.525  0.5087  0.2926 -0.1784
 8087TIP3   OH248455   1.105   3.983   3.033  0.8098 -0.0172 -0.1171
 8087TIP3    H148456   1.146   3.898   3.021 -1.5465 -0.9827 -2.1137
 8087TIP3    H248457   1.159   4.043   2.981  0.3006 -1.0890 -1.9884
 8088TIP3   OH248458   4.252   4.971   2.087  0.3623 -0.3852 -0.3059
 8088TIP3    H148459   4.298   4.989   2.004  0.3246  0.7418 -0.1012
 8088TIP3    H248460   4.161   4.961   2.061  0.1933  0.9238 -0.3260
 8089TIP3   OH248461   1.941   5.170   2.501 -0.2460 -0.1325 -0.1690
 8089TIP3    H148462   1.871   5.145   2.440 -1.8357 -1.3556  2.0342
 8089TIP3    H248463   1.983   5.245   2.458 -2.5968  0.3790 -1.8318
 8090TIP3   OH248464   3.515   6.371   4.184 -0.0550  0.3162 -0.4245
 8090TIP3    H148465   3.443   6.317   4.151 -0.8963  2.1264 -1.6823
 8090TIP3    H248466   3.477   6.421   4.256  0.2238  0.5474 -0.4351
 8091TIP3   OH248467   6.052   5.858   3.404 -0.1974 -0.8927  0.2698
 8091TIP3    H148468   6.106   5.931   3.433 -1.8283  0.2248  0.6321
 8091TIP3    H248469   6.114   5.786   3.389  1.1019 -0.7584  3.9776
 8092TIP3   OH248470   0.628   3.162   0.785  0.6133 -0.2549  0.2869
 8092TIP3    H148471   0.707   3.169   0.731  1.3049 -2.5912  0.8577
 8092TIP3    H248472   0.660   3.128   0.868 -0.6315  1.8324  1.7080
 8093TIP3   OH248473   0.328   6.137   2.152  0.0355 -0.5807 -0.2385
 8093TIP3    H148474   0.393   6.079   2.192  0.7430 -0.7076 -1.4868
 8093TIP3    H248475   0.294   6.087   2.077  0.0058  0.2648 -0.8115
 8094TIP3   OH248476   3.516   3.384   1.710  0.1784 -0.0175 -0.2155
 8094TIP3    H148477   3.520   3.295   1.676  1.2115 -0.0930  0.0663
 8094TIP3    H248478   3.439   3.422   1.668  0.3774 -0.6793 -1.2324
 8095TIP3   OH248479   4.971   5.910   3.244 -0.2780 -0.3715 -0.6297
 8095TIP3    H148480   4.934   5.953   3.322  0.5805 -0.1255 -0.3495
 8095TIP3    H248481   5.055   5.953   3.230 -0.8185  0.2276 -2.2568
 8096TIP3   OH248482   2.747   4.567   1.391 -0.0083 -0.2903 -0.2096
 8096TIP3    H148483   2.697   4.601   1.465 -0.4075  1.1110 -1.0772
 8096TIP3    H248484   2.690   4.504   1.349 -0.4554  0.1705 -0.3004
 8097TIP3   OH248485   3.894   5.561   3.029 -0.5906 -0.4928 -0.0462
 8097TIP3    H148486   3.910   5.466   3.023  1.1857 -0.3031  0.8679
 8097TIP3    H248487   3.800   5.570   3.012 -0.8091 -2.4170 -0.1797
 8098TIP3   OH248488   6.597   1.831   4.277  0.1934  0.4123  0.2201
 8098TIP3    H148489   6.576   1.739   4.293  0.8458  0.3048  0.5121
 8098TIP3    H248490   6.648   1.830   4.195  1.1389  0.3801  0.7997
 8099TIP3   OH248491   5.869   0.473   1.665 -0.3123  0.1922 -0.3884
 8099TIP3    H148492   5.953   0.505   1.635 -0.7957  1.4896 -0.4074
 8099TIP3    H248493   5.874   0.378   1.653  1.7803  0.0235  1.2344
 8100TIP3   OH248494   2.751   4.542   2.855  0.4354  0.5731 -0.0829
 8100TIP3    H148495   2.760   4.563   2.948  0.8507 -0.0390  0.0258
 8100TIP3    H248496   2.841   4.543   2.822  0.5843 -1.7048  0.0959
 8101TIP3   OH248497   5.267   5.579   2.687 -0.8248  0.7982 -0.2174
 8101TIP3    H148498   5.252   5.601   2.779 -1.6013 -0.4218 -0.0272
 8101TIP3    H248499   5.345   5.524   2.688  0.9617  3.1693 -0.6631
 8102TIP3   OH248500   5.290   2.771   1.869  0.5124  0.2542 -0.0214
 8102TIP3    H148501   5.231   2.795   1.940 -0.1421 -0.1629 -0.4167
 8102TIP3    H248502   5.306   2.678   1.882  0.7393  0.2716 -0.1735
 8103TIP3   OH248503   1.642   0.577   3.127  0.0725  0.3941  0.1937
 8103TIP3    H148504   1.647   0.579   3.031  1.1221 -0.4350  0.2169
 8103TIP3    H248505   1.715   0.631   3.157  1.8435 -1.9884  0.4974
 8104TIP3   OH248506   3.889   3.181   1.321  0.0883  0.1882  0.3302
 8104TIP3    H148507   3.948   3.149   1.390  1.0573 -1.3706 -1.1310
 8104TIP3    H248508   3.911   3.273   1.312  0.8010  0.1313  1.2714
 8105TIP3   OH248509   0.598   1.321   0.660  0.4025 -0.2287 -0.0261
 8105TIP3    H148510   0.560   1.252   0.715 -2.0627  0.9431 -0.1121
 8105TIP3    H248511   0.601   1.283   0.572 -0.1335 -0.5328  0.0815
 8106TIP3   OH248512   3.042   3.030   1.056 -0.1189 -0.2543  0.0646
 8106TIP3    H148513   3.040   3.126   1.058 -0.1011 -0.1191 -2.7238
 8106TIP3    H248514   3.113   3.006   1.116  1.2686  1.6031 -0.7335
 8107TIP3   OH248515   5.799   0.225   3.792  0.7918  0.3157  0.2306
 8107TIP3    H148516   5.705   0.206   3.797  0.4635  1.6523 -0.5208
 8107TIP3    H248517   5.838   0.144   3.758 -0.3846  0.4878 -1.6324
 8108TIP3   OH248518   5.090   4.159   2.929 -0.0427  0.3013  0.1239
 8108TIP3    H148519   5.171   4.111   2.946 -0.7656 -1.1841 -0.4925
 8108TIP3    H248520   5.090   4.174   2.834 -0.4022  0.4496  0.1446
 8109TIP3   OH248521   3.258   2.839   3.384  0.0225 -0.1872  0.4942
 8109TIP3    H148522   3.278   2.756   3.340  0.8386  0.5644 -0.6350
 8109TIP3    H248523   3.302   2.905   3.330  1.6490  0.7565  2.8222
 8110TIP3   OH248524   6.707   5.634   2.869 -0.0391  0.1115  0.4938
 8110TIP3    H148525   6.674   5.626   2.958  1.5106  1.0385  1.2019
 8110TIP3    H248526   6.783   5.576   2.866 -1.3238 -1.6093 -0.9416
 8111TIP3   OH248527   4.467   2.894   2.850  0.1025  0.3203 -0.4497
 8111TIP3    H148528   4.508   2.809   2.834 -1.2486 -0.3303 -0.6045
 8111TIP3    H248529   4.508   2.953   2.787  1.7127  0.0289  0.2614
 8112TIP3   OH248530   6.800   4.420   1.274  0.4417 -0.2737 -0.1561
 8112TIP3    H148531   6.739   4.493   1.286  2.0782  1.1497 -0.1526
 8112TIP3    H248532   6.772   4.354   1.337 -0.8033  0.5288  0.1620
 8113TIP3   OH248533   0.152   2.895   2.935 -0.0966  0.1170  0.4429
 8113TIP3    H148534   0.132   2.989   2.932 -0.1676  0.1223 -2.9707
 8113TIP3    H248535   0.247   2.892   2.946 -0.0192  0.6385  0.0121
 8114TIP3   OH248536   0.387   3.466   3.554 -0.0636 -0.1320  0.4756
 8114TIP3    H148537   0.403   3.430   3.642  0.5078  2.5076  1.5350
 8114TIP3    H248538   0.473   3.495   3.525 -0.3416 -0.5236 -0.7906
 8115TIP3   OH248539   1.923   0.077   3.072  0.2912 -0.0608  0.8339
 8115TIP3    H148540   1.866   0.081   3.148  2.0745 -0.2371  2.2550
 8115TIP3    H248541   1.906  -0.008   3.032 -0.2615 -0.1968  1.3544
 8116TIP3   OH248542   3.570   5.149   4.105 -0.0142  0.0230 -0.7170
 8116TIP3    H148543   3.612   5.151   4.019 -0.6800  0.9366 -1.0242
 8116TIP3    H248544   3.623   5.087   4.155  0.6972 -0.1172 -1.6159
 8117TIP3   OH248545   5.633   1.248   3.575  0.5004 -0.3138 -0.0180
 8117TIP3    H148546   5.627   1.267   3.669  1.1723 -1.4119  0.2734
 8117TIP3    H248547   5.633   1.334   3.533  0.3094  0.1999  0.9994
 8118TIP3   OH248548   3.156   6.799   0.575  0.2332  0.2451 -0.0775
 8118TIP3    H148549   3.128   6.774   0.487 -0.9043 -2.7834  0.9907
 8118TIP3    H248550   3.200   6.721   0.609  0.8206  1.3892  1.9698
 8119TIP3   OH248551   3.652   4.238   3.807  0.1756 -0.7753  0.0436
 8119TIP3    H148552   3.630   4.218   3.898  0.7842  0.4785  0.4950
 8119TIP3    H248553   3.571   4.223   3.758 -0.9745  1.1840  1.2250
 8120TIP3   OH248554   2.854   6.690   1.215  0.1234 -0.0937 -0.1611
 8120TIP3    H148555   2.860   6.785   1.227 -1.4385 -0.0904  0.9229
 8120TIP3    H248556   2.945   6.661   1.209  0.6483  1.4213 -0.0770
 8121TIP3   OH248557   1.970   5.220   0.977 -0.8683 -0.1728  0.1362
 8121TIP3    H148558   2.020   5.300   0.994 -1.3132  0.0509  0.4105
 8121TIP3    H248559   1.881   5.251   0.960 -1.1192 -0.6259  0.5837
 8122TIP3   OH248560   2.317   4.937   9.640 -0.2340 -0.2736 -0.1511
 8122TIP3    H148561   2.345   5.005   9.700 -2.1892 -1.5000  2.3362
 8122TIP3    H248562   2.242   4.974   9.594 -1.9864 -0.9685  1.9797
 8123TIP3   OH248563   5.850   1.033   1.717 -0.0244 -0.4624  0.6822
 8123TIP3    H148564   5.774   1.082   1.749 -0.4077 -1.0862  0.7269
 8123TIP3    H248565   5.889   0.995   1.795 -0.1720 -0.8622  0.5618
 8124TIP3   OH248566   5.430   6.391   1.879  0.0110 -0.5272  0.4154
 8124TIP3    H148567   5.429   6.476   1.923 -0.9685  0.1992 -0.9504
 8124TIP3    H248568   5.424   6.327   1.951  1.2683  0.5043  1.5015
 8125TIP3   OH248569   0.499   2.427   1.781  0.4095  0.0347 -0.7787
 8125TIP3    H148570   0.513   2.486   1.707 -0.3931  1.7205  0.3623
 8125TIP3    H248571   0.421   2.376   1.757  0.3049  0.3841 -1.1919
 8126TIP3   OH248572   5.302   0.829   1.024 -0.2713  0.0444 -0.0469
 8126TIP3    H148573   5.269   0.917   1.038 -0.8515  0.2462 -2.3585
 8126TIP3    H248574   5.231   0.771   1.052 -0.0190  0.2879  1.1459
 8127TIP3   OH248575   3.666   3.113   2.983  0.3286 -0.2597 -0.1412
 8127TIP3    H148576   3.654   3.153   2.897 -2.4803 -1.9559 -0.6642
 8127TIP3    H248577   3.758   3.129   3.004  0.9350  0.8318 -3.1123
 8128TIP3   OH248578   1.899   3.113   0.971 -0.0620  0.9395  0.0099
 8128TIP3    H148579   1.967   3.050   0.993 -0.7445 -0.0135 -0.5140
 8128TIP3    H248580   1.817   3.063   0.977 -0.6166  1.7665 -0.4293
 8129TIP3   OH248581   5.994   2.043   3.796  0.3905 -0.4139  0.2058
 8129TIP3    H148582   6.043   2.097   3.734 -2.5196  1.4997 -0.6526
 8129TIP3    H248583   5.958   1.972   3.742 -0.9412  0.4304 -0.0698
 8130TIP3   OH248584   5.910   1.465   0.928  0.7361 -0.2265  0.5876
 8130TIP3    H148585   5.939   1.548   0.965  2.8093 -0.5079 -0.2877
 8130TIP3    H248586   5.959   1.398   0.977  1.7431 -0.7148 -1.0257
 8131TIP3   OH248587   2.630   0.946   2.527  0.1218 -0.1739 -0.0318
 8131TIP3    H148588   2.704   0.964   2.584 -1.6241 -1.5102  2.8859
 8131TIP3    H248589   2.639   0.853   2.505  0.6035  0.2474 -1.7866
 8132TIP3   OH248590   2.410   5.182   1.950  0.3118 -0.2827 -0.4468
 8132TIP3    H148591   2.459   5.264   1.961  0.9325 -0.6036 -0.7820
 8132TIP3    H248592   2.351   5.199   1.877 -1.4353  0.7306  1.1196
 8133TIP3   OH248593   4.177   4.829   2.337  0.4231 -0.2957  0.0777
 8133TIP3    H148594   4.265   4.829   2.374 -0.1765  1.6688  1.6907
 8133TIP3    H248595   4.187   4.873   2.252  1.1785 -1.2984 -0.3750
 8134TIP3   OH248596   3.369   2.133  10.929  0.2138  0.1637  0.4109
 8134TIP3    H148597   3.316   2.200  10.971 -1.4504  0.6132 -2.1268
 8134TIP3    H248598   3.311   2.097  10.861  2.1135 -1.6372 -0.3531
 8135TIP3   OH248599   2.264   2.205   1.620 -0.2665  0.0943 -0.3363
 8135TIP3    H148600   2.178   2.166   1.638 -0.2169  0.7142  1.4968
 8135TIP3    H248601   2.253   2.298   1.640  0.3658  0.5397 -1.9099
 8136TIP3   OH248602   0.291   3.974   4.079  0.0439 -0.1403  0.1527
 8136TIP3    H148603   0.231   4.037   4.040 -1.6596 -1.1308  1.0173
 8136TIP3    H248604   0.359   3.960   4.013 -0.8277  0.8208 -0.9811
 8137TIP3   OH248605   2.369   1.330   2.463  0.5906 -0.3947  0.7208
 8137TIP3    H148606   2.364   1.255   2.522  0.5864 -0.8314  0.1757
 8137TIP3    H248607   2.286   1.329   2.415  1.2699 -1.0726 -0.5014
 8138TIP3   OH248608   4.407   4.568   2.147 -0.7652  0.1404 -0.1599
 8138TIP3    H148609   4.424   4.475   2.161  0.1721  0.6351  2.7521
 8138TIP3    H248610   4.468   4.593   2.078 -0.0930 -1.1653 -0.0799
 8139TIP3   OH248611   1.896   2.542   2.810  0.2087 -0.2851 -0.6052
 8139TIP3    H148612   1.981   2.513   2.778  1.3228 -0.0929  1.9227
 8139TIP3    H248613   1.891   2.634   2.785  0.0725 -0.6504 -2.0014
 8140TIP3   OH248614   2.231   0.247   0.593 -0.0672  0.0268  0.0918
 8140TIP3    H148615   2.185   0.177   0.639  2.1386 -0.2615  2.0303
 8140TIP3    H248616   2.162   0.308   0.567 -1.7254 -1.3410  1.0764
 8141TIP3   OH248617   2.046   5.722   2.216 -0.2756  0.1208  0.1822
 8141TIP3    H148618   1.969   5.691   2.170 -1.3834 -0.1378  2.1093
 8141TIP3    H248619   2.050   5.669   2.296  1.4827  0.6334  0.4913
 8142TIP3   OH248620   0.541   4.151   2.159 -0.9087  0.2752 -0.6309
 8142TIP3    H148621   0.625   4.132   2.119 -1.0576 -0.5208 -0.5762
 8142TIP3    H248622   0.562   4.198   2.240 -0.4124 -1.7127  0.4327
 8143TIP3   OH248623   4.140   2.935   0.788  0.3802 -0.2931 -0.0405
 8143TIP3    H148624   4.117   2.851   0.828 -0.0034  0.0342  0.4447
 8143TIP3    H248625   4.208   2.913   0.724  0.4143 -0.9477  0.2057
 8144TIP3   OH248626   1.159   2.179   1.396  0.2924 -0.1509 -0.2727
 8144TIP3    H148627   1.200   2.095   1.418 -0.0644 -0.3890 -0.5017
 8144TIP3    H248628   1.065   2.163   1.409  0.1370 -0.0694 -1.2181
 8145TIP3   OH248629   0.246   3.930   1.010 -0.1503 -0.5243  0.0907
 8145TIP3    H148630   0.187   3.969   0.946 -1.4141 -1.2954  0.7386
 8145TIP3    H248631   0.198   3.936   1.093 -1.0744 -4.5434  0.0436
 8146TIP3   OH248632   5.103   2.135   0.840  0.0233  0.1255 -0.6026
 8146TIP3    H148633   5.141   2.123   0.754 -0.5132  0.5566 -0.9115
 8146TIP3    H248634   5.009   2.123   0.827  0.1046 -2.1354  0.3621
 8147TIP3   OH248635   0.880   0.398   1.057 -0.2877 -0.0618 -0.3340
 8147TIP3    H148636   0.896   0.312   1.096  0.9338 -0.5981 -1.8854
 8147TIP3    H248637   0.807   0.383   0.996 -0.0830 -0.0150 -0.5956
 8148TIP3   OH248638   0.881   2.476   3.545 -0.1307 -0.3661  0.3490
 8148TIP3    H148639   0.837   2.417   3.607 -0.5599 -2.6201 -1.9453
 8148TIP3    H248640   0.969   2.486   3.580 -0.9506  0.1819  2.4074
 8149TIP3   OH248641   1.229   3.215   3.272  0.1961 -0.1432 -0.1242
 8149TIP3    H148642   1.176   3.139   3.248  0.4830 -0.0511 -1.1292
 8149TIP3    H248643   1.184   3.289   3.233 -0.8399  0.4268  2.0158
 8150TIP3   OH248644   3.880   4.590   3.433 -0.1290 -0.1598 -0.5830
 8150TIP3    H148645   3.929   4.594   3.515  0.0692  1.2163 -0.7389
 8150TIP3    H248646   3.789   4.604   3.459 -0.0076  0.7675 -0.6366
 8151TIP3   OH248647   0.905   4.699   2.321  0.3939 -0.5092  0.9433
 8151TIP3    H148648   0.919   4.787   2.357  1.0254 -0.2108  0.0148
 8151TIP3    H248649   0.844   4.711   2.249 -0.7985 -1.0926  1.8184
 8152TIP3   OH248650   1.435   4.325   2.674  0.1858 -0.1099 -0.4150
 8152TIP3    H148651   1.461   4.330   2.766  0.8481  0.6592 -0.6384
 8152TIP3    H248652   1.476   4.244   2.642 -1.7730 -1.5436  0.4758
 8153TIP3   OH248653   0.168   4.337   2.922  0.3530  0.2293  0.5435
 8153TIP3    H148654   0.117   4.315   2.844  0.4494  0.7989  0.3152
 8153TIP3    H248655   0.259   4.328   2.894  0.4029 -1.1302  1.0462
 8154TIP3   OH248656   6.651   6.564   1.028  0.0937  0.1072  0.2323
 8154TIP3    H148657   6.654   6.530   1.117 -0.3393  1.4706  0.7984
 8154TIP3    H248658   6.590   6.638   1.032  0.9774  0.9530 -0.9123
 8155TIP3   OH248659   0.666   6.586   3.768  0.4131 -0.3077 -0.2425
 8155TIP3    H148660   0.668   6.550   3.857  0.8849 -0.6022 -0.3674
 8155TIP3    H248661   0.594   6.649   3.769 -0.6380 -1.4569 -0.0884
 8156TIP3   OH248662   3.334   3.002   1.924  0.3668  0.3355 -0.0813
 8156TIP3    H148663   3.252   2.960   1.949  0.6439 -0.3301 -0.2462
 8156TIP3    H248664   3.381   2.935   1.873  1.5666  0.2353  1.0981
 8157TIP3   OH248665   4.186   4.229   2.991  0.3120  0.3317 -0.2499
 8157TIP3    H148666   4.092   4.241   2.981  0.4809  3.3751  0.7157
 8157TIP3    H248667   4.224   4.277   2.918  1.1280  0.4805  0.2637
 8158TIP3   OH248668   5.885   1.123   4.120 -0.0517  0.2835 -0.0571
 8158TIP3    H148669   5.939   1.133   4.198 -0.0499 -1.5116  0.2157
 8158TIP3    H248670   5.832   1.045   4.137 -0.9292  0.5670 -1.3505
 8159TIP3   OH248671   3.431   1.433   1.945 -0.0947  0.8524  0.4757
 8159TIP3    H148672   3.494   1.480   2.000  1.8173  0.8094 -1.5901
 8159TIP3    H248673   3.440   1.473   1.859 -2.3530  0.2764 -0.0788
 8160TIP3   OH248674   3.749   1.877   0.807  0.1438 -0.5093  0.0283
 8160TIP3    H148675   3.709   1.874   0.894  2.4054 -0.4823  1.1488
 8160TIP3    H248676   3.843   1.871   0.824  0.6513 -0.5763 -2.4409
 8161TIP3   OH248677   1.114   4.891   0.644  0.3759 -0.6217  0.3725
 8161TIP3    H148678   1.054   4.925   0.711  0.8089 -0.2374  0.5744
 8161TIP3    H248679   1.092   4.799   0.637 -2.3666  0.0894 -1.8111
 8162TIP3   OH248680   6.585   3.687   1.977  0.2614 -0.3811 -0.1652
 8162TIP3    H148681   6.552   3.616   1.923  1.0511  0.6469 -2.0960
 8162TIP3    H248682   6.680   3.680   1.969  0.3446  0.9983 -0.5584
 8163TIP3   OH248683   6.494   2.426   1.222 -0.2421 -0.2237 -0.4665
 8163TIP3    H148684   6.551   2.480   1.168 -0.4223  0.4268 -0.0149
 8163TIP3    H248685   6.522   2.444   1.312 -0.0611 -1.1596 -0.3297
 8164TIP3   OH248686   2.732   6.429   1.430  0.4882 -0.4967  0.3591
 8164TIP3    H148687   2.717   6.350   1.482  0.1282 -0.0673  0.9144
 8164TIP3    H248688   2.650   6.478   1.437  0.1846 -0.7202 -1.1294
 8165TIP3   OH248689   5.079   3.632   1.945 -0.2528 -0.2304 -0.3856
 8165TIP3    H148690   5.145   3.661   1.882 -0.3200 -1.3430 -0.9961
 8165TIP3    H248691   5.012   3.700   1.942 -1.4261 -1.3312 -3.3387
 8166TIP3   OH248692   5.020   6.808   3.532  0.1987 -0.3056 -0.1865
 8166TIP3    H148693   5.100   6.787   3.579  0.6366  0.1140 -0.7274
 8166TIP3    H248694   4.985   6.886   3.575  0.5384  0.0104 -0.4755
 8167TIP3   OH248695   2.778   3.922   1.332 -0.1792 -0.1724  0.4172
 8167TIP3    H148696   2.863   3.896   1.367 -2.0827 -3.8150  3.1533
 8167TIP3    H248697   2.731   3.839   1.322 -3.2010  1.6126 -1.6727
 8168TIP3   OH248698   1.971   5.172   1.605 -0.1068 -0.3890  0.1184
 8168TIP3    H148699   1.876   5.164   1.603 -0.1648  0.4226 -1.5569
 8168TIP3    H248700   1.995   5.206   1.519  1.7401 -0.9428  0.3604
 8169TIP3   OH248701   4.263   1.158   2.005  0.3341  0.4043 -0.2680
 8169TIP3    H148702   4.225   1.208   2.078 -1.1031 -0.1687 -0.6010
 8169TIP3    H248703   4.282   1.072   2.042 -0.9892 -0.0904 -0.7196
 8170TIP3   OH248704   6.558   5.309   2.813 -0.1394 -0.2357  0.0075
 8170TIP3    H148705   6.582   5.296   2.904 -1.1345 -4.0484 -0.0974
 8170TIP3    H248706   6.636   5.282   2.763 -0.1478  0.2911 -0.3039
 8171TIP3   OH248707   0.773   3.034   3.268  0.1358  0.1158 -0.7127
 8171TIP3    H148708   0.800   3.035   3.360 -0.3702  1.7886 -0.5608
 8171TIP3    H248709   0.677   3.037   3.272  0.1403  1.2728 -1.3010
 8172TIP3   OH248710   1.350   5.433   0.490  0.5361 -0.1629 -0.1537
 8172TIP3    H148711   1.310   5.346   0.487 -0.0116  0.1136 -1.4460
 8172TIP3    H248712   1.444   5.416   0.490  0.4398 -0.7730  0.7772
 8173TIP3   OH248713   1.685   4.017   1.397 -0.7556 -0.6080 -0.1937
 8173TIP3    H148714   1.637   3.992   1.318  0.8014 -0.0410 -1.3758
 8173TIP3    H248715   1.760   4.066   1.365 -1.1026  1.3613  1.7640
 8174TIP3   OH248716   6.631   0.485   2.990  0.4834  0.2370  0.3982
 8174TIP3    H148717   6.599   0.395   2.992 -1.9383  0.8897 -2.2158
 8174TIP3    H248718   6.693   0.486   2.916 -0.1699  0.8568 -0.1574
 8175TIP3   OH248719   0.233   6.016   1.427  0.4009 -0.8595 -0.1702
 8175TIP3    H148720   0.232   6.108   1.399  1.7780 -1.5691 -2.8401
 8175TIP3    H248721   0.181   6.015   1.508  0.5846  2.2894  0.1007
 8176TIP3   OH248722   4.142   4.487   2.576  0.2848  0.3494  0.4241
 8176TIP3    H148723   4.163   4.539   2.499  1.0858  1.1634  1.1676
 8176TIP3    H248724   4.093   4.412   2.542  0.1965  0.9460 -0.8072
 8177TIP3   OH248725   6.209   2.041   4.350 -0.1025  0.0400  0.4118
 8177TIP3    H148726   6.267   2.002   4.284 -0.1714 -1.1632  1.0362
 8177TIP3    H248727   6.152   1.970   4.377 -0.1651  0.5467  1.6790
 8178TIP3   OH248728   0.618   0.160   1.006  1.0224  0.6170 -0.7775
 8178TIP3    H148729   0.582   0.198   1.086 -0.8039  0.4710 -1.4977
 8178TIP3    H248730   0.639   0.236   0.952 -0.7161  0.6850 -1.3999
 8179TIP3   OH248731   5.222   6.558   2.784 -0.2264  0.5331 -0.2800
 8179TIP3    H148732   5.169   6.602   2.717  1.6424  2.1023 -0.8412
 8179TIP3    H248733   5.163   6.493   2.823 -1.8406  0.6400 -2.3648
 8180TIP3   OH248734   2.457   2.516   1.018 -0.0160 -0.1423 -0.0642
 8180TIP3    H148735   2.464   2.597   0.967  1.2637 -0.0901  0.1522
 8180TIP3    H248736   2.493   2.539   1.104 -2.2686 -0.1889  0.9592
 8181TIP3   OH248737   4.548   3.113   1.956 -0.1839  0.1403  0.3872
 8181TIP3    H148738   4.496   3.168   1.897  1.6759  1.6951  0.1148
 8181TIP3    H248739   4.516   3.134   2.043 -2.1552 -1.3165  0.1040
 8182TIP3   OH248740   3.344   0.476   0.714  0.1144 -0.1285  0.4667
 8182TIP3    H148741   3.373   0.562   0.682  2.2524 -1.1918 -0.6733
 8182TIP3    H248742   3.335   0.423   0.635 -0.8617 -1.0585  1.1800
 8183TIP3   OH248743   6.132   0.194   3.066  0.1954 -0.0594  0.0734
 8183TIP3    H148744   6.168   0.275   3.031 -2.5358  0.7211 -1.1836
 8183TIP3    H248745   6.083   0.156   2.993 -1.5507 -0.9696  1.6339
 8184TIP3   OH248746   5.484   6.341   1.169 -0.3003  0.8921  0.1789
 8184TIP3    H148747   5.559   6.398   1.189  1.5008 -1.9005  2.1503
 8184TIP3    H248748   5.508   6.298   1.087 -0.0362  0.4756  0.4722
 8185TIP3   OH248749   5.601   1.119   1.824  0.1575  0.4441 -0.2639
 8185TIP3    H148750   5.508   1.141   1.814  0.1249  0.8208  0.8177
 8185TIP3    H248751   5.602   1.040   1.878  0.4377 -0.2157 -1.1943
 8186TIP3   OH248752   1.253   4.411   3.493 -0.3131 -0.0473  0.3674
 8186TIP3    H148753   1.235   4.323   3.526 -0.8597  0.5166  1.6274
 8186TIP3    H248754   1.214   4.470   3.558 -3.1745  1.1356 -2.1384
 8187TIP3   OH248755   0.029   5.243   3.372 -0.2537  0.2407  0.2013
 8187TIP3    H148756  -0.064   5.218   3.368 -0.4092  0.3698  2.1725
 8187TIP3    H248757   0.032   5.329   3.331 -1.0583  0.3251  0.2922
 8188TIP3   OH248758   6.067   0.267   2.196 -0.3655  0.0546  0.3193
 8188TIP3    H148759   6.127   0.195   2.175  0.4205  0.4571  1.0947
 8188TIP3    H248760   6.085   0.333   2.128 -0.1725  0.0338  0.3486
 8189TIP3   OH248761   6.486   1.574   4.272  0.5456  0.1829 -0.0184
 8189TIP3    H148762   6.401   1.581   4.228  1.3000 -0.6839 -1.7329
 8189TIP3    H248763   6.521   1.491   4.241  1.5845  0.0201  1.5006
 8190TIP3   OH248764   1.600   5.823   0.914 -0.2479  0.4004 -0.0818
 8190TIP3    H148765   1.517   5.779   0.894  0.7605 -0.7764 -2.0172
 8190TIP3    H248766   1.580   5.880   0.988 -2.2222 -1.5168  0.9622
 8191TIP3   OH248767   3.757   5.920   3.111  0.3245  0.4695  0.5933
 8191TIP3    H148768   3.712   5.848   3.156 -0.8768  1.9637  1.9214
 8191TIP3    H248769   3.837   5.934   3.162  1.0139 -0.4939 -0.2076
 8192TIP3   OH248770   0.610   4.563   1.543  0.0942 -0.0266 -0.4026
 8192TIP3    H148771   0.544   4.516   1.593 -0.1926  1.1831  0.3981
 8192TIP3    H248772   0.678   4.498   1.525 -1.6354 -1.5402 -1.9658
 8193TIP3   OH248773   4.239   3.392   2.062 -0.7623  0.0931  0.1721
 8193TIP3    H148774   4.248   3.352   1.976  0.1517  0.0518  0.2694
 8193TIP3    H248775   4.145   3.393   2.079 -0.9032 -0.5342 -0.5213
 8194TIP3   OH248776   1.823   5.655   0.844  0.4219 -0.2872  0.2203
 8194TIP3    H148777   1.744   5.710   0.853  0.4683 -0.2466  0.3939
 8194TIP3    H248778   1.822   5.600   0.922  0.9974  0.2754  0.6416
 8195TIP3   OH248779   2.907   4.891   1.608 -0.2250  0.6846 -0.1487
 8195TIP3    H148780   2.976   4.908   1.672 -0.6260 -2.5747  1.3710
 8195TIP3    H248781   2.829   4.874   1.660 -0.5916 -2.0312 -1.3831
 8196TIP3   OH248782   2.883   5.921   4.001 -0.3915 -0.1025 -0.2849
 8196TIP3    H148783   2.857   5.997   4.053 -0.5980  0.5194 -1.2672
 8196TIP3    H248784   2.855   5.846   4.053 -1.6282  0.5184 -0.0164
 8197TIP3   OH248785   5.248   2.997   0.823  0.0897 -0.1622 -0.8035
 8197TIP3    H148786   5.194   2.919   0.816  0.2471 -0.6859  2.2744
 8197TIP3    H248787   5.332   2.972   0.784  0.3777 -1.8666  0.7381
 8198TIP3   OH248788   6.155   0.677   0.735  0.6948  0.3561  0.0214
 8198TIP3    H148789   6.207   0.690   0.655 -0.0913  1.6784 -0.2905
 8198TIP3    H248790   6.150   0.763   0.775 -0.4095  0.0474  0.5863
 8199TIP3   OH248791   0.667   5.500   1.685 -0.2647  0.0223  0.2303
 8199TIP3    H148792   0.670   5.563   1.757  1.8596  0.7140 -0.4194
 8199TIP3    H248793   0.753   5.458   1.685 -1.0581 -1.7135 -0.4115
 8200TIP3   OH248794   1.131   4.126   2.022  0.2410 -0.1584 -0.3139
 8200TIP3    H148795   1.106   4.076   1.944 -0.5890 -1.1936  0.5906
 8200TIP3    H248796   1.191   4.069   2.069  0.4275  0.3056  0.0220
 8201TIP3   OH248797   2.545   0.023   2.400  0.5018 -0.1575  0.1217
 8201TIP3    H148798   2.572   0.115   2.403  1.6363 -0.4553 -0.4565
 8201TIP3    H248799   2.601  -0.021   2.463 -0.7159 -0.3076  1.1244
 8202TIP3   OH248800   5.672   4.773   0.921 -0.4975  0.2363 -0.6350
 8202TIP3    H148801   5.742   4.758   0.858 -0.7879  0.2954 -0.9773
 8202TIP3    H248802   5.618   4.841   0.881 -0.6173  0.3595 -0.2657
 8203TIP3   OH248803   3.694   2.176   0.847  0.3023  0.3677 -0.4108
 8203TIP3    H148804   3.735   2.255   0.812  3.4486 -0.2736  1.4489
 8203TIP3    H248805   3.732   2.104   0.797 -0.2458 -0.1435 -0.1062
 8204TIP3   OH248806   0.477   6.449   1.505 -0.1269 -0.2317  0.0947
 8204TIP3    H148807   0.501   6.499   1.428 -2.1538 -0.9555 -1.0668
 8204TIP3    H248808   0.394   6.487   1.534  0.1037 -0.6210  1.3280
 8205TIP3   OH248809   5.643   2.497   2.335  0.3344  0.1649  0.3726
 8205TIP3    H148810   5.651   2.413   2.381  1.3346  0.1235  0.1350
 8205TIP3    H248811   5.584   2.549   2.390 -0.2528 -0.6699  0.5468
 8206TIP3   OH248812   0.126   4.011   1.254 -0.1634  0.5413 -0.1383
 8206TIP3    H148813   0.205   4.017   1.308  0.0423  0.7417 -0.4649
 8206TIP3    H248814   0.056   3.992   1.317 -0.0867  1.7821  0.3425
 8207TIP3   OH248815   1.964   6.109   3.534  0.5160 -0.1561  0.8215
 8207TIP3    H148816   1.997   6.019   3.541  0.2081 -0.3965 -0.5833
 8207TIP3    H248817   2.042   6.163   3.538  0.6582 -0.4247  2.3191
 8208TIP3   OH248818   1.963   5.173   1.252 -0.1978  0.0433  0.0067
 8208TIP3    H148819   1.982   5.195   1.161 -1.0676 -0.9911 -0.4432
 8208TIP3    H248820   1.913   5.249   1.285 -0.5384  0.0918 -0.6079
 8209TIP3   OH248821   3.544   0.282   2.004 -0.2843  0.6246 -0.3395
 8209TIP3    H148822   3.596   0.323   1.934  1.3186  0.7908  0.8841
 8209TIP3    H248823   3.581   0.194   2.012 -1.2219  0.2116 -0.4371
 8210TIP3   OH248824   1.406   5.659   3.194  0.4691 -0.0685 -0.2910
 8210TIP3    H148825   1.493   5.684   3.163  1.1093 -0.3755  1.1531
 8210TIP3    H248826   1.377   5.733   3.247  0.3923 -0.4805  0.2525
 8211TIP3   OH248827   6.548   1.674   2.888 -0.0206  0.1855  0.2049
 8211TIP3    H148828   6.562   1.713   2.801 -1.2676  0.4925  0.1283
 8211TIP3    H248829   6.574   1.743   2.949 -0.5586  0.5144  0.0687
 8212TIP3   OH248830   0.247   4.936   3.106  0.3487 -0.1683 -0.0404
 8212TIP3    H148831   0.231   4.848   3.073  1.3053 -1.5949  2.9387
 8212TIP3    H248832   0.331   4.962   3.066 -0.1986 -0.3352 -1.3506
 8213TIP3   OH248833   3.904   4.219   2.166 -0.2955 -0.2650 -0.4576
 8213TIP3    H148834   3.958   4.235   2.244  0.9308  0.0588 -1.3437
 8213TIP3    H248835   3.917   4.297   2.112 -1.4754 -0.2988 -0.8120
 8214TIP3   OH248836   6.765   2.057   2.553 -0.5703  0.0793  0.8672
 8214TIP3    H148837   6.729   2.146   2.554  0.5389  0.5514  0.1692
 8214TIP3    H248838   6.688   2.001   2.538 -0.9632  1.1182 -1.3728
 8215TIP3   OH248839   2.583   6.709   1.147  0.1743  0.0842  0.2348
 8215TIP3    H148840   2.673   6.677   1.157 -0.5252 -2.3704 -0.4472
 8215TIP3    H248841   2.580   6.743   1.057  0.4190  0.1829  0.2629
 8216TIP3   OH248842   3.393   4.567   0.743  0.3630 -0.0631  0.2753
 8216TIP3    H148843   3.445   4.577   0.822 -0.2133  0.5371  0.5972
 8216TIP3    H248844   3.385   4.473   0.730  1.4208 -0.1573  0.2841
 8217TIP3   OH248845   6.154   2.829   2.086  0.3307 -0.0902  0.0473
 8217TIP3    H148846   6.189   2.905   2.131 -0.0215 -0.7678  1.5288
 8217TIP3    H248847   6.063   2.851   2.068  0.1926 -0.2085  0.5966
 8218TIP3   OH248848   3.763   4.952   2.984  0.0290  0.0988 -0.4534
 8218TIP3    H148849   3.816   4.871   2.988 -0.4972 -0.3673 -2.2542
 8218TIP3    H248850   3.815   5.012   2.931 -0.8388 -0.0473 -1.4784
 8219TIP3   OH248851   2.181   0.751   2.884  0.4099  0.1441 -0.2813
 8219TIP3    H148852   2.118   0.822   2.871  0.9251  0.5539 -0.5900
 8219TIP3    H248853   2.232   0.778   2.961 -0.1091 -0.4207  0.2658
 8220TIP3   OH248854   5.682   6.345   2.792  0.0092  0.0872 -0.4663
 8220TIP3    H148855   5.756   6.358   2.851  0.8971  0.9306 -1.7063
 8220TIP3    H248856   5.614   6.403   2.826  0.1237 -0.2153  0.3125
 8221TIP3   OH248857   5.844   6.768   2.644 -0.0414  0.7682  0.5781
 8221TIP3    H148858   5.818   6.747   2.555 -0.6124  1.7644  0.4923
 8221TIP3    H248859   5.827   6.688   2.694 -0.2821  0.3970 -0.0839
 8222TIP3   OH248860   6.110   6.600   3.069 -0.4629 -0.1109  0.0732
 8222TIP3    H148861   6.197   6.593   3.028 -0.9034  0.0936 -0.9025
 8222TIP3    H248862   6.052   6.630   2.999 -1.8443 -2.6699 -0.0004
 8223TIP3   OH248863   1.811   5.460   1.718 -0.0795 -0.2562  0.3472
 8223TIP3    H148864   1.822   5.365   1.712  0.3609 -0.1176 -1.7540
 8223TIP3    H248865   1.756   5.472   1.796 -0.8859 -2.2986  0.1766
 8224TIP3   OH248866   1.741   0.851   3.216 -0.3790  0.2165  0.7783
 8224TIP3    H148867   1.825   0.822   3.181  0.0059  1.5323  0.5706
 8224TIP3    H248868   1.750   0.946   3.226 -2.6978  0.8501 -1.7293
 8225TIP3   OH248869   1.453   3.752   1.110 -0.4393  0.4314  0.0725
 8225TIP3    H148870   1.505   3.832   1.114  2.3453 -1.2386  0.4533
 8225TIP3    H248871   1.473   3.715   1.024 -0.4379 -0.5988  0.5053
 8226TIP3   OH248872   0.111   3.440   3.587  0.0436 -0.3576  0.3618
 8226TIP3    H148873   0.080   3.522   3.548  0.0583  0.6727  2.3846
 8226TIP3    H248874   0.206   3.444   3.579  0.0689  0.0312  0.8089
 8227TIP3   OH248875   1.646   6.110   0.797  0.4244 -0.5470  0.6434
 8227TIP3    H148876   1.589   6.120   0.721  1.7155 -0.5485 -0.3575
 8227TIP3    H248877   1.618   6.027   0.837  0.2566 -0.9608 -0.3071
 8228TIP3   OH248878   0.136   3.159   2.488  0.4887  0.3004 -0.4228
 8228TIP3    H148879   0.108   3.222   2.422 -0.6637 -0.6882 -0.9128
 8228TIP3    H248880   0.093   3.077   2.463  1.8768 -0.6673  0.2398
 8229TIP3   OH248881   1.243   2.030   2.670 -0.8364 -0.0015 -0.0205
 8229TIP3    H148882   1.222   1.990   2.755 -1.2980 -0.5210 -0.3708
 8229TIP3    H248883   1.315   1.977   2.637  1.4050  2.0021  1.3452
 8230TIP3   OH248884   1.668   1.675   1.560  0.1382 -0.0409  0.3395
 8230TIP3    H148885   1.679   1.757   1.608 -1.2134  1.2562 -1.4152
 8230TIP3    H248886   1.749   1.666   1.510  0.9911 -0.7096  1.7595
 8231TIP3   OH248887   6.380   4.667   2.283 -0.1046 -0.0817 -0.1331
 8231TIP3    H148888   6.450   4.601   2.286  0.4943  0.5239 -0.5135
 8231TIP3    H248889   6.395   4.722   2.359 -0.0818  0.1267 -0.2867
 8232TIP3   OH248890   1.186   5.182   0.504 -0.2450 -0.5219  0.1685
 8232TIP3    H148891   1.153   5.093   0.517  0.3771 -0.8470 -0.3820
 8232TIP3    H248892   1.113   5.229   0.463 -1.4548 -0.0741  2.6502
 8233TIP3   OH248893   2.998   5.834   3.512  0.1488  0.2309  0.1458
 8233TIP3    H148894   3.070   5.881   3.470  1.1843 -0.5388  1.0100
 8233TIP3    H248895   3.008   5.854   3.605 -0.8592  0.2329  0.2674
 8234TIP3   OH248896   2.477   2.352   2.210 -0.2117  0.4561 -0.1197
 8234TIP3    H148897   2.482   2.258   2.227  2.1172  0.4895 -0.2952
 8234TIP3    H248898   2.406   2.362   2.147 -0.9925 -1.0851  0.4759
 8235TIP3   OH248899   3.799   2.686   2.800  0.5069  0.1237 -0.8149
 8235TIP3    H148900   3.891   2.705   2.818 -0.1189  1.2767  1.5856
 8235TIP3    H248901   3.761   2.772   2.780 -0.0373 -0.3634 -1.9456
 8236TIP3   OH248902   4.101   3.670   1.832  0.1155  0.7378  0.1792
 8236TIP3    H148903   4.195   3.670   1.814  0.0471 -1.8492 -0.6262
 8236TIP3    H248904   4.062   3.715   1.756  0.6321  0.7493 -0.0832
 8237TIP3   OH248905   1.892   1.605   1.397  0.3129  0.2297  0.2921
 8237TIP3    H148906   1.946   1.664   1.345  0.9417  0.8016  1.5582
 8237TIP3    H248907   1.944   1.525   1.404 -0.7612 -0.7389 -1.8687
 8238TIP3   OH248908   1.853   2.844   3.279 -0.1726 -0.0739  0.1068
 8238TIP3    H148909   1.817   2.782   3.342  0.9772 -0.9580 -0.0629
 8238TIP3    H248910   1.777   2.874   3.228 -0.7687 -1.2481  0.2775
 8239TIP3   OH248911   6.283   1.582   1.107 -0.3597 -0.0476 -0.0977
 8239TIP3    H148912   6.349   1.645   1.081 -0.2880 -0.2907 -0.5154
 8239TIP3    H248913   6.308   1.501   1.062 -2.0801  0.3758 -1.8973
 8240TIP3   OH248914   1.792   1.728   1.125 -0.7322  0.0895 -0.1548
 8240TIP3    H148915   1.881   1.710   1.095 -1.4166 -1.8457 -1.1837
 8240TIP3    H248916   1.797   1.816   1.163  1.7682 -0.2685  0.5261
 8241TIP3   OH248917   0.737   6.386   2.903  0.4788  0.2546  0.0730
 8241TIP3    H148918   0.815   6.349   2.943 -0.4431 -2.1934 -0.1965
 8241TIP3    H248919   0.670   6.318   2.914 -0.7783  0.9405 -2.4188
 8242TIP3   OH248920   6.001   3.365   2.828 -0.5752 -0.1126  0.0364
 8242TIP3    H148921   6.029   3.451   2.859  0.8692  0.0551 -1.5770
 8242TIP3    H248922   5.907   3.375   2.810 -0.7476  0.6636  1.2766
 8243TIP3   OH248923   1.207   0.764   3.341  0.3648 -0.3718 -0.4906
 8243TIP3    H148924   1.219   0.846   3.294 -1.1721 -1.1313 -2.3176
 8243TIP3    H248925   1.238   0.696   3.280  0.0401 -1.2755  0.3179
 8244TIP3   OH248926   3.758   0.027   1.867  0.4547  0.5323  0.0949
 8244TIP3    H148927   3.687   0.067   1.817 -0.5515  0.4260  1.3758
 8244TIP3    H248928   3.838   0.058   1.825 -0.3409  0.7409 -1.3166
 8245TIP3   OH248929   1.104   1.803   3.720  0.0316  0.0397 -0.2655
 8245TIP3    H148930   1.101   1.873   3.785  1.2005  0.2298 -0.3867
 8245TIP3    H248931   1.083   1.723   3.769 -1.2239  0.4512 -0.1131
 8246TIP3   OH248932   0.582   5.979   3.682 -0.3718  0.4602 -0.1119
 8246TIP3    H148933   0.500   6.008   3.643  0.6119  1.3868 -1.6396
 8246TIP3    H248934   0.632   6.060   3.696  0.3277 -0.0876  0.6506
 8247TIP3   OH248935   3.783   0.696   3.100 -0.0273 -0.4853  0.1464
 8247TIP3    H148936   3.846   0.658   3.038  1.5723  4.1038 -1.4254
 8247TIP3    H248937   3.805   0.654   3.183  3.6212 -0.8373 -0.7903
 8248TIP3   OH248938   4.885   4.528   1.230 -0.5376  0.5678 -0.5056
 8248TIP3    H148939   4.974   4.503   1.206 -0.4465 -0.5727  0.8758
 8248TIP3    H248940   4.896   4.582   1.308 -1.0671  0.2996 -0.2444
 8249TIP3   OH248941   2.208   3.156   3.331  0.1470 -0.3958  0.3157
 8249TIP3    H148942   2.288   3.127   3.374 -0.2408 -0.1406  1.2380
 8249TIP3    H248943   2.162   3.075   3.308  0.4775 -0.5363  0.1311
 8250TIP3   OH248944   6.363   6.521   2.029 -0.3676 -0.8996  0.1698
 8250TIP3    H148945   6.309   6.525   2.108 -1.0420  0.2128 -0.3284
 8250TIP3    H248946   6.376   6.612   2.005  0.6843 -1.1986 -0.4450
 8251TIP3   OH248947   5.652   3.089   3.307  0.0174 -0.7167  0.2878
 8251TIP3    H148948   5.563   3.083   3.342 -0.1748 -1.1443 -0.2522
 8251TIP3    H248949   5.693   3.159   3.358 -1.0444  0.4159 -0.3531
 8252TIP3   OH248950   1.676   5.119   3.687  0.2082  0.6816  0.4901
 8252TIP3    H148951   1.708   5.064   3.758  0.1326  0.9971  0.7728
 8252TIP3    H248952   1.754   5.147   3.640  0.3102  1.0130  0.8524
 8253TIP3   OH248953   1.239   2.547   1.632 -0.4892 -0.1879  0.0066
 8253TIP3    H148954   1.227   2.551   1.537 -0.3090 -0.1766 -0.0164
 8253TIP3    H248955   1.153   2.565   1.668 -0.7316 -0.9394 -0.1700
 8254TIP3   OH248956   6.686   5.915   1.038 -0.6345 -0.0834 -0.0108
 8254TIP3    H148957   6.644   5.910   1.124 -0.9586 -0.3303 -0.1818
 8254TIP3    H248958   6.655   5.997   1.001 -0.2423  0.1799  0.2361
 8255TIP3   OH248959   5.482   3.200   2.220 -0.5513  0.5663  0.3838
 8255TIP3    H148960   5.391   3.175   2.239 -0.4175  0.1955  0.5402
 8255TIP3    H248961   5.474   3.272   2.157 -0.9926  1.7569  1.7403
 8256TIP3   OH248962   0.378   2.345   2.525  0.1068  0.4258 -0.7220
 8256TIP3    H148963   0.332   2.429   2.528  0.8664  0.8522 -0.8151
 8256TIP3    H248964   0.364   2.307   2.612 -0.4000  0.5613 -0.7439
 8257TIP3   OH248965   3.144   3.622   2.418  0.1541 -0.1892 -0.2798
 8257TIP3    H148966   3.062   3.576   2.397  0.0847 -0.1510 -0.0950
 8257TIP3    H248967   3.117   3.712   2.433 -0.4175 -0.8363  3.6660
 8258TIP3   OH248968   0.608   0.815   3.348 -0.1194 -0.0690  0.2814
 8258TIP3    H148969   0.652   0.843   3.268  1.0566 -0.8315  0.6374
 8258TIP3    H248970   0.592   0.721   3.335 -1.0190  0.0452  0.4592
 8259TIP3   OH248971   3.332   5.036   0.484  0.7163 -0.2257  0.0987
 8259TIP3    H148972   3.358   4.963   0.541  0.7823 -0.9349 -0.8174
 8259TIP3    H248973   3.393   5.031   0.410  0.0860  0.1521 -0.4521
 8260TIP3   OH248974   1.006   5.550   1.248  0.5203 -0.2075 -0.2197
 8260TIP3    H148975   0.964   5.636   1.254 -0.1973 -0.5235 -0.6471
 8260TIP3    H248976   1.048   5.549   1.162  0.8946 -0.1238 -0.0399
 8261TIP3   OH248977   0.691   0.896   2.812 -0.0838 -0.6767  0.4223
 8261TIP3    H148978   0.654   0.819   2.855 -0.0375  0.1211  1.9856
 8261TIP3    H248979   0.766   0.863   2.764 -0.2722 -1.6626  0.7869
 8262TIP3   OH248980   0.574   5.812   1.225 -0.0384  0.4990 -0.2543
 8262TIP3    H148981   0.595   5.904   1.211  0.9756  0.3604  0.2500
 8262TIP3    H248982   0.479   5.809   1.224 -0.2299  2.0563  2.7075
 8263TIP3   OH248983   0.905   5.264   0.418 -0.1887 -0.2597 -0.0853
 8263TIP3    H148984   0.844   5.236   0.350  1.6215 -0.9792 -1.4999
 8263TIP3    H248985   0.889   5.205   0.492 -0.4074 -1.1960 -0.8717
 8264TIP3   OH248986   2.394   4.250   0.767  0.0638 -0.2018  0.1246
 8264TIP3    H148987   2.341   4.328   0.781  0.1703 -0.3174  1.2418
 8264TIP3    H248988   2.338   4.192   0.715  0.2038  0.8340 -1.2356
 8265TIP3   OH248989   5.501   3.296   1.746  0.7904 -0.1545 -0.0419
 8265TIP3    H148990   5.420   3.348   1.745  2.1228  2.1120 -1.7460
 8265TIP3    H248991   5.534   3.305   1.835  0.4075  1.0516 -0.0055
 8266TIP3   OH248992   6.301   3.466   2.807  1.0126  0.1564 -0.2659
 8266TIP3    H148993   6.282   3.455   2.714 -1.0586  0.8883  0.0182
 8266TIP3    H248994   6.238   3.531   2.837  2.0848  0.4347  1.5194
 8267TIP3   OH248995   0.639   0.312   2.516 -0.6946 -0.7257  0.0953
 8267TIP3    H148996   0.543   0.310   2.506 -0.6870 -0.0501 -0.1577
 8267TIP3    H248997   0.653   0.287   2.607 -1.2120  0.6691  0.5889
 8268TIP3   OH248998   6.259   3.406   3.460  0.2878 -0.5654 -0.0673
 8268TIP3    H148999   6.261   3.378   3.552  1.1617  1.1283  0.4670
 8268TIP3    H249000   6.350   3.424   3.438 -0.1673  1.6858 -0.3774
 8269TIP3   OH249001   3.516   2.308   3.270 -0.3795 -0.0839  0.1437
 8269TIP3    H149002   3.502   2.291   3.177 -1.3935 -0.4274  0.3501
 8269TIP3    H249003   3.512   2.222   3.311  3.6392 -0.4732  0.1368
 8270TIP3   OH249004   2.954   3.583   4.375 -0.2139 -0.0257  0.1962
 8270TIP3    H149005   2.901   3.504   4.372 -1.2000  0.6480 -0.5896
 8270TIP3    H249006   2.949   3.618   4.286  0.1602  0.9540  0.5555
 8271TIP3   OH249007   3.846   0.114   2.284  0.3631 -0.2187 -0.0017
 8271TIP3    H149008   3.930   0.129   2.327  0.8788  0.3937 -1.1869
 8271TIP3    H249009   3.837   0.187   2.223 -1.7317  0.5860  1.1474
 8272TIP3   OH249010   0.052   5.293   3.648  0.4415  0.2013  0.1965
 8272TIP3    H149011   0.045   5.316   3.555  1.7032  1.8145  0.4737
 8272TIP3    H249012   0.044   5.197   3.648 -1.4796  0.2752 -1.3518
 8273TIP3   OH249013   5.614   2.245   2.440  0.5629 -0.4878  0.3538
 8273TIP3    H149014   5.543   2.191   2.476  0.7541 -0.4280  0.8283
 8273TIP3    H249015   5.692   2.219   2.489  0.8531 -0.4814 -0.0960
 8274TIP3   OH249016   5.145   2.769   1.611  0.2622  0.1107  0.5982
 8274TIP3    H149017   5.099   2.851   1.627  1.6501  0.9524  0.4126
 8274TIP3    H249018   5.197   2.754   1.689  0.7398 -0.0843  0.2508
 8275TIP3   OH249019   6.815   0.499   1.165 -0.5023 -0.5252 -0.1202
 8275TIP3    H149020   6.786   0.424   1.217 -1.4499  0.2534  0.5111
 8275TIP3    H249021   6.863   0.554   1.227 -1.1981  0.1621 -0.1776
 8276TIP3   OH249022   1.258   6.407   2.560 -0.2767  0.1924 -0.1488
 8276TIP3    H149023   1.304   6.490   2.550 -2.1969  1.1024 -2.6032
 8276TIP3    H249024   1.216   6.414   2.645 -1.2766  2.2858 -0.7294
 8277TIP3   OH249025   4.659   4.562   1.690 -0.7054  0.4306  0.2826
 8277TIP3    H149026   4.682   4.484   1.640 -1.4663 -0.0674  0.7004
 8277TIP3    H249027   4.739   4.583   1.740  0.2890  1.3175 -1.5808
 8278TIP3   OH249028   0.976   1.034   1.639  0.2112  0.7031 -0.1056
 8278TIP3    H149029   0.916   1.104   1.612 -3.1059 -1.6900  0.5202
 8278TIP3    H249030   1.000   1.056   1.729 -0.5470  1.2298 -0.0188
 8279TIP3   OH249031   2.887   0.595   2.139  0.5521 -0.0305  0.1634
 8279TIP3    H149032   2.945   0.575   2.065  0.3830 -1.0988  0.3038
 8279TIP3    H249033   2.808   0.630   2.098  0.6510 -0.1446 -0.1299
 8280TIP3   OH249034   6.114   0.954   0.855  0.0139  0.0413  0.1769
 8280TIP3    H149035   6.133   1.025   0.793  0.1806  0.6766  0.9429
 8280TIP3    H249036   6.048   0.991   0.914 -1.9364 -1.3370 -1.0160
 8281TIP3   OH249037   3.224   6.426   3.403  0.1009 -0.2804 -0.1107
 8281TIP3    H149038   3.189   6.515   3.407  0.9120  0.0951 -0.8349
 8281TIP3    H249039   3.178   6.378   3.471 -2.6720 -0.1238 -1.7449
 8282TIP3   OH249040   2.957   1.902   3.571  0.8067  0.4231 -0.1126
 8282TIP3    H149041   3.051   1.886   3.561  0.7772  0.7389 -0.9815
 8282TIP3    H249042   2.934   1.857   3.653  1.9785  1.5388  0.8815
 8283TIP3   OH249043   3.813   5.962   2.019 -0.1215  0.3348  0.3301
 8283TIP3    H149044   3.864   5.966   1.939 -0.1416 -0.1635  0.2931
 8283TIP3    H249045   3.808   5.869   2.041 -1.5172  0.3159  0.0134
 8284TIP3   OH249046   4.586   6.416   1.275 -0.3249 -0.5793  0.4976
 8284TIP3    H149047   4.667   6.373   1.248  0.1174 -0.1097  1.0398
 8284TIP3    H249048   4.602   6.509   1.259 -1.3784 -0.6254 -0.9304
 8285TIP3   OH249049   0.371   0.477   1.473  0.2508  0.4626 -0.4059
 8285TIP3    H149050   0.419   0.400   1.441  1.6336  1.8634 -1.9508
 8285TIP3    H249051   0.440   0.536   1.503 -0.8184  0.9324  1.2437
 8286TIP3   OH249052   1.790   5.212   1.827 -0.6389 -0.0505  0.2067
 8286TIP3    H149053   1.841   5.246   1.900 -1.2059 -0.1876  0.6803
 8286TIP3    H249054   1.818   5.121   1.818 -0.9255 -0.1763  0.5813
 8287TIP3   OH249055   0.891   0.351   1.721 -0.7485  0.1790  0.0022
 8287TIP3    H149056   0.905   0.293   1.645 -0.1841  1.4809 -0.9280
 8287TIP3    H249057   0.963   0.330   1.780 -0.2432  0.2686 -0.5643
 8288TIP3   OH249058   6.365   0.980   2.058  0.3194 -0.2215 -0.3053
 8288TIP3    H149059   6.436   1.026   2.102 -0.2876  0.6322 -0.1942
 8288TIP3    H249060   6.317   1.049   2.011  0.1463 -0.9151 -1.1906
 8289TIP3   OH249061   1.237   5.770   3.840 -0.3921 -0.3306  0.4659
 8289TIP3    H149062   1.240   5.686   3.886 -2.7606 -0.3719  0.6655
 8289TIP3    H249063   1.251   5.835   3.909 -2.8309 -0.4458  1.1885
 8290TIP3   OH249064   3.079   6.799   2.706 -0.3683  0.4585 -0.7859
 8290TIP3    H149065   3.155   6.741   2.711 -0.0651  0.6653 -2.3862
 8290TIP3    H249066   3.011   6.753   2.756  0.0478 -0.9984 -1.4927
 8291TIP3   OH249067   3.007   5.133   0.881  0.6682 -0.3241 -0.1227
 8291TIP3    H149068   3.018   5.041   0.906 -0.2801 -0.1210  1.1435
 8291TIP3    H249069   3.084   5.153   0.828  1.3089 -1.6162  0.2846
 8292TIP3   OH249070   6.596   4.825   3.074 -0.1026  0.9291  0.3539
 8292TIP3    H149071   6.613   4.827   3.168 -0.7984  1.1171  0.4825
 8292TIP3    H249072   6.554   4.909   3.055  0.1128  0.9296 -0.1375
 8293TIP3   OH249073   1.264   0.064   3.640 -0.3800  0.2798 -0.1097
 8293TIP3    H149074   1.320   0.086   3.714 -0.8594 -0.5616  0.5244
 8293TIP3    H249075   1.175   0.079   3.671 -0.8052 -2.8665  0.5796
 8294TIP3   OH249076   1.539   2.629   1.230 -0.0955 -0.0101 -0.4516
 8294TIP3    H149077   1.617   2.670   1.193  0.2245 -0.8924 -0.7974
 8294TIP3    H249078   1.524   2.552   1.174 -0.3167 -0.6888  0.5143
 8295TIP3   OH249079   3.942   5.503   2.175  0.0185 -0.5195  0.6963
 8295TIP3    H149080   3.918   5.444   2.103  0.8856 -1.3396  1.0554
 8295TIP3    H249081   4.036   5.516   2.164 -0.1020  0.5093  0.8476
 8296TIP3   OH249082   6.290   1.769   0.851  0.1124 -0.1305 -0.1538
 8296TIP3    H149083   6.328   1.846   0.808 -0.1580 -0.2588 -0.6343
 8296TIP3    H249084   6.358   1.739   0.911  0.6814 -0.2124 -0.8283
 8297TIP3   OH249085   4.031   2.465   1.066  0.1655 -0.3849  0.3714
 8297TIP3    H149086   4.078   2.447   1.148 -1.5836 -1.4340  1.2216
 8297TIP3    H249087   4.067   2.402   1.004  1.0549 -0.0257  0.5132
 8298TIP3   OH249088   2.425   5.944   3.060 -0.0321 -0.0521  0.5697
 8298TIP3    H149089   2.401   5.902   3.142 -1.3836 -0.6248 -0.0922
 8298TIP3    H249090   2.384   6.031   3.065 -3.2996 -1.3573 -0.9525
 8299TIP3   OH249091   3.177   6.468   2.768  0.0935  0.4779 -0.0048
 8299TIP3    H149092   3.143   6.405   2.704 -1.4528  2.0664 -0.8204
 8299TIP3    H249093   3.113   6.468   2.839  1.2953 -0.5417  1.1276
 8300TIP3   OH249094   1.535   5.487   1.008 -0.1035  0.3407 -0.1822
 8300TIP3    H149095   1.494   5.524   1.086  0.4056  0.7021 -0.0782
 8300TIP3    H249096   1.466   5.486   0.942 -0.3625  0.6426  0.0796
 8301TIP3   OH249097   5.131   3.612   0.467 -0.0760 -0.3975 -0.7707
 8301TIP3    H149098   5.204   3.601   0.407 -0.0608 -2.1692 -0.4882
 8301TIP3    H249099   5.120   3.526   0.508 -0.3026  0.6203  1.5079
 8302TIP3   OH249100   5.111   0.221   2.769  0.2642 -0.1197  0.2033
 8302TIP3    H149101   5.154   0.193   2.850  1.3183  0.2479 -0.2161
 8302TIP3    H249102   5.153   0.170   2.700  0.2398  0.4682 -0.2531
 8303TIP3   OH249103   2.533   4.951   2.045 -0.0906  0.2609  0.0310
 8303TIP3    H149104   2.552   4.993   2.129  0.2496  0.5183 -0.1712
 8303TIP3    H249105   2.500   5.022   1.990  3.1507  0.9762 -1.2354
 8304TIP3   OH249106   1.331   1.284   2.274  0.2953  0.4473 -0.3428
 8304TIP3    H149107   1.251   1.255   2.318  0.4823  0.6695  0.1468
 8304TIP3    H249108   1.314   1.376   2.253  0.9108  0.8676  0.9181
 8305TIP3   OH249109   6.602   4.158   2.709  0.0956  0.0353  0.2329
 8305TIP3    H149110   6.621   4.066   2.691 -0.1869 -0.6072  2.7673
 8305TIP3    H249111   6.507   4.161   2.721  0.2487  0.2990  1.6300
 8306TIP3   OH249112   3.703   4.525   1.329  0.4765 -0.4567 -0.7044
 8306TIP3    H149113   3.773   4.462   1.311  0.1001 -1.2458  0.5014
 8306TIP3    H249114   3.701   4.532   1.424  0.9881  1.9543 -0.8104
 8307TIP3   OH249115   3.573   6.407   1.979 -0.2714  0.3730  0.1453
 8307TIP3    H149116   3.598   6.473   1.915  0.6541  1.3954  1.4998
 8307TIP3    H249117   3.653   6.356   1.993 -1.2577 -1.9365 -1.7900
 8308TIP3   OH249118   4.613   3.756   0.604  0.2001  0.1820 -0.1134
 8308TIP3    H149119   4.665   3.831   0.632  1.3295 -1.3262  2.1256
 8308TIP3    H249120   4.678   3.689   0.582 -0.7487 -1.1542  1.0058
 8309TIP3   OH249121   3.651   0.223   3.609 -0.1832  0.3005 -0.1446
 8309TIP3    H149122   3.598   0.167   3.666 -1.3922  1.2124 -0.3340
 8309TIP3    H249123   3.685   0.164   3.541 -0.1675 -0.4648  0.5169
 8310TIP3   OH249124   1.648   1.804   0.916  0.0340 -0.0041  0.1785
 8310TIP3    H149125   1.721   1.794   0.977 -0.0275  1.0591  0.4421
 8310TIP3    H249126   1.569   1.797   0.970 -0.0530 -0.3825  0.0103
 8311TIP3   OH249127   6.120   6.604   1.233 -0.6378 -0.2861  0.2968
 8311TIP3    H149128   6.207   6.573   1.209 -0.8801 -0.4096 -0.4747
 8311TIP3    H249129   6.135   6.688   1.277 -0.1938  0.4148 -1.1323
 8312TIP3   OH249130   0.511   1.259   2.245  0.2058 -0.4210 -0.1754
 8312TIP3    H149131   0.422   1.236   2.272  0.4229 -0.9716  0.0771
 8312TIP3    H249132   0.503   1.349   2.214  0.0529  0.5243  2.3654
 8313TIP3   OH249133   5.037   0.773   3.246  0.0139 -0.5337  1.1533
 8313TIP3    H149134   5.081   0.777   3.161 -1.7109 -1.8536  0.1408
 8313TIP3    H249135   5.104   0.744   3.307  1.7875  2.1900  0.6778
 8314TIP3   OH249136   2.463   2.254   3.613 -0.2265 -0.1131 -0.5969
 8314TIP3    H149137   2.529   2.229   3.549  0.5348 -0.5433  0.3321
 8314TIP3    H249138   2.447   2.174   3.663 -1.7181 -0.1148 -1.0262
 8315TIP3   OH249139   5.740   5.527   1.033  0.1971 -0.0885 -0.3328
 8315TIP3    H149140   5.797   5.558   1.103 -1.1153  1.0107  0.3044
 8315TIP3    H249141   5.748   5.593   0.965 -0.9558  0.5654  0.1331
 8316TIP3   OH249142   0.168   6.804   2.914  0.5377  0.4113 -0.1164
 8316TIP3    H149143   0.107   6.771   2.848 -0.5285  1.6430  0.2064
 8316TIP3    H249144   0.122   6.790   2.997  1.0119  0.6773  0.1928
 8317TIP3   OH249145   0.957   4.162   2.540  0.2710 -0.1474 -0.3536
 8317TIP3    H149146   1.048   4.193   2.534  1.2726 -2.7958 -0.0625
 8317TIP3    H249147   0.913   4.231   2.590  2.6760  0.1694  1.5687
 8318TIP3   OH249148   1.526   2.183   2.702 -0.1372 -0.5581  0.3444
 8318TIP3    H149149   1.461   2.175   2.632  0.2147 -0.0832 -0.0461
 8318TIP3    H249150   1.546   2.276   2.706  1.9481 -0.8838 -0.8967
 8319TIP3   OH249151   0.379   6.274   3.340 -0.8189 -0.4268 -0.0024
 8319TIP3    H149152   0.453   6.227   3.302 -0.0083  2.0831 -1.7878
 8319TIP3    H249153   0.317   6.283   3.268 -1.3871  0.3372  0.5718
 8320TIP3   OH249154   0.085   4.823   3.302 -0.5847 -0.5710 -0.1513
 8320TIP3    H149155   0.120   4.856   3.384  0.4973 -2.1053  0.0535
 8320TIP3    H249156   0.134   4.868   3.234 -1.7330  0.9745 -0.0066
 8321TIP3   OH249157   5.682   2.336   1.162  0.3036  0.2307 -0.1073
 8321TIP3    H149158   5.713   2.306   1.077  1.8144  2.8749 -0.6000
 8321TIP3    H249159   5.587   2.325   1.158  0.2996  0.6389 -2.3231
 8322TIP3   OH249160   1.019   4.884   2.486 -0.0274  0.1715 -0.1990
 8322TIP3    H149161   1.020   4.796   2.522 -0.9955 -1.2000 -3.2163
 8322TIP3    H249162   0.988   4.939   2.558 -0.8642 -2.1704  1.3296
 8323TIP3   OH249163   3.892   5.629   2.767  0.4608 -0.0358 -0.5705
 8323TIP3    H149164   3.979   5.594   2.787  0.3695 -0.6489 -1.2140
 8323TIP3    H249165   3.903   5.674   2.683  0.5683  1.4796  0.2262
 8324TIP3   OH249166   0.524   1.120   2.789  0.2051 -0.5928 -0.2783
 8324TIP3    H149167   0.598   1.060   2.799  1.5989  1.0808 -0.2859
 8324TIP3    H249168   0.545   1.172   2.712 -1.0281 -0.1267 -0.3221
 8325TIP3   OH249169   6.353   5.203   2.235  0.0483 -0.1584 -0.7232
 8325TIP3    H149170   6.448   5.197   2.245 -0.2448 -1.8158  2.3685
 8325TIP3    H249171   6.324   5.112   2.226 -1.4261 -0.1818  2.6573
 8326TIP3   OH249172   2.436   6.655   2.642 -0.2612  0.0674  0.0042
 8326TIP3    H149173   2.372   6.620   2.581  1.0136 -1.1142 -0.7007
 8326TIP3    H249174   2.453   6.583   2.703  1.3477 -0.1123 -0.6117
 8327TIP3   OH249175   4.706   6.238   1.628 -0.5792  0.0940  0.2734
 8327TIP3    H149176   4.697   6.332   1.642  0.4007  0.0909  1.1162
 8327TIP3    H249177   4.659   6.220   1.547 -0.4232  1.3758 -0.1157
 8328TIP3   OH249178   4.231   0.712   2.573 -0.3959 -0.4090  0.1929
 8328TIP3    H149179   4.251   0.732   2.665  0.2559  0.3847 -0.1060
 8328TIP3    H249180   4.305   0.658   2.544  0.1376  0.5414 -0.2560
 8329TIP3   OH249181   0.509   3.218   2.786  0.6160  0.5647 -0.1973
 8329TIP3    H149182   0.452   3.195   2.712  0.8979  0.4033 -0.3698
 8329TIP3    H249183   0.554   3.136   2.807 -2.4365 -0.5405  2.8729
 8330TIP3   OH249184   3.196   2.157   1.484 -0.6521 -0.1580 -0.3023
 8330TIP3    H149185   3.281   2.175   1.524  0.2896 -1.5655 -1.5534
 8330TIP3    H249186   3.139   2.227   1.517  0.7660  0.3677  1.1918
 8331TIP3   OH249187   1.202   3.441   3.125 -0.4925  0.0766 -0.0029
 8331TIP3    H149188   1.164   3.527   3.138  0.2929  0.6266 -1.1313
 8331TIP3    H249189   1.295   3.458   3.107 -0.2350 -1.0326  0.1794
 8332TIP3   OH249190   4.735   6.542   0.968  0.5632  0.4294  0.1237
 8332TIP3    H149191   4.723   6.563   1.061  0.9926 -1.8483  0.7395
 8332TIP3    H249192   4.680   6.605   0.922 -1.8134 -0.1162  2.0609
 8333TIP3   OH249193   6.040   1.805   3.622 -0.1413  0.4837 -0.0037
 8333TIP3    H149194   6.101   1.751   3.673  0.1324  2.8788  2.4942
 8333TIP3    H249195   5.966   1.747   3.603  0.2818 -0.8992  2.1935
 8334TIP3   OH249196   1.545   2.421   1.036  0.0496 -0.0710 -0.6104
 8334TIP3    H149197   1.467   2.384   0.996 -0.2008  0.7186 -0.8570
 8334TIP3    H249198   1.612   2.353   1.026 -0.4719 -0.5549 -0.8249
 8335TIP3   OH249199   1.883   0.800   2.331 -0.1974  0.4708 -0.3882
 8335TIP3    H149200   1.829   0.860   2.281 -1.9133  0.9179  1.8652
 8335TIP3    H249201   1.921   0.854   2.401  1.4113 -0.2957 -0.6276
 8336TIP3   OH249202   2.025   4.644  11.377  0.6595 -0.1962 -0.5263
 8336TIP3    H149203   2.103   4.693  11.402  1.6657 -1.6268 -0.7783
 8336TIP3    H249204   2.016   4.658  11.283  0.7626 -0.2396 -0.5427
 8337TIP3   OH249205   0.890   2.508   2.741 -0.1233 -0.2162 -0.2314
 8337TIP3    H149206   0.821   2.443   2.724 -1.2138  0.7397  0.3853
 8337TIP3    H249207   0.862   2.586   2.693  1.0955 -0.1219 -0.8400
 8338TIP3   OH249208   3.390   4.856   0.677 -0.6559 -0.1938 -0.0000
 8338TIP3    H149209   3.298   4.848   0.702 -0.1263 -0.7506  1.9706
 8338TIP3    H249210   3.424   4.766   0.681 -0.4427 -0.3167 -2.6850
 8339TIP3   OH249211   3.565   6.297   1.537  0.6697 -0.2753 -0.1201
 8339TIP3    H149212   3.489   6.327   1.588  1.4828  0.7441  0.5481
 8339TIP3    H249213   3.614   6.242   1.598 -0.5049 -2.6042 -1.1622
 8340TIP3   OH249214   1.546   1.486   3.608 -0.1984 -0.0484  0.0044
 8340TIP3    H149215   1.475   1.550   3.608 -1.2079 -1.1288  1.4800
 8340TIP3    H249216   1.625   1.539   3.619 -1.0566  0.9321  1.8046
 8341TIP3   OH249217   0.287   0.849   2.210  0.1695  0.6417  0.3396
 8341TIP3    H149218   0.381   0.840   2.200  0.0345 -3.0224  0.9912
 8341TIP3    H249219   0.260   0.773   2.261 -2.8809  2.8512  2.4009
 8342TIP3   OH249220   1.478   2.477   2.916 -0.2904  0.0819  0.3055
 8342TIP3    H149221   1.403   2.433   2.876 -0.6612  0.0860  0.9790
 8342TIP3    H249222   1.440   2.548   2.967  0.2874  1.0998 -0.6309
 8343TIP3   OH249223   1.941   2.156   3.309 -0.1712 -0.6918  0.2080
 8343TIP3    H149224   1.875   2.153   3.239  2.7266  0.0376 -2.8428
 8343TIP3    H249225   1.945   2.248   3.333 -0.4771 -0.7871  0.6257
 8344TIP3   OH249226   3.090   2.090   2.654  0.4860  0.7334  0.5868
 8344TIP3    H149227   3.075   2.061   2.564 -1.3121  1.0709  0.7342
 8344TIP3    H249228   3.181   2.120   2.655  0.1655  1.9761 -1.4830
 8345TIP3   OH249229   1.032   5.455   1.523  0.0905 -0.2144 -0.0772
 8345TIP3    H149230   1.067   5.536   1.559 -1.4753  1.1524 -1.4709
 8345TIP3    H249231   1.057   5.456   1.431 -2.7746  0.4352 -0.9459
 8346TIP3   OH249232   4.261   0.345   0.437  0.7292 -0.1939 -0.2687
 8346TIP3    H149233   4.198   0.354   0.508  1.4368 -0.1124  0.3602
 8346TIP3    H249234   4.208   0.323   0.360 -0.1844  0.9825 -0.0053
 8347TIP3   OH249235   0.456   0.306   2.760  0.1996 -1.0655 -0.5652
 8347TIP3    H149236   0.394   0.237   2.736  0.2957 -0.4384 -2.8890
 8347TIP3    H249237   0.413   0.387   2.733  0.9226 -0.3875  0.2782
 8348TIP3   OH249238   1.943   0.110  11.091 -0.0375 -0.0065 -0.2220
 8348TIP3    H149239   2.015   0.174  11.092  1.4842 -1.6605 -0.0794
 8348TIP3    H249240   1.920   0.099  11.183  0.0787 -0.0544 -0.1972
 8349TIP3   OH249241   1.664   2.652   0.949 -0.0105  0.2667 -0.1032
 8349TIP3    H149242   1.623   2.570   0.978 -0.5941 -0.5655 -3.0069
 8349TIP3    H249243   1.749   2.625   0.915  1.0932  1.3588  1.6214
 8350TIP3   OH249244   5.215   6.801   1.631  0.1286 -0.1045  0.0674
 8350TIP3    H149245   5.129   6.783   1.594  0.1895 -0.9311  0.2945
 8350TIP3    H249246   5.202   6.878   1.685 -0.4136 -0.0706 -0.1021
 8351TIP3   OH249247   0.392   0.381   4.222  0.2420 -0.1186  0.1549
 8351TIP3    H149248   0.359   0.298   4.187 -1.4422  1.0049 -1.0745
 8351TIP3    H249249   0.440   0.356   4.301 -0.0064 -2.2765 -0.3060
 8352TIP3   OH249250   5.464   3.465   0.766 -0.4947  0.3555  0.1233
 8352TIP3    H149251   5.368   3.467   0.763 -0.5631  0.1006  1.5456
 8352TIP3    H249252   5.485   3.455   0.859  0.9325  1.0937 -0.0931
 8353TIP3   OH249253   5.413   6.329   3.081 -0.2740 -0.0266  0.5747
 8353TIP3    H149254   5.345   6.394   3.098  1.4103  2.4544 -1.5093
 8353TIP3    H249255   5.378   6.275   3.010 -0.3241  0.8692 -0.0896
 8354TIP3   OH249256   3.529   3.661   3.130  0.6332  0.7630 -0.2751
 8354TIP3    H149257   3.468   3.588   3.127  0.2464  1.0125  0.8824
 8354TIP3    H249258   3.538   3.689   3.039 -0.2092  0.0969 -0.5740
 8355TIP3   OH249259   3.282   2.943   0.779  0.2991 -0.0495 -0.2167
 8355TIP3    H149260   3.205   2.986   0.817  0.7234 -1.9654  3.2930
 8355TIP3    H249261   3.334   3.015   0.744 -1.1974  1.7743  1.0521
 8356TIP3   OH249262   2.758   0.566   2.780  0.0333 -0.3146  0.0273
 8356TIP3    H149263   2.712   0.637   2.737  1.0306  0.1811 -0.2446
 8356TIP3    H249264   2.712   0.487   2.752 -1.1896  0.2028  0.4600
 8357TIP3   OH249265   3.472   2.090   3.697  0.6748  0.2508  0.1900
 8357TIP3    H149266   3.385   2.069   3.728 -0.0438  2.0371 -0.4789
 8357TIP3    H249267   3.530   2.032   3.746 -0.9132 -1.3604  0.2457
 8358TIP3   OH249268   1.476   2.735   3.767 -0.2699 -0.4132 -0.2568
 8358TIP3    H149269   1.383   2.717   3.780 -0.3624 -0.4357 -0.9257
 8358TIP3    H249270   1.492   2.816   3.815 -0.5270 -0.6610  0.2493
 8359TIP3   OH249271   2.261   2.388   2.071 -0.4804 -0.1490  0.4801
 8359TIP3    H149272   2.215   2.453   2.123 -0.0204  2.4184 -2.0138
 8359TIP3    H249273   2.198   2.361   2.004  0.5702  1.0223 -1.0584
 8360TIP3   OH249274   3.019   0.967   1.233 -0.0908  0.0122  0.3766
 8360TIP3    H149275   2.963   0.979   1.156 -1.2606 -2.5110  0.7319
 8360TIP3    H249276   3.106   0.951   1.197 -0.0240  1.6676 -0.2778
 8361TIP3   OH249277   0.524   3.783   3.334  0.4153  0.4690  0.4020
 8361TIP3    H149278   0.581   3.741   3.399 -2.2330 -3.1517  0.6797
 8361TIP3    H249279   0.549   3.743   3.251  0.0523  0.8456  0.1117
 8362TIP3   OH249280   4.761   6.063   4.290 -0.0308  0.1441 -0.8143
 8362TIP3    H149281   4.722   6.131   4.235  2.2564  1.7400 -0.6189
 8362TIP3    H249282   4.797   5.999   4.229  0.2491  0.5870 -1.1220
 8363TIP3   OH249283   0.759   4.271   2.922 -0.4466  0.2125  0.0002
 8363TIP3    H149284   0.801   4.226   2.995 -0.5254  1.0044  0.5452
 8363TIP3    H249285   0.774   4.364   2.940 -0.6905  0.4242 -0.8575
 8364TIP3   OH249286   6.145   2.982   1.040  0.1782  0.2514 -0.2980
 8364TIP3    H149287   6.061   2.954   1.004  0.9585 -1.5686 -0.8058
 8364TIP3    H249288   6.126   3.066   1.082 -2.2526 -0.8972  1.0968
 8365TIP3   OH249289   6.830   0.755   2.210  0.0869 -0.4611  0.4309
 8365TIP3    H149290   6.797   0.796   2.131 -1.7870  0.7416  1.7735
 8365TIP3    H249291   6.897   0.693   2.179 -0.3655  0.1975 -2.0209
 8366TIP3   OH249292   2.497   0.702   0.615  0.0761  0.4991  0.0941
 8366TIP3    H149293   2.456   0.615   0.610  0.0227  0.5457 -0.3254
 8366TIP3    H249294   2.432   0.756   0.661 -1.0456  0.9590 -1.8852
 8367TIP3   OH249295   6.474   5.952   2.271  0.2806 -0.5544  0.2291
 8367TIP3    H149296   6.470   5.942   2.176 -0.0430 -0.6889  0.2539
 8367TIP3    H249297   6.399   6.007   2.292  0.1883 -0.7548  0.4349
 8368TIP3   OH249298   2.219   6.844   2.763  0.3502  0.4690  0.4271
 8368TIP3    H149299   2.296   6.818   2.714  0.4009  0.6420  0.4122
 8368TIP3    H249300   2.251   6.912   2.823  0.1834  0.6405  0.3237
 8369TIP3   OH249301   5.396   2.995   3.383 -0.0216  0.4854 -0.0204
 8369TIP3    H149302   5.364   2.928   3.323 -0.4081  0.3353  0.3483
 8369TIP3    H249303   5.318   3.026   3.429  0.1902  1.0010  0.0011
 8370TIP3   OH249304   1.634   4.086   2.951 -0.2399 -0.1083 -0.0196
 8370TIP3    H149305   1.698   4.020   2.975 -0.6076 -0.6667 -0.5590
 8370TIP3    H249306   1.647   4.156   3.015  1.9635  0.5059 -1.0234
 8371TIP3   OH249307   0.025   5.543   0.391 -0.2113  0.4978  0.0993
 8371TIP3    H149308   0.103   5.489   0.380 -0.4811  0.3768 -1.5010
 8371TIP3    H249309   0.028   5.605   0.318 -2.2846 -0.3987 -0.8190
 8372TIP3   OH249310   3.463   3.292   1.243 -0.3522  0.2700  0.4403
 8372TIP3    H149311   3.520   3.216   1.249 -1.3472 -0.4730  0.7190
 8372TIP3    H249312   3.497   3.353   1.309 -0.2189 -0.3957  0.9999
 8373TIP3   OH249313   5.573   5.005   2.539 -0.0795  0.4071  0.0487
 8373TIP3    H149314   5.480   4.994   2.517  0.0574 -1.7584  0.3244
 8373TIP3    H249315   5.620   4.963   2.466  0.7048  1.5106 -0.1045
 8374TIP3   OH249316   3.762   6.177   3.623 -0.3193 -0.2401 -0.8385
 8374TIP3    H149317   3.851   6.179   3.589  0.5084 -2.0229  0.9980
 8374TIP3    H249318   3.727   6.265   3.606  2.0480  0.7494 -0.9203
 8375TIP3   OH249319   1.755   1.983   2.366  0.2536 -0.0879  0.1147
 8375TIP3    H149320   1.841   2.008   2.335 -0.1796 -0.0630 -1.1246
 8375TIP3    H249321   1.747   2.023   2.452  1.5466 -0.2620  0.3282
 8376TIP3   OH249322   4.130   1.515   1.985  0.0977  0.5913  0.2533
 8376TIP3    H149323   4.158   1.502   1.894  0.8785 -0.6573  0.6383
 8376TIP3    H249324   4.143   1.608   2.002  0.0709  0.8113 -0.8606
 8377TIP3   OH249325   6.779   1.433   2.585 -0.2329  0.3448 -0.8676
 8377TIP3    H149326   6.831   1.405   2.510 -0.9296 -1.1282 -0.8380
 8377TIP3    H249327   6.821   1.394   2.661  0.4597  1.8180 -0.4551
 8378TIP3   OH249328   4.366   5.646   2.548 -0.4107 -0.2603 -0.3161
 8378TIP3    H149329   4.380   5.584   2.477  0.3982  0.2746 -0.6387
 8378TIP3    H249330   4.451   5.690   2.559 -0.0304 -1.4017  2.0084
 8379TIP3   OH249331   2.091   5.529   0.806  0.2443  0.6302 -0.1028
 8379TIP3    H149332   2.006   5.567   0.786  1.0406  2.6541  0.1359
 8379TIP3    H249333   2.102   5.542   0.900  0.1504 -1.1339  0.1980
 8380TIP3   OH249334   1.303   3.899   0.740  0.5736 -0.2195 -0.6397
 8380TIP3    H149335   1.345   3.819   0.710  1.3797 -0.3009  0.6258
 8380TIP3    H249336   1.209   3.881   0.733  0.7104 -1.7455  0.7357
 8381TIP3   OH249337   5.693   6.044   1.157 -0.3289 -0.4415  0.0711
 8381TIP3    H149338   5.736   6.126   1.181 -0.8114 -0.2915  0.4408
 8381TIP3    H249339   5.644   6.018   1.235  0.0471 -1.2332  0.0531
 8382TIP3   OH249340   5.088   0.742   1.812  0.5638 -0.0709 -0.3611
 8382TIP3    H149341   5.122   0.656   1.838  0.6719  0.8455  2.8730
 8382TIP3    H249342   5.149   0.805   1.850  0.0880  1.5053 -2.0500
 8383TIP3   OH249343   4.118   3.569   3.205 -0.1440  0.3535 -0.0074
 8383TIP3    H149344   4.104   3.495   3.145  1.0066  0.4165 -0.3697
 8383TIP3    H249345   4.084   3.538   3.289  3.2205 -1.9292  0.7219
 8384TIP3   OH249346   5.707   0.356   4.375 -0.4662  0.2627 -0.1040
 8384TIP3    H149347   5.753   0.292   4.429 -0.5991  0.8440  0.7097
 8384TIP3    H249348   5.750   0.439   4.394  0.0026  0.3613 -1.4885
 8385TIP3   OH249349   6.636   4.429   2.775 -0.1617  0.6829  0.1803
 8385TIP3    H149350   6.601   4.342   2.753  0.3384  0.0899  1.6618
 8385TIP3    H249351   6.566   4.470   2.827 -0.5560  1.3477 -0.8311
 8386TIP3   OH249352   3.909   1.867   1.319 -0.6719  0.4895  0.0196
 8386TIP3    H149353   3.933   1.937   1.259 -0.6039 -0.3165 -0.9303
 8386TIP3    H249354   3.815   1.879   1.335 -0.5775  1.0232  0.1802
 8387TIP3   OH249355   1.540   6.246   3.495  0.1143  0.3191 -0.2220
 8387TIP3    H149356   1.604   6.202   3.439  1.6539 -0.1490  1.7802
 8387TIP3    H249357   1.577   6.334   3.509  1.6858 -0.6822  2.8107
 8388TIP3   OH249358   6.381   4.415   3.163 -0.3607  0.8156  0.7110
 8388TIP3    H149359   6.399   4.478   3.092  0.5938  1.6172  1.6251
 8388TIP3    H249360   6.295   4.440   3.195 -0.7302  0.5529 -0.0391
 8389TIP3   OH249361   0.824   0.860   3.136  0.0075  0.4524  0.0768
 8389TIP3    H149362   0.851   0.824   3.051 -2.8407 -0.5753 -0.5087
 8389TIP3    H249363   0.850   0.952   3.132 -0.0663  0.4475 -1.9200
 8390TIP3   OH249364   5.921   6.051   0.852  0.4451  0.2608 -0.6156
 8390TIP3    H149365   5.913   6.142   0.824 -2.2485  0.0890 -0.6663
 8390TIP3    H249366   5.879   6.001   0.781 -1.2009 -0.6818  0.9302
 8391TIP3   OH249367   0.447   1.340   4.639  0.4379  0.6454 -0.1023
 8391TIP3    H149368   0.376   1.277   4.625  0.1519  1.1290 -0.8495
 8391TIP3    H249369   0.403   1.419   4.671  0.9189  0.0730  2.1661
 8392TIP3   OH249370   0.671   2.907   2.490  0.4757 -0.1615 -0.4069
 8392TIP3    H149371   0.692   2.870   2.576 -1.5557 -0.3361  0.0623
 8392TIP3    H249372   0.720   2.852   2.428 -0.3136 -1.9109  0.4544
 8393TIP3   OH249373   5.454   5.163   1.240 -0.0040  0.2707 -0.3283
 8393TIP3    H149374   5.407   5.105   1.181 -0.7605  0.2277  0.2902
 8393TIP3    H249375   5.445   5.250   1.201  1.4267 -0.0396 -1.4376
 8394TIP3   OH249376   0.560   4.668   1.871 -0.2157  0.0368 -0.4532
 8394TIP3    H149377   0.652   4.693   1.863 -0.3590  0.9552  0.5144
 8394TIP3    H249378   0.517   4.712   1.798  0.1482 -0.6291 -1.0786
 8395TIP3   OH249379   0.457   1.163   1.837  0.0415  0.1318 -0.1565
 8395TIP3    H149380   0.455   1.254   1.805 -1.3822 -0.0189 -0.5873
 8395TIP3    H249381   0.486   1.112   1.762 -0.0787  0.1342 -0.2054
 8396TIP3   OH249382   0.865   4.692   1.974  0.2269  0.1468  0.7739
 8396TIP3    H149383   0.913   4.627   1.922  0.2007  0.5371  0.2515
 8396TIP3    H249384   0.923   4.767   1.979  0.1739  0.1607  1.2013
 8397TIP3   OH249385   5.686   6.203   3.523  0.0272  0.1545  0.0003
 8397TIP3    H149386   5.634   6.188   3.444  0.4053  0.9158 -0.4023
 8397TIP3    H249387   5.700   6.116   3.560 -0.4131 -0.1766 -0.6042
 8398TIP3   OH249388   0.917   4.430   1.840  0.0444 -0.1223  0.4173
 8398TIP3    H149389   0.839   4.393   1.881  0.8513 -1.6538  0.6679
 8398TIP3    H249390   0.917   4.394   1.752 -0.9394  2.0575 -0.5534
 8399TIP3   OH249391   2.639   5.295   0.751  0.1039 -0.1844 -0.2276
 8399TIP3    H149392   2.725   5.309   0.791  0.1947  0.6493 -0.6874
 8399TIP3    H249393   2.586   5.257   0.820  0.6882 -0.1740  0.2305
 8400TIP3   OH249394   0.175   5.033   0.469 -0.2216 -0.1106  0.2601
 8400TIP3    H149395   0.200   4.964   0.532 -2.3368 -0.3818  0.9068
 8400TIP3    H249396   0.112   4.990   0.411 -0.9561  1.0600  0.1569
 8401TIP3   OH249397   3.551   3.018   0.794  0.0906  0.6374  0.0397
 8401TIP3    H149398   3.549   2.952   0.864 -1.7377  0.9974  0.3644
 8401TIP3    H249399   3.553   3.102   0.840  1.0028  0.8546 -0.3712
 8402TIP3   OH249400   5.436   6.343   4.090 -0.0652  0.0738  0.2229
 8402TIP3    H149401   5.440   6.437   4.069 -0.8037  0.0729  0.0476
 8402TIP3    H249402   5.361   6.335   4.148 -2.0797 -0.8543 -2.3323
 8403TIP3   OH249403   2.032   5.357   2.789 -0.2102 -0.0585  0.3547
 8403TIP3    H149404   2.023   5.434   2.845  0.1490  1.2600 -1.3040
 8403TIP3    H249405   1.949   5.352   2.741  0.2311  0.0593 -0.4442
 8404TIP3   OH249406   3.644   3.215   0.957 -0.1773 -0.0126 -0.0993
 8404TIP3    H149407   3.598   3.282   1.007 -1.6014  0.1986 -1.5823
 8404TIP3    H249408   3.702   3.264   0.898  0.2272 -0.1801  0.1550
 8405TIP3   OH249409   5.513   3.369   1.344 -0.5013  0.0154  0.1318
 8405TIP3    H149410   5.544   3.451   1.380  0.2502 -0.2770  0.1634
 8405TIP3    H249411   5.532   3.374   1.250  0.4616 -0.5208  0.2878
 8406TIP3   OH249412   4.716   4.022   2.825  0.1970  0.5181  0.1308
 8406TIP3    H149413   4.644   3.980   2.871  0.8279  0.1477  0.8065
 8406TIP3    H249414   4.764   4.069   2.893  0.5687  0.8048 -0.3185
 8407TIP3   OH249415   5.291   5.393   1.809  0.0636 -0.0633  0.2812
 8407TIP3    H149416   5.331   5.465   1.761  0.2472  0.0896  0.6668
 8407TIP3    H249417   5.358   5.364   1.871 -0.2868 -0.0518  0.6711
 8408TIP3   OH249418   0.843   0.870   2.367  0.0446  0.0638 -0.0511
 8408TIP3    H149419   0.770   0.921   2.333 -0.0893 -0.1688 -0.1123
 8408TIP3    H249420   0.879   0.824   2.291 -0.3469 -0.5684  0.1354
 8409TIP3   OH249421   4.382   1.266   3.212 -0.3372  0.0360  0.0618
 8409TIP3    H149422   4.422   1.217   3.140  0.0253 -1.0925  0.9897
 8409TIP3    H249423   4.456   1.290   3.268 -0.7242 -0.2162  0.6955
 8410TIP3   OH249424   3.028   6.508   1.045  0.8375  0.1691 -0.6887
 8410TIP3    H149425   2.943   6.538   1.012 -0.8852 -2.0422  1.3567
 8410TIP3    H249426   3.073   6.475   0.967 -1.2725 -0.9782 -1.5192
 8411TIP3   OH249427   3.508   2.887   1.072  0.0396  0.4699 -0.0174
 8411TIP3    H149428   3.470   2.799   1.070 -0.1948  0.5618  0.2936
 8411TIP3    H249429   3.596   2.875   1.107  0.0579  0.3416 -0.1073
 8412TIP3   OH249430   1.658   0.915   2.597 -0.0136  0.0335  0.1431
 8412TIP3    H149431   1.669   0.939   2.688 -2.0758 -1.1204  0.7616
 8412TIP3    H249432   1.739   0.869   2.574  0.2937 -0.1798  1.5705
 8413TIP3   OH249433   2.730   3.181   2.072  0.1662  0.1393 -0.5342
 8413TIP3    H149434   2.805   3.132   2.107 -0.5165 -0.6348 -0.1323
 8413TIP3    H249435   2.681   3.208   2.149  0.3559  1.1996 -0.7710
 8414TIP3   OH249436   2.072   3.985   1.091 -0.4867 -0.0380 -0.6693
 8414TIP3    H149437   2.145   4.032   1.132 -2.5872  1.4006  1.7043
 8414TIP3    H249438   2.060   3.908   1.147 -0.5730 -0.4677 -1.2735
 8415TIP3   OH249439   3.940   2.356   2.951 -0.2100 -0.5280  0.0904
 8415TIP3    H149440   3.978   2.271   2.973 -1.7917 -1.1941  0.3668
 8415TIP3    H249441   3.861   2.334   2.902  0.5025  0.8329 -1.7878
 8416TIP3   OH249442   0.461   0.766   1.334 -0.1254  0.1258  0.3515
 8416TIP3    H149443   0.509   0.749   1.415  0.6551  1.9081  0.3176
 8416TIP3    H249444   0.373   0.788   1.363 -0.2507 -0.6803  0.6002
 8417TIP3   OH249445   5.173   1.481   0.588 -0.4762  0.1447 -0.2025
 8417TIP3    H149446   5.080   1.469   0.572 -0.1021  0.1227 -2.8264
 8417TIP3    H249447   5.214   1.403   0.550  0.6757  0.7023 -0.1512
 8418TIP3   OH249448   6.215   6.247   1.253 -0.4962 -0.0129 -0.2510
 8418TIP3    H149449   6.136   6.269   1.203 -1.6383  0.1691  1.5388
 8418TIP3    H249450   6.246   6.331   1.287 -1.6105 -0.4198  1.9449
 8419TIP3   OH249451   1.983   3.320   3.178  0.2116 -0.0893  0.4381
 8419TIP3    H149452   1.935   3.245   3.145 -1.7911  0.4755  1.8448
 8419TIP3    H249453   1.975   3.314   3.274  1.9736  0.6979  0.6937
 8420TIP3   OH249454   5.620   1.826   1.916  0.3505 -0.3116 -0.2353
 8420TIP3    H149455   5.638   1.837   2.010 -0.4649  4.0649 -0.3749
 8420TIP3    H249456   5.704   1.843   1.874  0.5447 -1.5331 -0.3783
 8421TIP3   OH249457   5.662   6.351   1.703  0.7119  0.1565  0.6011
 8421TIP3    H149458   5.647   6.302   1.784  0.1573 -1.7680 -0.5727
 8421TIP3    H249459   5.722   6.295   1.653  0.0387  0.6585 -0.8196
 8422TIP3   OH249460   0.389   6.242   2.572  0.3300  0.2005  0.2703
 8422TIP3    H149461   0.295   6.258   2.581  0.4343  1.1124 -0.0934
 8422TIP3    H249462   0.429   6.317   2.617  0.8717  0.2813 -0.3465
 8423TIP3   OH249463   4.028   5.914   1.300  0.7947  0.0680 -0.3216
 8423TIP3    H149464   3.938   5.945   1.310  0.7418 -0.5215  1.2426
 8423TIP3    H249465   4.083   5.990   1.318  0.6802  0.9916 -3.2440
 8424TIP3   OH249466   2.202   5.425   3.130  0.4819  0.4014  0.2673
 8424TIP3    H149467   2.160   5.503   3.166 -1.7447  0.4307 -2.0345
 8424TIP3    H249468   2.133   5.358   3.134  1.5805 -0.7737  0.0538
 8425TIP3   OH249469   1.997   2.873   3.061  0.3218 -0.6369  0.4154
 8425TIP3    H149470   1.970   2.860   3.152  0.8782  1.0622  0.8610
 8425TIP3    H249471   2.092   2.863   3.063  0.4480  0.4186  0.2312
 8426TIP3   OH249472   3.005   3.305   1.016  0.1000  0.0502 -0.3740
 8426TIP3    H149473   3.011   3.321   1.110  2.5645  0.7908 -0.5869
 8426TIP3    H249474   2.928   3.355   0.989 -0.5495 -0.0288  1.2108
 8427TIP3   OH249475   5.608   6.192   3.227 -0.4170 -0.0880  0.3499
 8427TIP3    H149476   5.543   6.241   3.176  0.5525 -0.1627 -1.0090
 8427TIP3    H249477   5.585   6.100   3.212 -1.4796 -0.1183  1.8987
 8428TIP3   OH249478   0.259   0.327   3.143  0.1287  0.3885 -0.4451
 8428TIP3    H149479   0.190   0.276   3.184 -0.4367  0.3245 -1.4425
 8428TIP3    H249480   0.316   0.262   3.102  0.2526  0.4893 -0.4351
 8429TIP3   OH249481   0.884   4.696   3.260  0.6264 -0.1183 -0.4866
 8429TIP3    H149482   0.936   4.774   3.279  0.6950 -0.8852  3.0051
 8429TIP3    H249483   0.939   4.622   3.284 -0.7577 -1.0924 -0.1666
 8430TIP3   OH249484   0.833   1.265   1.571  0.2309 -0.1364 -0.3455
 8430TIP3    H149485   0.893   1.336   1.550  0.4693 -0.3617 -0.4338
 8430TIP3    H249486   0.763   1.307   1.621 -1.5238  0.8386 -3.3812
 8431TIP3   OH249487   0.673   0.493   3.640  0.5235 -0.4191  0.0169
 8431TIP3    H149488   0.737   0.553   3.601 -1.4708  1.2323 -0.9109
 8431TIP3    H249489   0.682   0.508   3.734 -0.7482  2.3947 -0.1993
 8432TIP3   OH249490   0.718   0.151   3.090  0.2591  0.4358  0.1670
 8432TIP3    H149491   0.636   0.105   3.070  0.8328 -0.4974 -0.0907
 8432TIP3    H249492   0.782   0.112   3.031  1.2185  0.0906  1.3934
 8433TIP3   OH249493   5.388   5.148   3.186  0.6024 -0.3834 -0.1986
 8433TIP3    H149494   5.412   5.203   3.261  0.9002 -0.5326 -0.1868
 8433TIP3    H249495   5.413   5.059   3.211  1.7337 -0.2893 -0.9075
 8434TIP3   OH249496   2.968   4.185   2.649  0.4055  0.5611  0.1834
 8434TIP3    H149497   3.006   4.246   2.586  3.1246 -1.2048 -0.0227
 8434TIP3    H249498   2.932   4.114   2.596 -0.4876  0.7505  0.5183
 8435TIP3   OH249499   0.642   6.384   1.157 -0.3525  0.2892 -0.4016
 8435TIP3    H149500   0.733   6.413   1.165  0.1423 -0.3991 -2.7501
 8435TIP3    H249501   0.591   6.448   1.206  1.4415  0.1806  1.7595
 8436TIP3   OH249502   1.810   3.991   1.130 -0.1744  0.0328 -0.2714
 8436TIP3    H149503   1.891   4.030   1.098 -1.2857  2.0881 -0.7569
 8436TIP3    H249504   1.790   3.922   1.067 -0.7258  2.0070 -2.4106
 8437TIP3   OH249505   3.785   4.409   1.820  0.1056  0.4695 -0.3649
 8437TIP3    H149506   3.692   4.389   1.824  0.2731 -0.4584 -0.7308
 8437TIP3    H249507   3.811   4.420   1.912  0.1255 -1.7811 -0.0369
 8438TIP3   OH249508   6.370   3.064   2.789 -0.2606 -0.2644  0.0169
 8438TIP3    H149509   6.335   2.993   2.736 -0.6075 -0.4293  0.4596
 8438TIP3    H249510   6.462   3.040   2.804 -0.2222 -0.3268 -0.3182
 8439TIP3   OH249511   3.323   6.668   2.577 -0.4044 -0.2562  0.1186
 8439TIP3    H149512   3.293   6.592   2.629  1.7209 -0.3340  1.3298
 8439TIP3    H249513   3.260   6.673   2.505 -1.7196 -2.0054  1.0486
 8440TIP3   OH249514   6.085   4.013   2.656  0.2680 -0.2585  0.4679
 8440TIP3    H149515   6.035   4.060   2.722 -0.1307 -2.4045  1.8103
 8440TIP3    H249516   6.018   3.975   2.599  0.4315 -1.1857  0.8707
 8441TIP3   OH249517   6.612   3.604   1.394 -0.7463  0.0081  0.4920
 8441TIP3    H149518   6.590   3.596   1.301  1.7808  1.2609 -0.2998
 8441TIP3    H249519   6.673   3.532   1.410  0.8488  1.3017  0.4470
 8442TIP3   OH249520   6.399   4.278   2.885  0.1842 -0.4287 -0.2299
 8442TIP3    H149521   6.321   4.325   2.855  1.0183 -0.2791 -2.2882
 8442TIP3    H249522   6.377   4.249   2.974 -2.2388 -0.5045 -0.8078
 8443TIP3   OH249523   1.707   4.279   3.124 -0.3073  0.1095 -0.2990
 8443TIP3    H149524   1.708   4.327   3.207 -0.4895  1.5892 -1.1010
 8443TIP3    H249525   1.796   4.291   3.089 -0.5999  0.6283 -0.8979
 8444TIP3   OH249526   2.886   0.187   2.654 -0.2653 -0.0965 -0.4740
 8444TIP3    H149527   2.916   0.097   2.636  0.1530 -0.7850  2.9469
 8444TIP3    H249528   2.965   0.240   2.648 -0.0419 -0.3916 -0.2401
 8445TIP3   OH249529   2.579   3.948   1.595 -0.1135 -0.1727  0.1667
 8445TIP3    H149530   2.608   3.881   1.533 -0.1035 -0.6642  0.6955
 8445TIP3    H249531   2.635   3.936   1.672  0.9906  1.4869 -0.3198
 8446TIP3   OH249532   6.679   3.080   2.042 -0.3778  0.1294  0.1866
 8446TIP3    H149533   6.639   3.141   1.981  0.7425 -1.0263 -1.7937
 8446TIP3    H249534   6.763   3.121   2.064 -0.7974  0.5646  1.0491
 8447TIP3   OH249535   2.952   5.829   1.933 -0.0841  0.8041  0.0842
 8447TIP3    H149536   2.897   5.859   1.861 -1.7966  0.7178  1.3012
 8447TIP3    H249537   2.903   5.852   2.012  1.9550  1.3669  1.2814
 8448TIP3   OH249538   0.365   3.265   0.969 -0.3015  0.4396 -0.2209
 8448TIP3    H149539   0.286   3.216   0.995 -0.4116 -0.0188 -1.3464
 8448TIP3    H249540   0.433   3.234   1.029  0.2201 -2.9097 -2.2807
 8449TIP3   OH249541   6.788   3.338   1.148 -0.1528 -0.2040  0.2967
 8449TIP3    H149542   6.704   3.368   1.111  1.3516  2.2932 -1.4364
 8449TIP3    H249543   6.804   3.399   1.220  1.4801  1.3761 -1.2857
 8450TIP3   OH249544   1.263   6.109   0.737  0.1953  0.4964 -1.3353
 8450TIP3    H149545   1.313   6.040   0.694  2.0838  1.0231 -0.1367
 8450TIP3    H249546   1.174   6.099   0.704  0.6673 -1.7159 -2.1138
 8451TIP3   OH249547   4.875   0.440   3.234  0.6141 -0.1253  0.1652
 8451TIP3    H149548   4.916   0.456   3.149 -0.9746  0.7674 -0.4701
 8451TIP3    H249549   4.949   0.422   3.293  1.8370  0.5247 -1.1128
 8452TIP3   OH249550   5.373   4.665   1.605  0.5572 -0.0899 -0.1582
 8452TIP3    H149551   5.347   4.608   1.533  1.9377 -0.5384 -0.3399
 8452TIP3    H249552   5.326   4.747   1.589 -2.3938 -1.4662  0.7483
 8453TIP3   OH249553   4.831   2.165   3.059 -0.2075 -0.0430  0.4975
 8453TIP3    H149554   4.875   2.099   3.006 -1.1491  0.8546 -1.4816
 8453TIP3    H249555   4.754   2.120   3.095 -0.8326 -0.0697 -0.8176
 8454TIP3   OH249556   2.807   6.432   3.620  0.0165  0.6097 -0.5076
 8454TIP3    H149557   2.808   6.359   3.682 -1.1623  0.9110 -0.0934
 8454TIP3    H249558   2.818   6.510   3.674 -0.7916  0.8611 -0.6801
 8455TIP3   OH249559   0.037   6.083   1.624  0.4188 -0.3999  0.0128
 8455TIP3    H149560  -0.053   6.101   1.598  0.7890  2.6694  0.4588
 8455TIP3    H249561   0.032   6.000   1.672 -1.5510 -2.0523 -2.7309
 8456TIP3   OH249562   6.132   5.298   1.205  0.1995 -0.6476 -0.0933
 8456TIP3    H149563   6.040   5.286   1.226  0.2548  0.3746  0.9013
 8456TIP3    H249564   6.147   5.392   1.220  1.4940 -0.8868  0.2146
 8457TIP3   OH249565   3.665   4.282   3.214  0.7242 -0.1328 -0.5334
 8457TIP3    H149566   3.657   4.335   3.293 -0.6821  0.9208 -1.3482
 8457TIP3    H249567   3.702   4.199   3.244 -1.8326 -0.5970  1.6107
 8458TIP3   OH249568   0.169   4.378   3.588  0.6607 -0.3674  0.0389
 8458TIP3    H149569   0.194   4.469   3.602  0.9530 -0.6078  1.1789
 8458TIP3    H249570   0.084   4.369   3.631 -0.1093 -0.2632 -1.3989
 8459TIP3   OH249571   3.076   4.368   1.549  0.0575  0.2251 -0.0536
 8459TIP3    H149572   3.013   4.304   1.583  1.9871 -1.0501  1.3767
 8459TIP3    H249573   3.124   4.320   1.481  0.4593  0.6760 -0.0938
 8460TIP3   OH249574   3.317   1.310   3.103  0.0860 -0.1447 -0.4889
 8460TIP3    H149575   3.235   1.357   3.121  0.4104  0.4564 -0.5565
 8460TIP3    H249576   3.376   1.338   3.172  0.4696  0.0142 -0.8753
 8461TIP3   OH249577   4.190   0.601   3.167 -0.0914  0.4612  0.0135
 8461TIP3    H149578   4.135   0.562   3.235  1.2675 -0.0504  0.8647
 8461TIP3    H249579   4.280   0.587   3.197  0.5511  0.5641 -1.7016
 8462TIP3   OH249580   4.709   6.493   2.551 -0.5851 -0.2023  0.0440
 8462TIP3    H149581   4.675   6.505   2.463 -2.0304  1.3897  0.7610
 8462TIP3    H249582   4.646   6.435   2.594 -1.7672  1.6858  0.9794
 8463TIP3   OH249583   2.752   0.899   1.632  0.0120 -0.0484 -0.2162
 8463TIP3    H149584   2.802   0.832   1.587 -0.6754 -0.5090 -0.3186
 8463TIP3    H249585   2.794   0.910   1.717  1.0350  0.4828 -0.7802
 8464TIP3   OH249586   0.254   6.550   3.181  0.4117 -0.6266 -0.1267
 8464TIP3    H149587   0.246   6.484   3.112 -1.8820 -0.8627  0.2699
 8464TIP3    H249588   0.167   6.589   3.186  1.2137  1.1423  0.9386
 8465TIP3   OH249589   5.422   4.204   1.253  0.5839  0.3358  0.3873
 8465TIP3    H149590   5.420   4.245   1.340  0.2693 -0.2778  0.6800
 8465TIP3    H249591   5.378   4.119   1.266  0.9377  0.0454 -0.2719
 8466TIP3   OH249592   6.472   1.285   1.967  0.4554  0.0810 -0.7975
 8466TIP3    H149593   6.552   1.246   2.001  0.1398  0.1515  0.0529
 8466TIP3    H249594   6.471   1.374   2.003  0.5083  0.4380 -1.6512
 8467TIP3   OH249595   5.793   2.603   2.150 -0.0337  0.1373 -0.5061
 8467TIP3    H149596   5.759   2.601   2.060  1.4739 -1.1361 -1.0986
 8467TIP3    H249597   5.722   2.567   2.203 -1.2456  1.6399 -1.0457
 8468TIP3   OH249598   2.261   3.673   1.902  0.3374 -0.7238 -0.3387
 8468TIP3    H149599   2.186   3.618   1.924 -0.7065  0.5410 -0.6237
 8468TIP3    H249600   2.244   3.756   1.947  1.4914 -0.3672 -0.5367
 8469TIP3   OH249601   1.349   0.202   3.415  0.0881 -0.0662 -0.2580
 8469TIP3    H149602   1.394   0.150   3.348 -0.6739 -0.9124 -0.1222
 8469TIP3    H249603   1.343   0.145   3.491  2.7145  1.5278  1.3054
 8470TIP3   OH249604   2.495   0.920   2.241  0.2152  0.3419 -0.1833
 8470TIP3    H149605   2.523   0.973   2.167 -0.5462  1.5228  0.3515
 8470TIP3    H249606   2.563   0.934   2.307  0.4235  0.0026 -0.3193
 8471TIP3   OH249607   3.118   4.834   0.657 -0.0353  0.4325  0.4615
 8471TIP3    H149608   3.103   4.755   0.709 -1.5341 -0.0688 -0.6738
 8471TIP3    H249609   3.034   4.852   0.616  1.3743  0.0443 -2.8554
 8472TIP3   OH249610   2.087   4.947   2.566  0.0129 -0.4025  0.0407
 8472TIP3    H149611   2.123   4.930   2.479 -1.9129 -2.9348 -0.4049
 8472TIP3    H249612   2.033   5.025   2.555  1.6238  0.6894 -0.4032
 8473TIP3   OH249613   6.352   0.926   2.836  0.2370  0.1308 -0.6071
 8473TIP3    H149614   6.380   0.859   2.774 -0.6062  0.7409 -1.6978
 8473TIP3    H249615   6.256   0.923   2.832  0.1856  0.9143 -0.1355
 8474TIP3   OH249616   1.846   3.326   2.123 -0.1066  0.3673 -0.6195
 8474TIP3    H149617   1.850   3.339   2.218  1.3412 -2.1218 -0.2516
 8474TIP3    H249618   1.757   3.296   2.106 -0.5050  1.2378 -0.1453
 8475TIP3   OH249619   1.442   4.222   2.175 -0.2585  0.2825  0.1220
 8475TIP3    H149620   1.381   4.195   2.243 -0.9549  0.8445 -0.2603
 8475TIP3    H249621   1.439   4.318   2.178 -1.8223  0.3800 -1.9833
 8476TIP3   OH249622   4.198   5.825   2.413  0.2574  0.5065  0.6613
 8476TIP3    H149623   4.254   5.763   2.459 -0.2499 -0.1520  0.4083
 8476TIP3    H249624   4.109   5.804   2.442  0.0443  0.8637  0.2887
 8477TIP3   OH249625   1.366   1.198   1.537 -0.0387 -0.6723 -0.4227
 8477TIP3    H149626   1.340   1.155   1.455 -0.4083  0.3795 -0.8795
 8477TIP3    H249627   1.410   1.278   1.508 -1.1772  0.2853  0.4138
 8478TIP3   OH249628   4.234   3.562   3.600 -0.3515 -0.0115 -1.1466
 8478TIP3    H149629   4.225   3.656   3.580  1.1776 -0.2614 -3.4114
 8478TIP3    H249630   4.329   3.547   3.601 -0.5782 -1.5663 -0.9533
 8479TIP3   OH249631   2.215   3.454   0.935  0.2520 -0.7332 -0.3332
 8479TIP3    H149632   2.141   3.393   0.939 -1.0174  0.3081 -4.0619
 8479TIP3    H249633   2.268   3.422   0.862  3.0287 -0.8133  1.5757
 8480TIP3   OH249634   0.296   5.450   0.369 -0.3245 -0.3010 -0.3469
 8480TIP3    H149635   0.308   5.360   0.339  0.5379  0.1609 -1.4763
 8480TIP3    H249636   0.384   5.487   0.371 -0.5830  0.3110  0.8323
 8481TIP3   OH249637   2.146   1.581   2.031  0.7084  0.1587 -0.5904
 8481TIP3    H149638   2.097   1.499   2.021  0.4699  0.1853  0.2322
 8481TIP3    H249639   2.223   1.556   2.083 -0.0866  0.6987  0.8933
 8482TIP3   OH249640   6.201   3.958   0.735  0.2218  0.4225 -0.2577
 8482TIP3    H149641   6.278   3.922   0.779  0.2910 -0.7066 -1.2373
 8482TIP3    H249642   6.218   4.052   0.728  0.0697  0.7126  2.3322
 8483TIP3   OH249643   1.203   3.204   3.691 -0.5423  0.1593  0.0503
 8483TIP3    H149644   1.259   3.155   3.751 -0.2981 -2.9492 -2.5030
 8483TIP3    H249645   1.208   3.295   3.723  3.8386 -0.3607  1.5063
 8484TIP3   OH249646   6.781   6.697   2.799  0.3059 -0.0412 -0.6384
 8484TIP3    H149647   6.727   6.681   2.721 -0.0328  0.7770 -0.5816
 8484TIP3    H249648   6.724   6.747   2.857  0.5525 -0.6563  0.1452
 8485TIP3   OH249649   4.633   4.616   2.005  0.2391 -0.3174 -0.5388
 8485TIP3    H149650   4.700   4.684   1.998 -0.4270  0.4048 -0.0046
 8485TIP3    H249651   4.673   4.539   1.963 -0.2898  1.2724 -4.2834
 8486TIP3   OH249652   2.672   5.336   1.831  0.0751 -0.1908 -0.0912
 8486TIP3    H149653   2.741   5.399   1.808 -0.9686  0.7013 -0.8747
 8486TIP3    H249654   2.681   5.266   1.767  0.5689 -0.3341  0.1295
 8487TIP3   OH249655   6.059   2.094   2.993  0.4155  0.0543  0.3523
 8487TIP3    H149656   6.149   2.065   3.007  0.5409 -0.3357 -1.1058
 8487TIP3    H249657   6.032   2.051   2.912 -0.6603  1.1603  0.0871
 8488TIP3   OH249658   2.153   1.322   2.318  0.6642 -0.5015  0.3531
 8488TIP3    H149659   2.147   1.228   2.299  0.5250 -0.3414 -0.4605
 8488TIP3    H249660   2.064   1.355   2.301  0.5152 -0.3522  1.3909
 8489TIP3   OH249661   5.435   5.608   0.937  0.2600  0.1629  0.4476
 8489TIP3    H149662   5.401   5.690   0.972  1.6277  0.5006  1.0845
 8489TIP3    H249663   5.504   5.635   0.876 -0.4146 -0.4916 -0.6328
 8490TIP3   OH249664   6.812   6.622   0.777 -0.0199 -0.1755  0.7831
 8490TIP3    H149665   6.859   6.698   0.811 -0.0661 -0.2811  1.0892
 8490TIP3    H249666   6.721   6.635   0.806 -0.2723  0.2377 -0.1606
 8491TIP3   OH249667   2.403   6.432   3.081  0.4055  0.1430 -0.1146
 8491TIP3    H149668   2.368   6.411   3.168 -2.4236 -0.4717 -1.2920
 8491TIP3    H249669   2.369   6.519   3.062  0.8608  0.1978 -0.6922
 8492TIP3   OH249670   1.217   6.403   1.176 -0.2252 -0.1750  0.1774
 8492TIP3    H149671   1.188   6.320   1.213 -0.2836 -0.2713 -0.0835
 8492TIP3    H249672   1.295   6.381   1.125  0.2423  0.0656  0.7847
 8493TIP3   OH249673   0.368   2.195   0.962 -0.2387 -0.2223  0.3788
 8493TIP3    H149674   0.431   2.236   1.021 -0.7859 -0.8119  1.4045
 8493TIP3    H249675   0.306   2.265   0.941  0.2160  0.1104  0.1356
 8494TIP3   OH249676   2.480   3.685   0.757  0.2270 -0.7083 -0.1136
 8494TIP3    H149677   2.449   3.675   0.847  0.4118  0.8920  0.1706
 8494TIP3    H249678   2.574   3.670   0.762  0.6730  1.7516  0.4952
 8495TIP3   OH249679   5.495   0.801   0.825  0.0361 -0.3937 -0.3033
 8495TIP3    H149680   5.489   0.715   0.783 -0.8291 -0.2990 -0.3907
 8495TIP3    H249681   5.408   0.816   0.863 -0.3698  1.1607 -1.7129
 8496TIP3   OH249682   6.682   2.015   1.323  0.4277 -0.4945  0.1320
 8496TIP3    H149683   6.765   2.029   1.276 -0.5344  0.1156 -1.4738
 8496TIP3    H249684   6.626   2.086   1.292 -0.3683 -0.2515  2.0319
 8497TIP3   OH249685   4.998   5.661   2.286  0.3039  0.0409 -0.1713
 8497TIP3    H149686   4.912   5.639   2.321  0.4043  0.9622  0.7059
 8497TIP3    H249687   5.060   5.623   2.348  0.4818  1.7536  0.7581
 8498TIP3   OH249688   3.714   2.975   1.645 -0.3766 -0.1497  0.1866
 8498TIP3    H149689   3.626   3.011   1.659 -0.2122  0.3833 -0.1199
 8498TIP3    H249690   3.773   3.041   1.681 -0.0024  0.6047 -1.6757
 8499TIP3   OH249691   4.313   6.127   2.507 -0.6253  0.1688 -0.4289
 8499TIP3    H149692   4.310   6.037   2.474  1.6270  0.6865 -2.2918
 8499TIP3    H249693   4.263   6.177   2.443  0.0730  0.5640 -0.6665
 8500TIP3   OH249694   6.160   1.782   1.339  0.4417 -0.0485 -0.6513
 8500TIP3    H149695   6.249   1.813   1.323  0.9847 -0.3334  1.5146
 8500TIP3    H249696   6.170   1.688   1.351  0.1575  0.1326  1.2940
 8501TIP3   OH249697   2.156   1.095   3.058 -0.1432 -0.1165  0.5440
 8501TIP3    H149698   2.243   1.072   3.090 -0.6319 -0.1688  1.9461
 8501TIP3    H249699   2.130   1.022   3.002 -0.0579 -1.0755  1.7041
 8502TIP3   OH249700   0.398   4.618   1.373  0.1793 -0.9078 -1.0481
 8502TIP3    H149701   0.480   4.606   1.421 -0.3508  0.7152  0.3966
 8502TIP3    H249702   0.414   4.692   1.315 -0.2178 -0.6537 -0.8403
 8503TIP3   OH249703   4.602   0.987   1.427 -0.3505 -0.0384  0.4007
 8503TIP3    H149704   4.553   0.940   1.494 -0.2157 -1.6987 -0.6032
 8503TIP3    H249705   4.542   0.991   1.352  0.1012  0.2713  0.0501
 8504TIP3   OH249706   2.196   2.790   3.427 -0.3319 -0.1186  0.5781
 8504TIP3    H149707   2.129   2.842   3.471 -0.2372  0.5398 -0.0245
 8504TIP3    H249708   2.191   2.817   3.335 -0.5363 -1.4613  0.1686
 8505TIP3   OH249709   3.914   4.816   1.734 -0.2551  0.9369 -0.0702
 8505TIP3    H149710   3.960   4.867   1.667 -0.4115  1.7514  0.4300
 8505TIP3    H249711   3.884   4.738   1.688  2.0341  0.1147 -0.3258
 8506TIP3   OH249712   1.245   5.113   2.027  0.4438  0.4863 -0.1743
 8506TIP3    H149713   1.323   5.069   2.059  1.0983  2.1322  0.5767
 8506TIP3    H249714   1.183   5.109   2.100 -0.3478 -1.1346 -0.8918
 8507TIP3   OH249715   0.281   0.616   4.146 -0.2860  0.0424 -0.1907
 8507TIP3    H149716   0.358   0.668   4.172 -0.3005  0.2492 -0.5502
 8507TIP3    H249717   0.301   0.528   4.175 -0.9535  0.5324  1.8663
 8508TIP3   OH249718   3.220   0.594   2.130 -0.5396 -0.2291 -0.1775
 8508TIP3    H149719   3.305   0.556   2.110 -1.2623 -3.0461  1.4308
 8508TIP3    H249720   3.158   0.541   2.080 -1.5599 -0.8242  1.6109
 8509TIP3   OH249721   4.528   0.658   2.216  0.1074 -0.0285  0.5688
 8509TIP3    H149722   4.516   0.743   2.258  0.4530  0.1752  0.2587
 8509TIP3    H249723   4.575   0.677   2.136 -1.3102 -0.3120 -0.3649
 8510TIP3   OH249724   4.952   0.824   2.150 -0.4574  0.0341 -0.2511
 8510TIP3    H149725   5.000   0.897   2.110 -1.1525  1.1581  0.8784
 8510TIP3    H249726   4.976   0.828   2.242 -1.5277 -0.3395  0.0553
 8511TIP3   OH249727   0.736   3.667   2.930 -0.5684 -1.1524 -0.0927
 8511TIP3    H149728   0.790   3.689   2.854  0.5314 -2.5269  0.2540
 8511TIP3    H249729   0.671   3.606   2.896 -0.3240 -1.4545 -0.0283
 8512TIP3   OH249730   3.237   4.341   1.878  0.0517 -0.1511 -0.2333
 8512TIP3    H149731   3.198   4.419   1.838  1.6917  0.2706 -1.1219
 8512TIP3    H249732   3.169   4.306   1.934 -1.3815  0.8496 -1.2759
 8513TIP3   OH249733   6.218   6.071   3.484 -0.2015 -0.6338  0.1044
 8513TIP3    H149734   6.284   6.007   3.511 -0.6900 -0.6589  1.3277
 8513TIP3    H249735   6.267   6.143   3.446  0.5516 -0.5615  1.1857
 8514TIP3   OH249736   3.484   1.940   2.844  0.5534  0.2118  0.5841
 8514TIP3    H149737   3.503   1.871   2.781  1.8333 -0.4757  1.6761
 8514TIP3    H249738   3.450   2.012   2.791 -0.2744 -1.0357 -0.6398
 8515TIP3   OH249739   5.629   5.769   3.227 -0.1945 -0.5937  0.3485
 8515TIP3    H149740   5.668   5.830   3.165 -1.6761  0.4431  0.3843
 8515TIP3    H249741   5.633   5.684   3.183 -0.3287 -0.0409 -0.7484
 8516TIP3   OH249742   5.625   4.381   0.555 -0.4345  0.1657 -0.6683
 8516TIP3    H149743   5.665   4.295   0.544 -0.8168  0.1327 -1.8992
 8516TIP3    H249744   5.688   4.429   0.610  0.6422 -0.3236 -1.4244
 8517TIP3   OH249745   1.486   3.107   1.401 -0.0475 -0.6927 -0.2546
 8517TIP3    H149746   1.526   3.023   1.423 -0.1897 -0.3860  1.2434
 8517TIP3    H249747   1.557   3.171   1.411 -0.0688 -0.5582 -0.8966
 8518TIP3   OH249748   4.911   1.031   1.129  0.5860 -0.1104  0.4112
 8518TIP3    H149749   4.829   0.998   1.091  0.5229 -0.1843  0.6084
 8518TIP3    H249750   4.958   0.952   1.155 -0.2766 -0.0381  2.3872
 8519TIP3   OH249751   2.855   2.051   0.960  0.0106  0.2404  0.0518
 8519TIP3    H149752   2.856   2.132   0.909 -0.2452 -0.3881 -0.9749
 8519TIP3    H249753   2.904   2.072   1.039 -1.1796  1.7876  0.4147
 8520TIP3   OH249754   5.746   5.642   0.471 -0.0892 -0.1511  0.0823
 8520TIP3    H149755   5.701   5.559   0.486 -3.5218  1.2684 -1.5156
 8520TIP3    H249756   5.692   5.707   0.515  2.9927  1.2853  2.0599
 8521TIP3   OH249757   1.880   1.562   2.779 -0.1316  0.2277  0.0034
 8521TIP3    H149758   1.804   1.504   2.783 -0.3846  0.5982  0.9743
 8521TIP3    H249759   1.930   1.532   2.703 -0.9228 -0.4215 -0.2718
 8522TIP3   OH249760   1.402   1.751   2.366  0.0657  0.8817 -0.0903
 8522TIP3    H149761   1.468   1.698   2.410 -0.7120  0.3148  0.4171
 8522TIP3    H249762   1.452   1.816   2.317  1.0298 -0.0843 -0.4339
 8523TIP3   OH249763   5.052   6.479   4.228  0.1730 -0.3146  0.2628
 8523TIP3    H149764   5.114   6.417   4.268  0.0545  0.3781  1.5439
 8523TIP3    H249765   5.102   6.560   4.218 -0.3214  0.0443  0.6613
 8524TIP3   OH249766   6.607   5.449   0.487 -0.2611 -0.3105  0.3586
 8524TIP3    H149767   6.689   5.480   0.449 -0.7157 -0.4926 -0.7930
 8524TIP3    H249768   6.634   5.383   0.551  0.5197  0.0521  0.4162
 8525TIP3   OH249769   3.110   0.166   2.901  0.3539 -0.2699 -0.5589
 8525TIP3    H149770   3.191   0.213   2.881  0.5108 -0.6554 -0.8533
 8525TIP3    H249771   3.103   0.101   2.831  0.4729 -1.1038  0.1939
 8526TIP3   OH249772   2.249   5.808   2.856  0.5450  0.4414 -0.0851
 8526TIP3    H149773   2.306   5.866   2.906 -0.1363 -0.4646  1.8489
 8526TIP3    H249774   2.306   5.770   2.789  1.9411  0.3831  1.0924
 8527TIP3   OH249775   4.366   0.784   0.978  0.1691 -1.0192  0.2879
 8527TIP3    H149776   4.425   0.750   1.046  0.4976 -0.8569  0.0804
 8527TIP3    H249777   4.392   0.738   0.899  0.9639  0.0818 -0.1157
 8528TIP3   OH249778   0.473   1.721   1.636 -0.4073 -0.7887  0.1770
 8528TIP3    H149779   0.548   1.763   1.593 -0.0790 -0.0635  1.4334
 8528TIP3    H249780   0.434   1.668   1.567 -0.4540  1.0687 -1.3171
 8529TIP3   OH249781   0.931   1.167   2.844 -0.5983  0.7297 -0.8123
 8529TIP3    H149782   1.023   1.186   2.825 -0.5600  1.6857  0.1931
 8529TIP3    H249783   0.909   1.095   2.786  0.6044  0.9086 -1.5391
 8530TIP3   OH249784   4.913   0.098   1.849  0.1959  0.4236 -0.0675
 8530TIP3    H149785   4.897   0.087   1.943 -0.5901  0.0556 -0.2346
 8530TIP3    H249786   4.989   0.156   1.844  1.4455 -1.0757  0.8204
 8531TIP3   OH249787   1.649   4.866   3.380  0.6408  0.2960 -0.6054
 8531TIP3    H149788   1.656   4.845   3.474  1.3928  0.2616 -0.6585
 8531TIP3    H249789   1.726   4.920   3.362  0.0751  0.9693 -1.0400
 8532TIP3   OH249790   3.302   4.920   2.642  0.1255 -0.0715 -0.3489
 8532TIP3    H149791   3.343   5.007   2.649  0.4597 -0.1772 -0.9066
 8532TIP3    H249792   3.338   4.883   2.561  0.4643 -0.9829  0.2009
 8533TIP3   OH249793   2.566   6.659   3.740 -0.1889  0.6243  0.2234
 8533TIP3    H149794   2.656   6.646   3.768 -0.5388 -2.0989  0.3163
 8533TIP3    H249795   2.518   6.672   3.822 -0.2010 -0.2960  0.3705
 8534TIP3   OH249796   6.765   3.512   1.767 -0.5426 -0.1586  0.1906
 8534TIP3    H149797   6.719   3.483   1.688 -1.1207 -2.0557  1.1733
 8534TIP3    H249798   6.847   3.461   1.767 -1.4917 -1.7974  1.8569
 8535TIP3   OH249799   0.211   3.917   3.418 -0.2005  0.0391  0.1535
 8535TIP3    H149800   0.212   3.821   3.420  1.0229  0.0244  2.0608
 8535TIP3    H249801   0.190   3.940   3.328 -2.2266 -2.0055  0.0321
 8536TIP3   OH249802   2.199   5.948   2.143  0.2938 -0.0644  0.0524
 8536TIP3    H149803   2.129   6.013   2.142  0.3995  0.0464 -0.6381
 8536TIP3    H249804   2.155   5.865   2.162 -0.1827 -0.1567 -1.3508
 8537TIP3   OH249805   0.220   6.776   1.320  0.4606  0.0794  0.0281
 8537TIP3    H149806   0.212   6.866   1.291 -0.6801 -0.8315 -2.8444
 8537TIP3    H249807   0.169   6.725   1.256  0.6085 -2.5525  1.8265
 8538TIP3   OH249808   2.710   4.111   1.008  0.3898 -0.1017  0.0491
 8538TIP3    H149809   2.675   4.022   0.998 -0.0813  0.0807  0.0190
 8538TIP3    H249810   2.706   4.147   0.920 -1.3338  0.6276  0.3730
 8539TIP3   OH249811   0.908   3.744   3.108  0.0868 -0.2403  0.1205
 8539TIP3    H149812   0.832   3.725   3.053 -1.4246  2.7953  0.9358
 8539TIP3    H249813   0.896   3.835   3.135  3.2730 -0.1006  1.5535
 8540TIP3   OH249814   0.865   4.330   1.004 -0.1482 -0.4537  0.3987
 8540TIP3    H149815   0.792   4.310   1.062 -1.2766  2.4453  0.1476
 8540TIP3    H249816   0.835   4.301   0.917 -0.5638 -0.2389  0.4682
 8541TIP3   OH249817   6.404   0.873   1.621  0.1726  0.0969 -0.0843
 8541TIP3    H149818   6.367   0.872   1.533 -0.7487  0.1812  0.2908
 8541TIP3    H249819   6.488   0.919   1.612  1.4943 -2.3496 -1.4357
 8542TIP3   OH249820   4.151   3.379   3.006  0.4229  0.3812 -0.1724
 8542TIP3    H149821   4.083   3.387   2.940  0.8356  0.2312 -0.6228
 8542TIP3    H249822   4.222   3.333   2.962  1.7224  2.4797 -0.4523
 8543TIP3   OH249823   6.388   1.787   3.791 -0.6000 -0.1223  0.3429
 8543TIP3    H149824   6.332   1.712   3.773 -0.4226 -0.1909  0.0765
 8543TIP3    H249825   6.441   1.760   3.866 -0.2564 -0.4133 -0.0004
 8544TIP3   OH249826   0.184   5.865   2.639 -0.0295  0.5263  0.0417
 8544TIP3    H149827   0.174   5.777   2.602 -1.4520  1.1754 -1.2170
 8544TIP3    H249828   0.161   5.855   2.731 -0.0497 -0.4311 -0.0570
 8545TIP3   OH249829   1.574   1.482   2.228 -0.6585  0.3944  0.3065
 8545TIP3    H149830   1.608   1.525   2.306 -1.0887  0.7172  0.3215
 8545TIP3    H249831   1.480   1.498   2.231 -0.6203  0.8131 -0.5264
 8546TIP3   OH249832   6.290   5.005   0.418  0.2951 -0.2946  0.3803
 8546TIP3    H149833   6.236   4.950   0.476 -0.1586 -0.6413 -0.3508
 8546TIP3    H249834   6.253   4.990   0.331  0.5508  0.7227  0.0884
 8547TIP3   OH249835   1.942   6.486   1.699 -0.6368 -0.3822 -0.0648
 8547TIP3    H149836   2.021   6.524   1.659 -0.0867  0.4635  1.7523
 8547TIP3    H249837   1.936   6.527   1.785 -3.3156 -0.1390 -0.2981
 8548TIP3   OH249838   1.713   3.545   2.012  0.2153  0.1851  0.0290
 8548TIP3    H149839   1.717   3.470   2.071  4.0001 -1.7570 -2.2445
 8548TIP3    H249840   1.757   3.615   2.059  0.9599 -0.5611  0.4786
 8549TIP3   OH249841   6.012   6.758   0.615 -0.1918  0.2440  0.0648
 8549TIP3    H149842   6.037   6.841   0.656  1.0734  0.0597 -0.3177
 8549TIP3    H249843   5.921   6.772   0.587 -1.5044  0.1081  3.6678
 8550TIP3   OH249844   2.782   0.832   9.027  0.3903 -0.6536  0.2183
 8550TIP3    H149845   2.748   0.882   8.953 -0.3028 -1.9818 -0.3905
 8550TIP3    H249846   2.863   0.877   9.050 -0.0787  0.5899 -0.4664
 8551TIP3   OH249847   2.078   2.118   3.724 -0.7590  0.0259  0.3679
 8551TIP3    H149848   2.160   2.154   3.759 -0.6420 -0.7373  0.8955
 8551TIP3    H249849   2.100   2.091   3.635 -0.7186  0.7800  0.1364
 8552TIP3   OH249850   3.925   1.358   1.347  0.1373 -0.0493  0.0473
 8552TIP3    H149851   3.834   1.385   1.359 -0.1997 -0.4980 -1.2782
 8552TIP3    H249852   3.976   1.436   1.368 -0.6451  0.6511 -0.5607
 8553TIP3   OH249853   0.553   4.785   2.599  0.5295 -0.4968  0.7123
 8553TIP3    H149854   0.463   4.756   2.585  0.9625 -2.4205  1.5859
 8553TIP3    H249855   0.567   4.853   2.534 -0.9022 -1.5978 -0.8242
 8554TIP3   OH249856   5.546   2.913   2.213  0.2775  0.2302 -0.2173
 8554TIP3    H149857   5.543   2.895   2.307  1.6852  0.2234 -0.1524
 8554TIP3    H249858   5.510   3.001   2.205 -0.1622  0.1074  0.2759
 8555TIP3   OH249859   1.476   1.786   1.837  0.3233  0.6785 -0.0900
 8555TIP3    H149860   1.559   1.813   1.799  0.5458 -1.2744 -1.0664
 8555TIP3    H249861   1.493   1.782   1.931  0.6823  2.3795 -0.0432
 8556TIP3   OH249862   2.485   5.841   0.755 -0.0342  0.2473 -0.4889
 8556TIP3    H149863   2.571   5.807   0.777  0.0003  0.1349 -0.7866
 8556TIP3    H249864   2.440   5.766   0.714 -0.5545  0.0646  0.3943
 8557TIP3   OH249865   3.904   2.925   2.607 -0.2014  0.0238  0.0593
 8557TIP3    H149866   3.817   2.916   2.648 -0.7792  1.5236 -0.7792
 8557TIP3    H249867   3.890   2.986   2.535  2.2604  3.2247  2.0444
 8558TIP3   OH249868   0.745   0.759   1.950  0.2104  0.2004 -0.3597
 8558TIP3    H149869   0.840   0.745   1.954  0.6180  2.4723 -0.3280
 8558TIP3    H249870   0.733   0.817   1.874 -1.1174  0.1377 -0.2246
 8559TIP3   OH249871   6.320   2.048   3.040  0.5601 -0.3722  0.2498
 8559TIP3    H149872   6.367   2.118   2.995  0.6121 -0.6897 -0.1952
 8559TIP3    H249873   6.317   2.076   3.132 -0.1640  0.6266 -0.0539
 8560TIP3   OH249874   2.404   3.653   3.257  0.5243 -0.1808  0.0599
 8560TIP3    H149875   2.364   3.566   3.249  0.4917 -0.2319  0.7109
 8560TIP3    H249876   2.338   3.705   3.302  0.5646  0.1719 -0.2853
 8561TIP3   OH249877   2.721   1.273   2.424  0.2361  0.0275 -0.4317
 8561TIP3    H149878   2.754   1.249   2.511  0.4336  0.4024 -0.3999
 8561TIP3    H249879   2.627   1.287   2.437 -0.0349 -1.4890 -0.6154
 8562TIP3   OH249880   3.548   2.586  11.117 -0.8184  0.1850  0.3984
 8562TIP3    H149881   3.478   2.639  11.155  0.2879  1.1676  1.1537
 8562TIP3    H249882   3.538   2.500  11.158 -0.0175  1.0441  2.5702
 8563TIP3   OH249883   6.638   5.491   3.632  0.1597  0.0294 -0.0957
 8563TIP3    H149884   6.711   5.549   3.655 -0.2805  0.5272  0.0708
 8563TIP3    H249885   6.560   5.537   3.665 -0.1590 -0.8477  0.3866
 8564TIP3   OH249886   6.230   5.953   0.312  0.6552  0.2863 -0.2583
 8564TIP3    H149887   6.216   5.883   0.376  2.4178 -0.2039 -0.3554
 8564TIP3    H249888   6.162   5.938   0.246 -0.6196  0.2623  1.0195
 8565TIP3   OH249889   5.974   5.074   1.515  0.3250 -0.3130  0.5141
 8565TIP3    H149890   6.063   5.105   1.530 -0.4424  1.6592  1.3911
 8565TIP3    H249891   5.937   5.136   1.453 -1.2166  0.4928  2.1528
 8566TIP3   OH249892   0.166   1.064   3.756 -0.4020 -0.2802 -0.0681
 8566TIP3    H149893   0.165   1.125   3.682 -2.1936 -1.5884 -1.1937
 8566TIP3    H249894   0.256   1.032   3.759  0.4749  2.0423  0.2922
 8567TIP3   OH249895   3.672   4.513   1.584  0.2049  0.0352  0.3254
 8567TIP3    H149896   3.729   4.484   1.655 -2.0586  0.0287  2.2642
 8567TIP3    H249897   3.637   4.597   1.614 -0.6129  0.1454 -0.8722
 8568TIP3   OH249898   3.243   4.210   1.394 -0.1315  0.3825  0.0491
 8568TIP3    H149899   3.283   4.124   1.384 -0.3456  0.2554  0.2834
 8568TIP3    H249900   3.311   4.263   1.436 -0.8036 -0.3139  2.1316
 8569TIP3   OH249901   1.062   6.836   2.220 -0.3083  0.3604  0.0767
 8569TIP3    H149902   1.046   6.917   2.269 -0.5789 -0.0156  0.6185
 8569TIP3    H249903   1.087   6.772   2.286 -0.5124 -0.1149 -0.2967
 8570TIP3   OH249904   6.697   4.769   2.010  0.3226  0.1713  0.2780
 8570TIP3    H149905   6.686   4.816   1.928 -0.6766 -1.4895 -0.5834
 8570TIP3    H249906   6.609   4.739   2.033  0.0935  2.4890  3.2201
 8571TIP3   OH249907   0.346   1.863   2.731  0.0726 -0.1934 -0.4075
 8571TIP3    H149908   0.254   1.836   2.736 -0.1556  0.7449  1.1690
 8571TIP3    H249909   0.342   1.958   2.717  0.7043  0.3563  2.5151
 8572TIP3   OH249910   5.325   1.624   1.127  0.4615 -0.1953 -0.1421
 8572TIP3    H149911   5.257   1.594   1.188 -0.3741  2.3268  0.2991
 8572TIP3    H249912   5.375   1.689   1.177 -0.4964  2.2573 -2.1487
 8573TIP3   OH249913   0.130   5.826   2.896  0.3982  0.3713 -0.2087
 8573TIP3    H149914   0.091   5.749   2.940 -0.4923  0.4380 -0.8595
 8573TIP3    H249915   0.141   5.890   2.967  0.6325 -0.1538  0.2412
 8574TIP3   OH249916   6.279   0.428   1.794 -0.4473 -0.1915 -0.3020
 8574TIP3    H149917   6.305   0.495   1.856  0.4978 -1.0718  0.2909
 8574TIP3    H249918   6.334   0.352   1.816 -1.5003 -1.1714 -0.9160
 8575TIP3   OH249919   4.481   2.612   3.254  0.3465 -0.0045 -0.4787
 8575TIP3    H149920   4.487   2.658   3.338  0.7684 -0.2968 -0.3467
 8575TIP3    H249921   4.533   2.666   3.194  0.9422 -0.3631 -0.2956
 8576TIP3   OH249922   0.578   0.817   2.191  0.2286  0.1005  0.0946
 8576TIP3    H149923   0.592   0.724   2.212  1.1595  0.5975  1.9164
 8576TIP3    H249924   0.629   0.831   2.111 -0.1469 -0.9998 -0.3680
 8577TIP3   OH249925   2.169   6.602   0.816 -0.0572  0.2303 -0.0447
 8577TIP3    H149926   2.248   6.557   0.785 -0.8117 -0.4256 -1.0957
 8577TIP3    H249927   2.193   6.694   0.820  0.6431  0.0868 -0.7488
 8578TIP3   OH249928   4.328   2.875   2.019  0.6411 -0.0495 -0.5287
 8578TIP3    H149929   4.315   2.874   1.924  1.1434 -2.3131 -0.6258
 8578TIP3    H249930   4.408   2.927   2.031 -0.0291  1.1803 -1.2140
 8579TIP3   OH249931   4.795   2.898   0.787  1.1235  0.0764  0.1618
 8579TIP3    H149932   4.765   2.908   0.878 -1.4443  0.6129 -0.6487
 8579TIP3    H249933   4.779   2.806   0.766  1.7621 -0.0586  0.2583
 8580TIP3   OH249934   0.729   2.742   1.700  0.4132 -0.3435 -0.4102
 8580TIP3    H149935   0.655   2.743   1.761  0.8681 -1.4085  0.1919
 8580TIP3    H249936   0.762   2.832   1.701 -0.1070 -0.1511  0.2651
 8581TIP3   OH249937   4.034   2.468   2.279 -0.3307  0.1738  0.6476
 8581TIP3    H149938   4.108   2.490   2.335  0.7572  1.1641 -1.1041
 8581TIP3    H249939   4.002   2.552   2.246 -1.2785 -0.3490  0.1875
 8582TIP3   OH249940   5.450   2.907   2.751 -0.0301  0.3768 -0.6707
 8582TIP3    H149941   5.408   2.992   2.765 -0.9375  0.0029 -1.0450
 8582TIP3    H249942   5.478   2.879   2.839  1.0925  1.4544 -0.6568
 8583TIP3   OH249943   3.380   4.340   3.333 -0.2191 -0.1763 -0.2382
 8583TIP3    H149944   3.404   4.266   3.277 -3.0068 -0.9356 -0.6008
 8583TIP3    H249945   3.301   4.310   3.378 -0.8298  2.2198  0.3848
 8584TIP3   OH249946   6.685   6.010   3.375 -0.0749  0.2564  0.1707
 8584TIP3    H149947   6.665   6.002   3.282  1.0264  1.9824 -0.2730
 8584TIP3    H249948   6.653   5.929   3.415  0.3301 -0.9565 -1.8629
 8585TIP3   OH249949   2.781   3.353   1.466  0.2509  0.0084  0.1729
 8585TIP3    H149950   2.852   3.417   1.474 -0.5283  1.0043 -0.5503
 8585TIP3    H249951   2.718   3.378   1.533 -0.6988  0.8999 -1.0046
 8586TIP3   OH249952   0.464   0.435   3.868 -0.3675 -0.9523  0.0110
 8586TIP3    H149953   0.489   0.344   3.854 -1.3256 -1.3940  1.0142
 8586TIP3    H249954   0.515   0.462   3.945 -0.8323 -0.9654  0.3274
 8587TIP3   OH249955   4.915   2.076   1.575 -0.4066 -0.4007 -0.2734
 8587TIP3    H149956   4.879   2.007   1.630 -1.6340 -0.0636 -0.6216
 8587TIP3    H249957   4.895   2.157   1.622  0.9130 -0.2461  0.0723
 8588TIP3   OH249958   4.320   5.585   0.766 -0.1069 -1.0270  0.2595
 8588TIP3    H149959   4.278   5.582   0.680 -0.5043  0.3642  0.3847
 8588TIP3    H249960   4.277   5.516   0.817  0.4355 -2.1675 -0.7617
 8589TIP3   OH249961   4.209   6.274   2.311  0.1566 -0.2225  0.3957
 8589TIP3    H149962   4.129   6.223   2.297  0.9171 -1.4776  0.4929
 8589TIP3    H249963   4.242   6.290   2.222 -1.4883  2.5075  0.1726
 8590TIP3   OH249964   4.081   2.742   1.013 -0.0169  0.1232 -0.3749
 8590TIP3    H149965   4.077   2.651   1.044 -1.5054  0.1923 -0.2969
 8590TIP3    H249966   4.086   2.794   1.093  1.6642  0.0977 -0.4401
 8591TIP3   OH249967   1.514   1.998   0.752  0.1950  0.0171  0.4305
 8591TIP3    H149968   1.508   1.951   0.669 -0.4382 -0.3941  0.6949
 8591TIP3    H249969   1.542   1.931   0.815  3.4238  0.8959  0.0876
 8592TIP3   OH249970   1.844   3.875   2.978 -0.5832  0.0440  0.2819
 8592TIP3    H149971   1.939   3.866   2.969 -0.5222  0.1476  0.7989
 8592TIP3    H249972   1.809   3.794   2.942 -0.2678 -0.2303  0.5833
 8593TIP3   OH249973   3.231   6.502   0.549 -0.5089 -0.5234 -0.0616
 8593TIP3    H149974   3.311   6.513   0.601 -0.5982 -0.7350  0.1213
 8593TIP3    H249975   3.221   6.407   0.541 -0.5083 -0.4894 -0.4456
 8594TIP3   OH249976   0.033   2.078   2.809  0.7329 -0.3873  0.1781
 8594TIP3    H149977  -0.042   2.116   2.855  1.3301  1.3062 -0.1715
 8594TIP3    H249978   0.008   2.079   2.717  1.3271  0.6314  0.0071
 8595TIP3   OH249979   0.631   2.351   2.376 -0.1501 -0.2131  0.0049
 8595TIP3    H149980   0.563   2.328   2.439 -1.1853 -0.4849 -1.1759
 8595TIP3    H249981   0.596   2.427   2.330  1.9926  2.0980  1.8992
 8596TIP3   OH249982   0.483   2.514   3.768  0.2171  0.5838 -0.6321
 8596TIP3    H149983   0.405   2.467   3.796  1.2756 -0.9852 -0.1977
 8596TIP3    H249984   0.547   2.499   3.837  1.0395  1.5107 -1.1625
 8597TIP3   OH249985   6.415   2.421   2.427  0.2026 -0.5384 -0.7505
 8597TIP3    H149986   6.457   2.367   2.494  0.4499  0.0325 -0.4414
 8597TIP3    H249987   6.480   2.489   2.407 -0.8322  0.7827  0.2513
 8598TIP3   OH249988   3.756   0.394   0.655 -0.3489  0.3957  0.2953
 8598TIP3    H149989   3.674   0.376   0.701  0.9531  0.4640  2.8366
 8598TIP3    H249990   3.729   0.442   0.577 -2.9346 -2.1889 -0.5892
 8599TIP3   OH249991   6.015   2.366   4.149 -0.0443 -0.0367 -0.1558
 8599TIP3    H149992   5.986   2.457   4.158 -0.6905  0.1340 -3.0909
 8599TIP3    H249993   6.099   2.364   4.194 -1.4204  1.1338  2.7634
 8600TIP3   OH249994   0.716   5.464   1.107  0.0896  0.8313 -0.2548
 8600TIP3    H149995   0.774   5.482   1.181 -0.8538  0.9181  0.4975
 8600TIP3    H249996   0.686   5.374   1.121  0.1152  0.7530 -0.6837
 8601TIP3   OH249997   6.799   1.754   3.342  0.3696 -0.6758  0.0968
 8601TIP3    H149998   6.881   1.756   3.391 -0.3541 -1.7814  1.4274
 8601TIP3    H249999   6.749   1.829   3.375  0.2069 -0.9484  0.4781
 8602TIP3   OH250000   1.692   6.430   4.385  0.1460 -0.0443 -0.5590
 8602TIP3    H150001   1.730   6.475   4.309 -1.2163  0.7804 -0.7819
 8602TIP3    H250002   1.671   6.499   4.447  1.7391 -0.7541  0.8525
 8603TIP3   OH250003   5.079   1.441   0.845 -0.2043  0.3351 -0.2902
 8603TIP3    H150004   5.014   1.421   0.777 -0.5932  0.7951 -0.0623
 8603TIP3    H250005   5.157   1.469   0.797 -0.1179 -0.3771 -0.5718
 8604TIP3   OH250006   1.056   3.987   1.762 -0.5172 -0.3998 -0.1794
 8604TIP3    H150007   0.983   3.947   1.715 -0.6713 -1.5766  1.0059
 8604TIP3    H250008   1.110   3.913   1.790  1.3233  0.4596 -1.2978
 8605TIP3   OH250009   3.512   4.314   1.275 -0.2338 -0.3001  0.7813
 8605TIP3    H150010   3.551   4.291   1.359 -0.2178 -1.5730  0.4570
 8605TIP3    H250011   3.463   4.394   1.292  0.7558  0.1346  1.7015
 8606TIP3   OH250012   0.349   5.003   1.214  0.0653  0.6051 -0.2871
 8606TIP3    H150013   0.326   4.923   1.165 -0.1259 -0.2444  1.1417
 8606TIP3    H250014   0.277   5.064   1.195 -0.4515 -0.0184 -0.3708
 8607TIP3   OH250015   0.966   0.597   0.667 -0.1414 -0.1899 -0.2086
 8607TIP3    H150016   0.874   0.623   0.669  0.1748  0.9707  0.4737
 8607TIP3    H250017   0.965   0.508   0.634 -1.5501 -0.3561  0.2105
 8608TIP3   OH250018   5.987   4.287   1.243  0.2813  0.2035 -0.3903
 8608TIP3    H150019   5.981   4.378   1.274 -1.3426  0.5159 -1.4718
 8608TIP3    H250020   5.965   4.292   1.150  0.4209 -1.2714 -0.5251
 8609TIP3   OH250021   1.325   5.383   1.271 -0.7993  0.2886  0.3654
 8609TIP3    H150022   1.311   5.472   1.237 -0.4056  0.1144 -0.2807
 8609TIP3    H250023   1.241   5.339   1.256 -0.6195  0.2006 -0.4572
 8610TIP3   OH250024   0.881   1.136   3.107 -0.0586 -0.3035 -0.8138
 8610TIP3    H150025   0.892   1.142   3.012 -0.6759  1.7124 -0.7916
 8610TIP3    H250026   0.910   1.221   3.140 -4.8138  1.1703  0.2832
 8611TIP3   OH250027   2.263   1.754   2.793  0.4166 -0.2553 -0.0288
 8611TIP3    H150028   2.239   1.685   2.731  0.8077 -0.1345 -0.3215
 8611TIP3    H250029   2.228   1.834   2.754  1.5580 -0.0284 -0.6320
 8612TIP3   OH250030   5.530   2.836   1.024 -0.8238 -0.0005  0.5551
 8612TIP3    H150031   5.564   2.925   1.024 -2.0956  0.5128  0.5919
 8612TIP3    H250032   5.599   2.784   0.984 -0.0601  0.9966  0.5290
 8613TIP3   OH250033   6.771   3.879   4.188 -0.4651 -0.0050 -0.0148
 8613TIP3    H150034   6.739   3.944   4.250  0.1154  0.5157 -0.2468
 8613TIP3    H250035   6.737   3.908   4.103 -0.7000 -0.3425 -0.0404
 8614TIP3   OH250036   1.878   2.510   1.157 -0.0331  0.6590 -0.0208
 8614TIP3    H150037   1.880   2.499   1.062  1.0458  1.9925 -0.1750
 8614TIP3    H250038   1.863   2.603   1.170  4.0181  1.3267  1.0428
 8615TIP3   OH250039   5.533   5.560   3.715 -0.4287 -0.2732  0.1390
 8615TIP3    H150040   5.522   5.655   3.710  1.9267  0.0593  0.2501
 8615TIP3    H250041   5.553   5.533   3.625 -0.5777 -0.6070  0.2011
 8616TIP3   OH250042   3.145   2.787   2.010  0.0412  0.0631  0.2523
 8616TIP3    H150043   3.175   2.699   2.034  0.1313  0.6513  2.5380
 8616TIP3    H250044   3.060   2.773   1.968  0.4215 -1.1493 -0.1567
 8617TIP3   OH250045   4.904   2.776   3.132  0.2757  0.1053  0.0072
 8617TIP3    H150046   4.866   2.771   3.044 -0.1675  0.7938  0.1567
 8617TIP3    H250047   4.926   2.685   3.153 -1.3964 -0.3389 -0.0403
 8618TIP3   OH250048   5.531   4.414   2.573 -0.1367  0.5438 -0.2300
 8618TIP3    H150049   5.537   4.412   2.669  0.1909 -2.1569 -0.2263
 8618TIP3    H250050   5.504   4.503   2.553  0.4599  1.4049  2.3251
 8619TIP3   OH250051   2.902   5.773   2.589  0.0779  0.1579  0.9183
 8619TIP3    H150052   2.984   5.823   2.589  1.4116 -1.9118  0.9037
 8619TIP3    H250053   2.871   5.778   2.499  2.3549 -2.2679 -0.1173
 8620TIP3   OH250054   1.576   6.558   2.282 -0.3733  0.1573 -0.2939
 8620TIP3    H150055   1.536   6.630   2.331 -0.8082  1.1546 -2.0400
 8620TIP3    H250056   1.503   6.515   2.238 -0.0631 -1.1264  0.3966
 8621TIP3   OH250057   2.939   2.078   2.207 -0.3997 -0.0608 -0.3519
 8621TIP3    H150058   2.953   1.994   2.163  1.2158  1.4974 -3.0954
 8621TIP3    H250059   2.871   2.121   2.156 -1.0138  0.4495  0.8572
 8622TIP3   OH250060   5.760   5.690   0.820 -0.5957  0.4360 -0.2819
 8622TIP3    H150061   5.799   5.761   0.871 -0.4752  0.8050 -0.8745
 8622TIP3    H250062   5.707   5.735   0.754 -0.7381 -0.0296 -0.4874
 8623TIP3   OH250063   0.933   5.675   1.956 -0.3383 -0.6053  0.2439
 8623TIP3    H150064   0.947   5.769   1.968 -1.2134 -0.4692  0.2884
 8623TIP3    H250065   0.838   5.667   1.943 -0.0883 -1.2925 -1.3875
 8624TIP3   OH250066   0.891   1.087   2.142  0.6655 -0.0709 -0.2375
 8624TIP3    H150067   0.871   1.136   2.222  0.7698 -2.2605  1.2104
 8624TIP3    H250068   0.810   1.087   2.092 -0.6118 -1.8094  1.6694
 8625TIP3   OH250069   4.649   4.730   1.198  0.3681 -0.1748  0.2552
 8625TIP3    H150070   4.572   4.754   1.146 -0.0884 -0.1987  0.8994
 8625TIP3    H250071   4.637   4.636   1.215 -0.2735  0.1396  1.6536
 8626TIP3   OH250072   3.000   4.815   3.567  0.7884  0.4416 -0.6375
 8626TIP3    H150073   3.081   4.765   3.558  0.2441 -0.3206 -1.4759
 8626TIP3    H250074   3.013   4.868   3.646  1.6752 -0.4667 -0.1532
 8627TIP3   OH250075   1.065   1.777   2.496 -0.2365  0.1329 -0.6691
 8627TIP3    H150076   1.015   1.836   2.552 -0.6919 -0.4268 -0.4804
 8627TIP3    H250077   1.155   1.784   2.528 -0.5720 -0.5634  0.4736
 8628TIP3   OH250078   1.391   6.363   2.249 -0.2850 -0.2633 -0.1219
 8628TIP3    H150079   1.366   6.271   2.255  2.0435 -0.8517  1.9403
 8628TIP3    H250080   1.486   6.361   2.236 -0.5265  1.8675 -3.6566
 8629TIP3   OH250081   0.132   0.574   0.725 -0.0775  0.0518  0.1795
 8629TIP3    H150082   0.141   0.648   0.665 -0.1180 -0.1382 -0.0586
 8629TIP3    H250083   0.212   0.523   0.713 -0.4413 -0.4110 -0.2865
 8630TIP3   OH250084   2.379   3.157   1.608  0.0540  0.2653  0.0979
 8630TIP3    H150085   2.400   3.239   1.564 -0.9787  0.6410  0.2728
 8630TIP3    H250086   2.416   3.167   1.696  0.9298  0.0669 -0.2387
 8631TIP3   OH250087   5.693   1.572   0.746  0.0468  0.1812  0.9756
 8631TIP3    H150088   5.634   1.501   0.721  0.9732 -0.1055 -0.5141
 8631TIP3    H250089   5.765   1.527   0.791  0.0480  0.3214  1.1145
 8632TIP3   OH250090   3.812   6.645   1.545  0.4705  0.2569 -0.3578
 8632TIP3    H150091   3.798   6.739   1.558 -2.0524  0.1001 -1.4602
 8632TIP3    H250092   3.803   6.632   1.450 -0.1930 -1.2182 -0.1211
 8633TIP3   OH250093   0.354   4.536   2.749  0.0923 -0.0801 -0.2867
 8633TIP3    H150094   0.325   4.565   2.662  0.2520 -1.2794 -0.7471
 8633TIP3    H250095   0.365   4.618   2.798  0.6294  0.6549 -1.5840
 8634TIP3   OH250096   3.733   6.263   2.824  0.2638 -0.6353 -0.0360
 8634TIP3    H150097   3.709   6.346   2.783  0.9634 -0.2897  0.2407
 8634TIP3    H250098   3.650   6.215   2.832 -0.1605  0.0836 -0.0877
 8635TIP3   OH250099   1.127   2.225   2.017  0.6667  0.1553 -0.2459
 8635TIP3    H150100   1.144   2.319   2.010  1.5824  0.0768  0.6949
 8635TIP3    H250101   1.107   2.198   1.927  2.0466  0.9513 -0.8310
 8636TIP3   OH250102   3.078   2.238   3.734  0.2700  0.1434  0.0863
 8636TIP3    H150103   3.052   2.288   3.812 -0.6551  0.6745 -0.5380
 8636TIP3    H250104   3.148   2.290   3.694 -0.3691  0.7179 -0.3063
 8637TIP3   OH250105   3.886   4.299   1.262 -0.0145  0.2592 -0.6384
 8637TIP3    H150106   3.844   4.215   1.242 -0.7514  1.1972 -3.6102
 8637TIP3    H250107   3.971   4.275   1.297  1.0659 -1.9395 -4.1617
 8638TIP3   OH250108   5.303   6.619   0.345  0.0237 -0.0244  0.3763
 8638TIP3    H150109   5.296   6.594   0.253  1.3854  1.4412 -0.1749
 8638TIP3    H250110   5.344   6.544   0.387  0.5704 -0.2355 -0.4874
 8639TIP3   OH250111   6.347   5.024   0.797 -0.0686 -0.3736 -0.7852
 8639TIP3    H150112   6.385   5.043   0.712 -0.0395 -0.0046 -0.6915
 8639TIP3    H250113   6.373   4.934   0.816  1.6683  0.2015 -0.2507
 8640TIP3   OH250114   0.852   2.522   3.269  0.3699  0.4067 -0.1329
 8640TIP3    H150115   0.845   2.475   3.186 -0.3784  0.6170 -0.1978
 8640TIP3    H250116   0.852   2.453   3.335 -1.2856  0.3099 -0.1972
 8641TIP3   OH250117   2.418   2.645   2.467  0.3750  0.1163 -0.0279
 8641TIP3    H150118   2.370   2.712   2.418 -1.1322  0.1457  1.3797
 8641TIP3    H250119   2.359   2.622   2.539  1.6951 -1.3043  0.6519
 8642TIP3   OH250120   3.153   3.973   3.193  0.4000  0.6561  0.0476
 8642TIP3    H150121   3.081   3.980   3.255  0.4000 -2.3219  0.5360
 8642TIP3    H250122   3.118   3.921   3.121  1.5320  0.7352 -0.5788
 8643TIP3   OH250123   6.839   0.749   3.628  0.5038 -0.1927  0.2437
 8643TIP3    H150124   6.775   0.694   3.582  0.9209 -1.6632  1.3255
 8643TIP3    H250125   6.887   0.793   3.559  0.3773 -1.4801 -0.7097
 8644TIP3   OH250126   1.280   0.041   2.900 -0.0226 -0.2184 -0.0618
 8644TIP3    H150127   1.226   0.114   2.929  0.2770 -0.3793  0.9319
 8644TIP3    H250128   1.346   0.031   2.969  1.0323 -0.2789 -1.0499
 8645TIP3   OH250129   4.117   3.999   2.107 -0.1757 -0.1631  0.2344
 8645TIP3    H150130   4.076   3.913   2.099 -1.2780  0.3840 -0.2693
 8645TIP3    H250131   4.049   4.055   2.144  0.1369  0.7491 -0.5248
 8646TIP3   OH250132   5.197   2.039   0.592  0.1852 -0.1214  0.5745
 8646TIP3    H150133   5.198   1.947   0.619 -1.5609 -0.5174 -0.5236
 8646TIP3    H250134   5.168   2.037   0.501  1.8504  1.4285 -0.0622
 8647TIP3   OH250135   4.919   4.689   1.739  0.2374 -0.3655 -0.4132
 8647TIP3    H150136   4.995   4.662   1.791  0.0150  0.9425  0.6360
 8647TIP3    H250137   4.870   4.748   1.797 -0.6458  0.2133 -1.7077
 8648TIP3   OH250138   5.856   6.076   3.299  0.1772  0.2986  0.5688
 8648TIP3    H150139   5.842   6.030   3.381  1.3541  2.3087  1.9993
 8648TIP3    H250140   5.775   6.126   3.285  0.1000  0.2025  0.6737
 8649TIP3   OH250141   6.533   5.371   2.463  0.6036 -0.6751  0.0503
 8649TIP3    H150142   6.568   5.307   2.401  0.4100 -0.4813 -0.2620
 8649TIP3    H250143   6.607   5.429   2.481  0.4058 -0.1615 -0.7462
 8650TIP3   OH250144   0.137   6.582   1.784  0.5117 -0.0709 -0.1907
 8650TIP3    H150145   0.183   6.593   1.701 -0.9376 -0.5995 -1.0996
 8650TIP3    H250146   0.110   6.490   1.785 -0.7573  0.2806  0.1590
 8651TIP3   OH250147   4.450   5.751   0.958 -0.6468  0.2001 -0.0672
 8651TIP3    H150148   4.418   5.688   0.894 -2.1337  1.0267 -0.1708
 8651TIP3    H250149   4.377   5.764   1.019 -0.0395  1.1072  0.5058
 8652TIP3   OH250150   3.951   1.031   2.226  0.1272 -0.2059  0.5029
 8652TIP3    H150151   4.019   0.974   2.190  1.4246  0.9352  1.0254
 8652TIP3    H250152   3.997   1.085   2.290 -0.2658  3.5003 -2.0241
 8653TIP3   OH250153   2.065   0.253   1.486  0.2806 -0.5625 -0.1629
 8653TIP3    H150154   2.161   0.245   1.490  0.2415 -1.5907 -0.8626
 8653TIP3    H250155   2.033   0.195   1.555  0.1639  0.4984  0.7012
 8654TIP3   OH250156   1.554   5.870   2.621  0.4971  0.0009 -0.5190
 8654TIP3    H150157   1.649   5.873   2.616  0.4978 -1.2478 -1.9050
 8654TIP3    H250158   1.535   5.795   2.676  0.3045  0.3047 -0.1648
 8655TIP3   OH250159   2.709   6.836   1.609 -0.6858  0.4306  0.4836
 8655TIP3    H150160   2.767   6.855   1.682 -0.5252 -1.5809  0.9395
 8655TIP3    H250161   2.755   6.769   1.558 -1.5279  0.5883 -0.5214
 8656TIP3   OH250162   1.831   3.534   1.006 -0.6619  0.3881  0.7856
 8656TIP3    H150163   1.906   3.548   1.064 -0.5052 -0.5847  0.8448
 8656TIP3    H250164   1.866   3.483   0.933 -1.1317  0.4779  0.4905
 8657TIP3   OH250165   0.048   3.109   0.360  0.7941  0.4026  0.1872
 8657TIP3    H150166  -0.003   3.038   0.399  1.3183  0.4128  0.8895
 8657TIP3    H250167   0.010   3.119   0.272  0.4531 -0.4679  0.2246
 8658TIP3   OH250168   4.583   5.767   1.859 -0.3996 -0.1264  0.7055
 8658TIP3    H150169   4.607   5.829   1.928  3.1587  1.5232 -1.7422
 8658TIP3    H250170   4.505   5.806   1.818  0.1590  1.2857  0.9499
 8659TIP3   OH250171   3.360   5.648   1.042 -0.4627 -0.2512 -0.2779
 8659TIP3    H150172   3.267   5.635   1.059 -0.6211 -0.4674 -1.2509
 8659TIP3    H250173   3.382   5.581   0.977  0.4102 -0.2988  0.0573
 8660TIP3   OH250174   4.594   6.450   2.270 -0.3108 -0.3290  0.0673
 8660TIP3    H150175   4.634   6.474   2.186 -2.6206 -1.6724 -1.5644
 8660TIP3    H250176   4.509   6.414   2.245 -1.6447  0.4257  3.1386
 8661TIP3   OH250177   3.406   2.153   2.684  0.0394 -0.5767  0.2521
 8661TIP3    H150178   3.371   2.231   2.728 -1.2212 -1.5766  1.0920
 8661TIP3    H250179   3.480   2.185   2.634 -0.4998  1.1866  0.5203
 8662TIP3   OH250180   1.065   3.349   2.499  0.3475 -0.2657  0.1302
 8662TIP3    H150181   1.037   3.370   2.410 -1.7958  0.8481  0.9762
 8662TIP3    H250182   1.057   3.254   2.506 -1.6557 -0.1699 -0.2504
 8663TIP3   OH250183   2.920   5.647   4.092 -0.2181 -0.1980 -0.4973
 8663TIP3    H150184   2.976   5.605   4.026  2.5633  1.4487  0.6535
 8663TIP3    H250185   2.961   5.626   4.175  0.5980  3.5673  0.2301
 8664TIP3   OH250186   5.834   2.105   1.498  0.2647 -0.0767 -0.0145
 8664TIP3    H150187   5.900   2.115   1.566 -0.9450 -0.1665  1.2360
 8664TIP3    H250188   5.753   2.135   1.540 -0.2463  1.4604 -1.9640
 8665TIP3   OH250189   2.345   3.432   0.665  0.0783 -0.2497 -0.7603
 8665TIP3    H150190   2.339   3.521   0.701  0.6636 -0.5719  0.1772
 8665TIP3    H250191   2.439   3.415   0.660 -0.0276 -0.7635 -1.0790
 8666TIP3   OH250192   0.163   0.871   3.451 -0.1898  0.5384  0.3506
 8666TIP3    H150193   0.255   0.847   3.443  0.0650  1.7221 -0.6021
 8666TIP3    H250194   0.151   0.942   3.388 -1.9600 -0.1559 -0.1540
 8667TIP3   OH250195   2.928   3.395   2.690 -0.0246  0.0056 -0.4180
 8667TIP3    H150196   3.016   3.401   2.655  0.5423 -1.1096  0.7402
 8667TIP3    H250197   2.938   3.405   2.784 -1.1811  0.1882 -0.2894
 8668TIP3   OH250198   4.239   0.992   2.474  0.2316 -0.0381  0.0929
 8668TIP3    H150199   4.214   0.902   2.494  0.0771  0.3603  1.8508
 8668TIP3    H250200   4.163   1.029   2.430 -0.2890 -0.3404  0.7266
 8669TIP3   OH250201   2.543   3.487   2.518  0.5163 -0.1627 -0.2428
 8669TIP3    H150202   2.538   3.566   2.571  0.2780  1.1324 -2.0649
 8669TIP3    H250203   2.632   3.454   2.529  0.5371  0.2073  0.7306
 8670TIP3   OH250204   4.502   5.507   3.160  0.7288  0.6426 -0.3898
 8670TIP3    H150205   4.589   5.500   3.197  0.2982 -1.8001  0.2997
 8670TIP3    H250206   4.451   5.553   3.227  1.2593  1.3559 -0.4576
 8671TIP3   OH250207   2.495   0.878   3.604 -0.2386  0.4862 -0.2043
 8671TIP3    H150208   2.574   0.897   3.554 -0.7384  0.8043 -0.8769
 8671TIP3    H250209   2.527   0.865   3.694  1.0481 -2.7800 -0.9854
 8672TIP3   OH250210   0.481   4.144   2.515 -0.2740  0.9151 -0.3701
 8672TIP3    H150211   0.421   4.071   2.526 -0.1806  0.5413 -2.0368
 8672TIP3    H250212   0.425   4.221   2.506 -0.4727  0.7211 -0.8227
 8673TIP3   OH250213   1.343   4.839   2.757  0.1213 -0.9126  0.4271
 8673TIP3    H150214   1.314   4.895   2.685  0.4196  0.5792  1.4380
 8673TIP3    H250215   1.439   4.846   2.756  0.2165 -2.0172  0.1072
 8674TIP3   OH250216   6.377   2.854   2.377  0.2653  0.1190 -0.2364
 8674TIP3    H150217   6.345   2.808   2.454 -0.4661  0.4634 -0.3262
 8674TIP3    H250218   6.312   2.924   2.362  1.1294  0.9261 -0.3343
 8675TIP3   OH250219   6.065   6.423   2.617 -0.2009 -0.1821  0.7286
 8675TIP3    H150220   6.056   6.332   2.645 -0.5756 -0.1516  0.7113
 8675TIP3    H250221   6.009   6.431   2.540  0.7430 -0.2292  0.0346
 8676TIP3   OH250222   3.663   0.580   2.087 -0.0806  0.6576  0.2081
 8676TIP3    H150223   3.699   0.664   2.116 -0.1992  0.6129  0.4921
 8676TIP3    H250224   3.647   0.591   1.993 -1.2961  1.3965  0.4705
 8677TIP3   OH250225   1.432   6.179   2.590 -0.4222 -0.2872  0.0666
 8677TIP3    H150226   1.511   6.203   2.639 -1.2075  0.9752  0.7696
 8677TIP3    H250227   1.365   6.239   2.622 -1.6595 -1.2848 -0.5738
 8678TIP3   OH250228   6.285   4.474   1.738 -0.0751 -0.2087 -0.2870
 8678TIP3    H150229   6.308   4.386   1.706  0.5100 -0.0257 -0.3836
 8678TIP3    H250230   6.363   4.502   1.786 -0.9841 -0.5618  1.4934
 8679TIP3   OH250231   1.387   5.116   3.291 -0.2720  0.2954  0.4348
 8679TIP3    H150232   1.407   5.166   3.370  0.5861  0.3919  0.1592
 8679TIP3    H250233   1.444   5.039   3.296  1.0514  1.1422 -0.9320
 8680TIP3   OH250234   1.830   2.257   1.359 -0.2569 -0.3701 -0.3322
 8680TIP3    H150235   1.815   2.333   1.303  1.2458  1.3812  1.4953
 8680TIP3    H250236   1.918   2.226   1.336 -0.2322 -0.5823  0.0325
 8681TIP3   OH250237   0.318   1.303   2.881  0.1739 -0.1698 -0.1690
 8681TIP3    H150238   0.387   1.369   2.880  1.1145 -1.1216 -0.1344
 8681TIP3    H250239   0.351   1.233   2.824 -0.5010 -0.8988  0.3074
 8682TIP3   OH250240   0.745   4.717   4.251  0.0207 -0.2503  0.4567
 8682TIP3    H150241   0.718   4.627   4.272  0.8192 -0.0932  2.3862
 8682TIP3    H250242   0.803   4.708   4.176 -1.1808 -1.1492 -0.4109
 8683TIP3   OH250243   2.155   1.530   4.252 -0.1728  0.3561 -0.3237
 8683TIP3    H150244   2.071   1.565   4.222  0.4228  1.0562 -1.2251
 8683TIP3    H250245   2.204   1.515   4.172 -0.4387 -2.7496 -0.0110
 8684TIP3   OH250246   1.137   6.725   2.483 -0.1249 -0.3452 -0.0537
 8684TIP3    H150247   1.228   6.755   2.472 -0.2012 -0.4236 -1.0149
 8684TIP3    H250248   1.134   6.690   2.571  0.7493 -0.2116  0.0409
 8685TIP3   OH250249   6.108   5.890   2.060  0.2792  0.0016 -0.2172
 8685TIP3    H150250   6.017   5.864   2.050  0.3113 -0.6794  1.1465
 8685TIP3    H250251   6.158   5.813   2.034  0.5252  0.6447 -1.8020
 8686TIP3   OH250252   3.667   0.342   1.454 -0.3998  0.4254  1.2155
 8686TIP3    H150253   3.678   0.341   1.359  2.0542 -0.8136  1.4330
 8686TIP3    H250254   3.584   0.387   1.468  0.4652  3.1881 -1.4092
 8687TIP3   OH250255   3.706   5.006   1.795 -0.8457  0.4812 -0.5102
 8687TIP3    H150256   3.736   5.027   1.884  0.2855  0.7959 -0.9497
 8687TIP3    H250257   3.784   4.971   1.752 -1.1745  1.0742 -1.6185
 8688TIP3   OH250258   2.660   6.148   1.489  0.1021  0.2168  0.4757
 8688TIP3    H150259   2.666   6.112   1.577  2.6654  0.9508  0.6978
 8688TIP3    H250260   2.567   6.145   1.467 -0.1459 -4.8789  1.0780
 8689TIP3   OH250261   3.510   4.385   1.838 -0.0130  0.0211 -0.2474
 8689TIP3    H150262   3.517   4.464   1.893  1.8364  1.3566 -2.2551
 8689TIP3    H250263   3.423   4.350   1.859 -1.4893  3.2932 -0.1246
 8690TIP3   OH250264   2.387   0.515   3.300  0.5675 -0.1490 -0.6920
 8690TIP3    H150265   2.393   0.455   3.225 -0.4696 -1.1400 -0.0146
 8690TIP3    H250266   2.443   0.588   3.276 -0.5933  0.0977 -2.9494
 8691TIP3   OH250267   2.322   3.065   3.554  0.2308 -0.1681 -0.3003
 8691TIP3    H150268   2.228   3.065   3.572  0.3709  2.2301  0.8642
 8691TIP3    H250269   2.362   3.100   3.633  2.0261 -0.1926 -1.1345
 8692TIP3   OH250270   6.209   2.206   1.164  0.2367 -0.1525 -0.2473
 8692TIP3    H150271   6.195   2.271   1.232  1.0650 -0.7029  0.4732
 8692TIP3    H250272   6.125   2.161   1.155  0.1949 -0.2469  0.6023
 8693TIP3   OH250273   1.195   3.196   2.270 -0.5018  0.0518  0.5623
 8693TIP3    H150274   1.152   3.148   2.340 -0.8102  2.5436  2.2053
 8693TIP3    H250275   1.268   3.140   2.243 -0.7908 -1.2878  2.3843
 8694TIP3   OH250276   3.008   1.995   2.931  0.3537  0.1656 -0.2691
 8694TIP3    H150277   2.928   1.999   2.983 -0.1453 -0.3106 -0.9867
 8694TIP3    H250278   2.988   2.043   2.851  0.5229 -0.6047 -0.7844
 8695TIP3   OH250279   2.199   2.615   1.003  0.0716 -0.1103 -0.2057
 8695TIP3    H150280   2.169   2.524   1.007 -1.9358  0.5372  0.7205
 8695TIP3    H250281   2.294   2.608   1.009 -0.0685 -2.1141  0.9264
 8696TIP3   OH250282   0.713   5.653   2.934  0.0644 -0.5195 -0.1554
 8696TIP3    H150283   0.742   5.613   3.016  0.8105 -0.4669 -0.3899
 8696TIP3    H250284   0.667   5.583   2.888  2.7007 -1.6530 -1.2698
 8697TIP3   OH250285   1.244   1.510   3.066  0.2318  0.0349  0.3412
 8697TIP3    H150286   1.285   1.578   3.119 -0.3965  0.5865  0.1359
 8697TIP3    H250287   1.195   1.558   3.000 -3.2329 -0.4092  2.3427
 8698TIP3   OH250288   1.548   0.731   0.964 -0.5567 -0.5125  0.1872
 8698TIP3    H150289   1.603   0.809   0.973 -1.3619  0.0064  0.7249
 8698TIP3    H250290   1.527   0.727   0.871  0.6199 -0.8823 -0.0776
 8699TIP3   OH250291   0.063   5.953   2.234  0.3649 -0.4532 -0.7998
 8699TIP3    H150292   0.124   5.907   2.177  0.1157 -0.9191 -0.6906
 8699TIP3    H250293   0.010   6.007   2.175  0.2763 -0.7414 -0.9835
 8700TIP3   OH250294   2.351   0.435   1.416 -0.1966  0.9727 -0.4326
 8700TIP3    H150295   2.309   0.502   1.363 -1.0777 -0.6161 -1.8555
 8700TIP3    H250296   2.440   0.429   1.382 -0.4853  0.6041 -1.1537
 8701TIP3   OH250297   0.308   0.038   2.698  0.1817 -0.1500  0.1169
 8701TIP3    H150298   0.348  -0.044   2.671  0.3452  0.2694 -0.9698
 8701TIP3    H250299   0.287   0.025   2.790 -0.8800 -1.8369 -0.3157
 8702TIP3   OH250300   4.677   1.505   2.398 -0.7034 -0.1657  0.6979
 8702TIP3    H150301   4.736   1.550   2.458  0.9968 -1.4888  0.0977
 8702TIP3    H250302   4.693   1.412   2.412 -0.3689 -0.5341 -1.6400
 8703TIP3   OH250303   2.675   3.699   3.189 -0.9210 -0.0337 -0.7935
 8703TIP3    H150304   2.657   3.753   3.112 -0.6235 -0.1358 -0.9378
 8703TIP3    H250305   2.591   3.690   3.232 -1.0682  0.1257 -1.0435
 8704TIP3   OH250306   3.011   2.349   1.673  0.3760  0.1855 -0.3293
 8704TIP3    H150307   2.944   2.304   1.724 -2.0600  2.2964 -1.4393
 8704TIP3    H250308   2.979   2.347   1.583  3.5130 -1.6145 -1.5805
 8705TIP3   OH250309   5.783   1.757   1.088  0.0354 -0.3504 -0.5394
 8705TIP3    H150310   5.810   1.823   1.152  0.7111  0.5351 -1.6779
 8705TIP3    H250311   5.863   1.707   1.071  0.2255  0.2706 -1.6211
 8706TIP3   OH250312   5.407   1.792   1.522  0.0710 -0.0497 -0.3412
 8706TIP3    H150313   5.404   1.799   1.426  1.1502 -1.0207 -0.4607
 8706TIP3    H250314   5.377   1.703   1.540  0.3906 -0.0507  0.1909
 8707TIP3   OH250315   0.868   1.830   1.075  0.3777  0.0478  0.9229
 8707TIP3    H150316   0.802   1.881   1.027  0.1219 -0.2610  0.9463
 8707TIP3    H250317   0.927   1.797   1.007  0.9099  0.8840  0.9562
 8708TIP3   OH250318   3.334   5.321   4.129  0.0264 -0.0352 -0.3632
 8708TIP3    H150319   3.279   5.265   4.074  0.3775 -0.2408 -0.5107
 8708TIP3    H250320   3.414   5.270   4.142  0.4960  0.5824 -0.7903
 8709TIP3   OH250321   1.903   3.502   3.674  0.3844  0.2633 -0.3387
 8709TIP3    H150322   1.970   3.519   3.740  0.7811 -2.1129 -0.0081
 8709TIP3    H250323   1.952   3.467   3.599 -0.3502 -0.1689 -0.6311
 8710TIP3   OH250324   1.059   2.308   0.539  0.0732  0.2349 -0.3486
 8710TIP3    H150325   1.040   2.243   0.471  0.1306 -0.1865  0.0325
 8710TIP3    H250326   1.142   2.347   0.513  0.0636  0.1205 -0.5522
 8711TIP3   OH250327   2.210   4.456   0.744 -0.4100  0.1541  0.7451
 8711TIP3    H150328   2.126   4.442   0.787 -0.7448  1.9427  0.7560
 8711TIP3    H250329   2.187   4.489   0.657  0.2885 -0.8999  0.1329
 8712TIP3   OH250330   2.790   4.625   0.853  0.3607  0.0645 -0.4889
 8712TIP3    H150331   2.768   4.594   0.766  1.3377  0.5556 -0.9352
 8712TIP3    H250332   2.853   4.561   0.887  0.0100 -0.1077 -0.1509
 8713TIP3   OH250333   3.304   4.362   2.254  0.1636  0.7008  0.6038
 8713TIP3    H150334   3.336   4.438   2.206  0.2884  0.7499  0.7645
 8713TIP3    H250335   3.381   4.307   2.266 -0.2229 -0.2623 -0.9895
 8714TIP3   OH250336   5.846   2.082   3.529  0.6341 -0.5995 -0.1204
 8714TIP3    H150337   5.816   2.052   3.615  0.7119  0.1766  0.1909
 8714TIP3    H250338   5.930   2.125   3.547 -0.3915  1.5838 -0.1863
 8715TIP3   OH250339   0.741   4.285   3.300  0.1693 -0.5138  0.0581
 8715TIP3    H150340   0.833   4.281   3.271  0.4832  0.3708  0.8863
 8715TIP3    H250341   0.697   4.217   3.249  1.3865 -1.2921  0.0051
 8716TIP3   OH250342   3.759   6.275   2.528  0.1400  0.2475  0.8793
 8716TIP3    H150343   3.675   6.231   2.514 -0.1003  0.8563  0.3515
 8716TIP3    H250344   3.737   6.367   2.537  0.7638  0.4309  0.6103
 8717TIP3   OH250345   1.506   4.081   0.727 -0.0685  0.0828  0.4525
 8717TIP3    H150346   1.479   4.129   0.649  0.9080  1.5341  0.9691
 8717TIP3    H250347   1.445   4.006   0.731 -0.6379  0.4050 -1.2328
 8718TIP3   OH250348   6.758   2.852   2.191 -1.0168  0.0140 -0.0442
 8718TIP3    H150349   6.744   2.792   2.117 -0.7871  0.5345 -0.5190
 8718TIP3    H250350   6.747   2.940   2.153 -2.5919  0.2589  0.8947
 8719TIP3   OH250351   2.287   1.890   3.980 -0.1469 -0.5539  0.1519
 8719TIP3    H150352   2.332   1.902   4.064  0.8194  0.4199 -0.4785
 8719TIP3    H250353   2.332   1.818   3.938 -1.3927 -1.8423  0.9356
 8720TIP3   OH250354   2.042   1.902   1.053  0.1854 -0.3654  0.3974
 8720TIP3    H150355   2.044   1.853   1.135  0.0800  2.4903  2.2386
 8720TIP3    H250356   2.132   1.933   1.040  0.2226 -0.8585 -0.6348
 8721TIP3   OH250357   1.691   6.234   2.656  0.0885  0.2428  0.2532
 8721TIP3    H150358   1.731   6.229   2.569 -1.4463  1.4876 -0.5815
 8721TIP3    H250359   1.708   6.324   2.684  0.4032 -0.0967  1.1676
 8722TIP3   OH250360   2.350   4.669   2.544  0.0075  0.6663  0.3653
 8722TIP3    H150361   2.339   4.763   2.559  1.3155  1.0394 -0.7777
 8722TIP3    H250362   2.399   4.638   2.621  1.8975  1.4816 -0.4358
 8723TIP3   OH250363   5.715   2.629   0.965 -0.3358  0.2322 -0.1402
 8723TIP3    H150364   5.717   2.603   1.057  0.0494  0.3391 -0.1150
 8723TIP3    H250365   5.727   2.548   0.917  1.8445  0.4377 -0.0461
 8724TIP3   OH250366   5.843   4.301   1.012 -0.0225  0.2368 -0.5420
 8724TIP3    H150367   5.894   4.246   0.952  0.2959  0.1217 -0.1705
 8724TIP3    H250368   5.759   4.257   1.020  0.5136 -0.6724  0.4058
 8725TIP3   OH250369   1.958   4.692   1.293 -0.7474 -0.5482  0.8811
 8725TIP3    H150370   1.880   4.727   1.251 -0.0116  1.2712  0.9407
 8725TIP3    H250371   2.003   4.644   1.223 -1.7586 -1.3840  0.7842
 8726TIP3   OH250372   1.270   6.193   3.515 -0.1884 -0.5493 -0.5097
 8726TIP3    H150373   1.258   6.112   3.565 -1.8337 -0.0268 -0.0057
 8726TIP3    H250374   1.365   6.205   3.511  0.0522 -1.9927  0.2194
 8727TIP3   OH250375   3.389   6.680   1.509  0.1246  0.2545 -0.6744
 8727TIP3    H150376   3.310   6.722   1.543 -0.4763 -0.0861 -1.6039
 8727TIP3    H250377   3.445   6.669   1.585 -0.3261  1.3700 -0.1620
 8728TIP3   OH250378   3.491   1.778   3.577  0.0153  0.0038  0.1845
 8728TIP3    H150379   3.498   1.697   3.526 -1.5760  0.5200 -0.9113
 8728TIP3    H250380   3.560   1.834   3.542 -1.2919  0.4999 -1.7820
 8729TIP3   OH250381   3.680   4.097   0.805  0.3572  0.0500 -0.0823
 8729TIP3    H150382   3.649   4.150   0.879  0.1273 -1.3027  0.8144
 8729TIP3    H250383   3.606   4.040   0.784  0.8713 -0.4577 -0.5352
 8730TIP3   OH250384   0.834   2.733   3.684  0.1947  0.6624 -0.2122
 8730TIP3    H150385   0.852   2.659   3.625  0.7482 -1.2342  2.1691
 8730TIP3    H250386   0.859   2.810   3.633  1.2471 -0.8853 -2.2329
 8731TIP3   OH250387   4.621   4.489   0.998  0.4825  0.2839  0.2794
 8731TIP3    H150388   4.533   4.483   0.960 -0.8345  1.4248  2.9015
 8731TIP3    H250389   4.649   4.398   1.006 -0.6171 -0.1291 -0.2548
 8732TIP3   OH250390   3.789   3.419   1.761  0.1072 -0.1710 -0.1027
 8732TIP3    H150391   3.759   3.471   1.836  1.4525  0.6518 -0.1067
 8732TIP3    H250392   3.728   3.441   1.691 -1.9621 -1.9022  1.0224
 8733TIP3   OH250393   0.520   3.080   3.362  0.3703 -0.2156  0.2415
 8733TIP3    H150394   0.427   3.104   3.359  0.0842 -1.3720 -1.3252
 8733TIP3    H250395   0.564   3.160   3.391 -1.0675  0.4513  0.7068
 8734TIP3   OH250396   4.968   3.579   1.188  0.4489  0.2667 -0.3509
 8734TIP3    H150397   4.980   3.485   1.196  1.0900  0.4624  1.3595
 8734TIP3    H250398   5.039   3.608   1.130  3.6600  0.3142  3.2148
 8735TIP3   OH250399   1.465   2.801   1.751 -0.6855  0.4513 -0.1522
 8735TIP3    H150400   1.371   2.783   1.744 -0.1129 -2.3701 -3.7405
 8735TIP3    H250401   1.494   2.747   1.825 -1.3621 -2.1243 -1.6386
 8736TIP3   OH250402   1.120   0.472   0.924  0.1528 -0.5452 -0.2856
 8736TIP3    H150403   1.116   0.406   0.854  1.2732  0.3819 -1.2631
 8736TIP3    H250404   1.036   0.464   0.969 -0.4667 -1.3788 -1.5361
 8737TIP3   OH250405   2.064   5.476   1.097 -0.1654 -0.5651  0.1220
 8737TIP3    H150406   1.973   5.498   1.117  0.2735  0.9314  0.6039
 8737TIP3    H250407   2.109   5.485   1.180  0.4584 -1.1267 -0.1537
 8738TIP3   OH250408   1.012   0.292   1.404  0.2619  0.0370 -0.5724
 8738TIP3    H150409   0.949   0.223   1.423 -1.3099  1.2297 -1.2907
 8738TIP3    H250410   1.045   0.271   1.317  1.0159 -0.6640 -0.1399
 8739TIP3   OH250411   0.454   2.462   3.320  0.3130  0.2661  0.7129
 8739TIP3    H150412   0.501   2.507   3.391 -1.7677 -0.2396  2.5456
 8739TIP3    H250413   0.460   2.369   3.343  0.8545 -0.0634 -0.6458
 8740TIP3   OH250414   2.686   0.321   0.609 -0.5101  0.0793  0.0236
 8740TIP3    H150415   2.721   0.408   0.587 -2.8564  1.2159  0.4708
 8740TIP3    H250416   2.759   0.261   0.593  1.3552  2.1743  0.1632
 8741TIP3   OH250417   2.283   4.618   2.278 -0.3493 -0.1653 -0.0302
 8741TIP3    H150418   2.291   4.593   2.370 -0.0314 -0.8774 -0.2358
 8741TIP3    H250419   2.240   4.703   2.279 -1.7834 -0.8606  0.7161
 8742TIP3   OH250420   4.657   2.009   3.166  0.1386  1.2272 -0.4451
 8742TIP3    H150421   4.620   1.934   3.120  2.4847 -1.6656  1.9182
 8742TIP3    H250422   4.588   2.039   3.224  0.0625 -1.4781  1.0426
 8743TIP3   OH250423   0.758   6.706   0.986  0.3321  0.5122 -0.2696
 8743TIP3    H150424   0.717   6.788   0.959  1.2947  0.5702 -1.6491
 8743TIP3    H250425   0.706   6.638   0.945 -1.7477  0.2201  2.5326
 8744TIP3   OH250426   0.451   1.306   1.348  0.2313 -0.4028 -0.2769
 8744TIP3    H150427   0.451   1.398   1.325 -0.7273  0.3032  2.2013
 8744TIP3    H250428   0.360   1.278   1.335  0.2315 -0.6358  0.2037
 8745TIP3   OH250429   6.110   4.608   2.957  0.5425 -0.4215 -0.4463
 8745TIP3    H150430   6.149   4.694   2.945 -3.9751  2.1149  0.7200
 8745TIP3    H250431   6.118   4.591   3.051  0.1980 -0.5693 -0.4406
 8746TIP3   OH250432   2.784   6.511   2.172  0.4413  0.2549  0.0014
 8746TIP3    H150433   2.708   6.468   2.212  1.5551 -1.0227  0.8773
 8746TIP3    H250434   2.859   6.470   2.216  1.6183  1.9299 -0.3753
 8747TIP3   OH250435   0.831   5.070   0.606  0.3768  0.1783 -0.0259
 8747TIP3    H150436   0.791   5.129   0.669  0.0260  0.7736 -0.7905
 8747TIP3    H250437   0.843   4.988   0.654  2.1268  1.2306  1.4753
 8748TIP3   OH250438   4.715   1.731   0.672  0.2999  0.8654 -0.3809
 8748TIP3    H150439   4.650   1.704   0.607  0.7820 -2.2285  0.2401
 8748TIP3    H250440   4.665   1.739   0.754  0.3400  0.5630 -0.3237
 8749TIP3   OH250441   4.713   5.709   2.243 -0.2589  0.1395  0.1106
 8749TIP3    H150442   4.646   5.765   2.204 -0.4547  1.3233  1.9990
 8749TIP3    H250443   4.664   5.648   2.298  0.1147  2.1010  2.8838
 8750TIP3   OH250444   5.506   0.090   3.468 -0.1694  0.1024 -0.1620
 8750TIP3    H150445   5.579   0.144   3.438 -1.5357  3.3935  1.9979
 8750TIP3    H250446   5.548   0.017   3.514  1.8180  1.7902  0.8597
 8751TIP3   OH250447   6.204   6.589   1.778 -0.1784  0.2410 -0.2682
 8751TIP3    H150448   6.254   6.651   1.832  2.9982 -1.5527 -0.9097
 8751TIP3    H250449   6.176   6.521   1.840  1.8963 -0.8780 -0.4697
 8752TIP3   OH250450   4.514   2.920   2.263  0.5500 -0.6509 -0.1571
 8752TIP3    H150451   4.502   2.910   2.358 -0.4659  0.7688 -0.1017
 8752TIP3    H250452   4.479   3.007   2.244 -0.2073 -1.3050 -1.9970
 8753TIP3   OH250453   0.123   5.587   1.293  0.0445 -0.6346 -0.5486
 8753TIP3    H150454   0.085   5.524   1.354  0.5617 -0.5000 -0.0810
 8753TIP3    H250455   0.050   5.614   1.237 -0.7563  0.2549  0.8772
 8754TIP3   OH250456   5.794   0.144   3.354  0.0421  0.0615 -0.1204
 8754TIP3    H150457   5.858   0.155   3.424  0.7711 -1.0349 -0.5954
 8754TIP3    H250458   5.820   0.063   3.310 -0.2788  0.8430 -1.7988
 8755TIP3   OH250459   0.316   6.683   2.473 -0.0817  0.8721  0.2449
 8755TIP3    H150460   0.283   6.601   2.435 -0.5876  1.1593  0.0591
 8755TIP3    H250461   0.407   6.663   2.496 -0.2846  0.1649  0.4768
 8756TIP3   OH250462   6.762   6.475   2.276  0.0363  0.1560 -0.8826
 8756TIP3    H150463   6.856   6.494   2.276  0.7306 -2.4310 -4.2067
 8756TIP3    H250464   6.748   6.425   2.356  1.1954  1.4140  0.1699
 8757TIP3   OH250465   6.152   1.331   2.100 -0.3390  0.6984  0.2728
 8757TIP3    H150466   6.237   1.354   2.062 -0.6367  1.8873  0.2670
 8757TIP3    H250467   6.141   1.394   2.172 -1.9356  1.6705 -0.7597
 8758TIP3   OH250468   5.381   0.899   2.732 -0.3858 -0.2848 -0.1387
 8758TIP3    H150469   5.293   0.862   2.723 -0.6142 -0.0442  0.9480
 8758TIP3    H250470   5.431   0.829   2.774 -0.3917  0.0366  0.4066
 8759TIP3   OH250471   0.018   3.723   1.896  0.6606 -0.2133  0.1775
 8759TIP3    H150472   0.111   3.740   1.911  0.8458 -2.5162  2.4307
 8759TIP3    H250473   0.015   3.635   1.859 -0.5820  0.6791 -2.0013
 8760TIP3   OH250474   3.577   3.142   0.513  0.7679  0.2007 -0.6525
 8760TIP3    H150475   3.584   3.082   0.587 -1.4263  0.4132 -0.1913
 8760TIP3    H250476   3.634   3.215   0.536 -0.5043  0.6742  1.3287
 8761TIP3   OH250477   1.097   0.233   1.902 -0.2003 -0.1505 -0.1940
 8761TIP3    H150478   1.186   0.212   1.874 -0.2074  1.0027 -1.1679
 8761TIP3    H250479   1.099   0.326   1.921 -1.0186 -0.2695  0.5310
 8762TIP3   OH250480   6.532   2.742   1.248  0.0336 -0.4267  0.2647
 8762TIP3    H150481   6.543   2.748   1.153 -0.0045  0.8603  0.3326
 8762TIP3    H250482   6.437   2.746   1.262  0.1032  3.7526  0.5627
 8763TIP3   OH250483   5.577   4.237   1.951 -0.0286  0.1389 -0.4485
 8763TIP3    H150484   5.565   4.149   1.916  2.3691 -0.2677 -0.3979
 8763TIP3    H250485   5.642   4.277   1.894  0.1882  1.2500  0.5458
 8764TIP3   OH250486   3.397   4.731   8.891  0.8174 -0.9310 -0.1283
 8764TIP3    H150487   3.322   4.671   8.896  1.4371 -1.6692  0.5701
 8764TIP3    H250488   3.390   4.785   8.970 -0.4310  0.7993 -1.3527
 8765TIP3   OH250489   5.054   6.098   3.713 -0.3612 -0.0493 -0.5096
 8765TIP3    H150490   4.969   6.056   3.703 -0.0886 -0.3892 -1.4698
 8765TIP3    H250491   5.117   6.026   3.709  0.0392  0.3223 -0.9830
 8766TIP3   OH250492   4.554   6.030   3.481  0.5164  0.0770 -0.2940
 8766TIP3    H150493   4.537   6.123   3.467 -0.9135 -0.2458 -0.8849
 8766TIP3    H250494   4.549   5.991   3.394 -0.4458 -0.7557  0.1058
 8767TIP3   OH250495   5.647   5.282   2.654  0.4501  0.4076  0.3184
 8767TIP3    H150496   5.732   5.319   2.630 -0.9944  3.0729 -1.1793
 8767TIP3    H250497   5.645   5.197   2.609  1.0753  1.7448 -2.4607
 8768TIP3   OH250498   2.754   2.380   2.310 -0.6548 -0.1324  0.2898
 8768TIP3    H150499   2.661   2.361   2.296 -0.4849 -0.7131 -0.0723
 8768TIP3    H250500   2.796   2.353   2.229 -0.1679  0.1328  0.4528
 8769TIP3   OH250501   2.621   3.099   3.000 -0.0217  0.0755  0.4863
 8769TIP3    H150502   2.603   3.023   2.945 -0.8922  0.8503 -0.3303
 8769TIP3    H250503   2.663   3.062   3.078 -0.4040 -1.2346  0.1066
 8770TIP3   OH250504   1.510   4.029   1.116  0.1750 -0.4657  0.2334
 8770TIP3    H150505   1.597   4.056   1.086  0.2776  0.4317  1.2582
 8770TIP3    H250506   1.450   4.069   1.053  0.4407  0.3405  0.4771
 8771TIP3   OH250507   0.686   4.535   2.557 -0.5649 -0.8115  0.0427
 8771TIP3    H150508   0.639   4.522   2.474 -1.9920 -0.8675  0.8183
 8771TIP3    H250509   0.652   4.618   2.590 -0.1749 -0.9011  0.6777
 8772TIP3   OH250510   2.554   3.804   1.997  0.0259  0.4447  0.0527
 8772TIP3    H150511   2.516   3.889   1.978  1.8239  1.7582  1.9305
 8772TIP3    H250512   2.529   3.786   2.088 -0.0271 -0.8560 -0.2010
 8773TIP3   OH250513   2.192   5.902   1.683  0.9212  0.0534 -0.0455
 8773TIP3    H150514   2.132   5.924   1.754 -0.8387  1.3305 -1.7982
 8773TIP3    H250515   2.213   5.810   1.697 -1.4857 -0.4638  0.6834
 8774TIP3   OH250516   5.492   5.696   0.636 -0.1029 -0.4631  0.1684
 8774TIP3    H150517   5.407   5.739   0.625 -0.4881 -0.8725  1.4364
 8774TIP3    H250518   5.472   5.602   0.636  0.3827 -0.5686  0.2316
 8775TIP3   OH250519   4.848   5.421   2.397  0.6417 -0.0593  0.1176
 8775TIP3    H150520   4.925   5.388   2.442 -1.4611 -2.6857  2.0621
 8775TIP3    H250521   4.812   5.488   2.455  1.5140  1.3716 -0.9195
 8776TIP3   OH250522   6.051   6.463  11.152  0.3615  0.2982 -0.2538
 8776TIP3    H150523   6.095   6.414  11.222  0.0720  0.5924  0.1404
 8776TIP3    H250524   6.102   6.544  11.143  0.8424 -0.0668 -0.9067
 8777TIP3   OH250525   0.220   5.617   2.495 -0.7760  0.7445  0.3099
 8777TIP3    H150526   0.131   5.621   2.459 -0.4482  0.0121 -0.6012
 8777TIP3    H250527   0.225   5.532   2.539  0.3944 -0.5841 -2.2088
 8778TIP3   OH250528   1.674   4.051   4.632  0.3243  0.1539  0.1739
 8778TIP3    H150529   1.630   4.013   4.708  0.9773 -1.4130 -0.1951
 8778TIP3    H250530   1.620   4.024   4.558  1.5492 -1.3207 -0.2320
 8779TIP3   OH250531   4.484   0.511   0.902  0.1945 -0.1311  0.0566
 8779TIP3    H150532   4.541   0.437   0.923  0.0434 -1.5488 -3.7525
 8779TIP3    H250533   4.398   0.486   0.935  0.2647 -1.4656 -0.7010
 8780TIP3   OH250534   6.533   1.641   3.991  0.4117  0.2005  0.2079
 8780TIP3    H150535   6.453   1.644   4.044  0.2628 -3.0019  0.3561
 8780TIP3    H250536   6.598   1.600   4.049  0.9907 -0.8997 -1.1571
 8781TIP3   OH250537   2.224   4.646   0.531 -0.0286  0.4174 -0.3516
 8781TIP3    H150538   2.238   4.665   0.439  0.6071  0.3545 -0.2743
 8781TIP3    H250539   2.304   4.676   0.574 -1.2061  2.5382  0.4961
 8782TIP3   OH250540   4.295   2.219   1.292 -0.4298 -0.5376 -0.3365
 8782TIP3    H150541   4.278   2.312   1.305 -1.6790 -0.8347  0.3311
 8782TIP3    H250542   4.389   2.213   1.278 -0.4800  0.9431 -1.5068
 8783TIP3   OH250543   3.877   5.528   0.856 -0.7546  0.0801 -0.1843
 8783TIP3    H150544   3.887   5.623   0.866 -0.7494  0.0332  0.2930
 8783TIP3    H250545   3.804   5.506   0.914  1.1109 -0.6218  2.0852
 8784TIP3   OH250546   0.940   6.254   3.006 -0.4157 -0.8748 -0.0274
 8784TIP3    H150547   1.030   6.276   3.030 -0.2491 -0.3490 -1.0837
 8784TIP3    H250548   0.946   6.167   2.967 -0.4289 -1.0093  0.2683
 8785TIP3   OH250549   6.628   1.002   1.196 -0.5579  0.3670 -0.4339
 8785TIP3    H150550   6.629   1.029   1.104 -1.9693  0.6752 -0.3865
 8785TIP3    H250551   6.697   1.054   1.237 -0.5617  0.9385 -1.1383
 8786TIP3   OH250552   4.644   4.708   2.306 -0.3759  0.0319 -0.1397
 8786TIP3    H150553   4.597   4.640   2.258  0.4692 -0.1226 -0.7843
 8786TIP3    H250554   4.736   4.698   2.278  0.0425  0.3312  1.0633
 8787TIP3   OH250555   3.446   0.039   2.372  0.2756 -0.5170  0.2703
 8787TIP3    H150556   3.402  -0.039   2.405 -0.5195 -1.1294 -2.0289
 8787TIP3    H250557   3.526   0.006   2.331  0.6927  0.0657  0.6021
 8788TIP3   OH250558   6.210   0.258   3.343 -0.3505 -0.2359 -0.4008
 8788TIP3    H150559   6.175   0.190   3.400 -0.6956  0.6337  0.4677
 8788TIP3    H250560   6.174   0.239   3.257 -2.1854  0.0447  0.2567
 8789TIP3   OH250561   1.505   3.072   1.119  0.7499  0.3618  0.2715
 8789TIP3    H150562   1.474   3.052   1.207  0.5358 -0.5915 -0.0039
 8789TIP3    H250563   1.543   3.159   1.126 -0.3990  0.8273  1.0194
 8790TIP3   OH250564   2.137   1.764   2.359 -0.4849  0.8445  0.5379
 8790TIP3    H150565   2.184   1.840   2.393  1.2907  0.0483  0.0151
 8790TIP3    H250566   2.164   1.759   2.267 -1.6270  0.3414  0.2172
 8791TIP3   OH250567   3.849   1.978   3.051  0.0617 -0.0888 -0.5240
 8791TIP3    H150568   3.942   1.979   3.028  0.8371  0.4610  2.3022
 8791TIP3    H250569   3.805   2.014   2.973  2.1940 -0.1842 -1.8538
 8792TIP3   OH250570   0.622   6.138   2.429  0.6311  0.0872 -0.3591
 8792TIP3    H150571   0.536   6.154   2.467  0.4305 -0.2359 -0.6738
 8792TIP3    H250572   0.606   6.078   2.357  1.3037 -1.2787  0.5771
 8793TIP3   OH250573   6.838   5.348   1.665  0.0578 -0.2915 -0.6311
 8793TIP3    H150574   6.828   5.354   1.760 -0.4687 -0.7303 -0.6511
 8793TIP3    H250575   6.811   5.435   1.633  0.0614 -0.2002 -0.3909
 8794TIP3   OH250576   6.691   2.605   1.437 -1.0070  0.1039  0.2190
 8794TIP3    H150577   6.751   2.553   1.384 -1.0967  1.1769 -0.9934
 8794TIP3    H250578   6.661   2.675   1.378  0.1402  2.3233  2.1023
 8795TIP3   OH250579   0.618   5.865   0.752  0.0746 -0.1513 -0.4724
 8795TIP3    H150580   0.593   5.810   0.826 -0.7140 -0.8095 -1.2164
 8795TIP3    H250581   0.699   5.826   0.719  1.3342  1.0890  1.0009
 8796TIP3   OH250582   2.362   6.404   2.003 -0.0632 -0.1111  0.2605
 8796TIP3    H150583   2.319   6.483   2.035  0.6911  0.3342  0.2132
 8796TIP3    H250584   2.293   6.354   1.960 -0.3957  0.8899 -0.3974
 8797TIP3   OH250585   6.276   2.353   0.932 -0.4261 -0.2140  0.4421
 8797TIP3    H150586   6.252   2.335   1.023  1.3799  1.6372  1.3707
 8797TIP3    H250587   6.244   2.442   0.916  0.8046  0.1527 -0.1203
 8798TIP3   OH250588   2.594   0.750   1.941 -0.3405  0.2337  0.6905
 8798TIP3    H150589   2.632   0.809   1.876 -1.0047  1.8693  1.7145
 8798TIP3    H250590   2.532   0.695   1.892  2.0811 -1.4023 -0.7141
 8799TIP3   OH250591   4.436   4.564   0.776 -0.3888 -0.0173 -0.1418
 8799TIP3    H150592   4.407   4.574   0.685 -2.9500 -0.7321  0.5132
 8799TIP3    H250593   4.358   4.533   0.823  0.8378  0.3758  2.3259
 8800TIP3   OH250594   2.493   5.029   3.785  0.4301  0.0251 -0.0956
 8800TIP3    H150595   2.492   4.940   3.750 -0.2707 -0.4344  1.0215
 8800TIP3    H250596   2.470   5.018   3.877  1.1666  1.2897  0.2598
 8801TIP3   OH250597   2.349   4.399   1.424  0.1424 -0.3376  0.3422
 8801TIP3    H150598   2.432   4.405   1.376  0.0433 -1.8221 -0.0723
 8801TIP3    H250599   2.353   4.314   1.469 -0.9254 -0.2004  0.7291
 8802TIP3   OH250600   4.829   5.440   2.126  0.7803  0.3963 -0.6936
 8802TIP3    H150601   4.842   5.423   2.219  0.1061 -0.5915 -0.7655
 8802TIP3    H250602   4.841   5.534   2.117 -0.6694  0.7348  0.6606
 8803TIP3   OH250603   2.971   0.324   3.574 -0.1963 -0.6549  0.0073
 8803TIP3    H150604   3.014   0.338   3.658 -0.4973  2.4101 -0.2396
 8803TIP3    H250605   3.032   0.359   3.509 -0.9458 -0.8780 -0.8427
 8804TIP3   OH250606   2.863   2.033   1.398 -0.0280  0.3478 -0.5298
 8804TIP3    H150607   2.918   1.967   1.356  0.3249 -0.2710  0.8609
 8804TIP3    H250608   2.872   2.110   1.342  1.2855 -0.1207 -1.0107
 8805TIP3   OH250609   5.978   3.669   2.488  0.5782 -0.7178  0.3215
 8805TIP3    H150610   5.924   3.590   2.495  1.5702 -1.4671 -0.1925
 8805TIP3    H250611   5.924   3.739   2.524 -0.4280 -1.5855  0.5291
 8806TIP3   OH250612   5.791   4.398   2.776  0.1297  0.1940  0.0447
 8806TIP3    H150613   5.797   4.450   2.856 -0.0264  0.5797 -0.1931
 8806TIP3    H250614   5.841   4.447   2.711 -0.9824  0.6468 -0.4929
 8807TIP3   OH250615   3.360   0.500   2.745 -0.3104  0.2403 -0.5052
 8807TIP3    H150616   3.395   0.420   2.706 -0.0297 -0.1836  0.5570
 8807TIP3    H250617   3.360   0.482   2.839 -0.0113  1.5826 -0.2248
 8808TIP3   OH250618   2.342   4.925   0.758 -0.3159 -0.6536 -0.2126
 8808TIP3    H150619   2.261   4.976   0.762  0.1940  0.3357 -1.7542
 8808TIP3    H250620   2.373   4.921   0.849 -1.9692 -0.8981  0.3715
 8809TIP3   OH250621   2.007   2.978   3.485  0.5997  0.2068 -0.2284
 8809TIP3    H150622   1.947   2.963   3.412  0.1918 -0.9511  0.3156
 8809TIP3    H250623   1.951   3.008   3.557  1.1133  2.2418 -0.6165
 8810TIP3   OH250624   3.711   5.237   2.926 -0.4729 -0.1023  0.5235
 8810TIP3    H150625   3.720   5.299   2.853 -0.8575  0.0019  0.5631
 8810TIP3    H250626   3.651   5.280   2.986  0.8136  0.3887  1.5206
 8811TIP3   OH250627   4.071   3.400   1.771 -0.3862 -0.5399 -0.5886
 8811TIP3    H150628   4.082   3.488   1.806 -1.7892 -0.6090  0.0968
 8811TIP3    H250629   3.980   3.398   1.740 -0.3146 -1.6782 -0.7538
 8812TIP3   OH250630   2.882   0.073   1.885  0.0394  0.0981  0.2704
 8812TIP3    H150631   2.858  -0.006   1.933  0.2223  0.2678  0.6478
 8812TIP3    H250632   2.974   0.061   1.862  0.9565  1.4050  2.8318
 8813TIP3   OH250633   6.605   0.679   2.687  0.2063  0.2187  0.2496
 8813TIP3    H150634   6.661   0.698   2.613 -1.9605 -1.1475 -1.8852
 8813TIP3    H250635   6.517   0.707   2.659 -0.8353 -1.0503  1.9819
 8814TIP3   OH250636   2.045   4.997   3.664  0.1296  0.3670 -0.4648
 8814TIP3    H150637   2.029   5.071   3.605  1.4721  0.1796 -1.0960
 8814TIP3    H250638   2.135   4.971   3.646 -0.3415 -1.5141 -0.3444
 8815TIP3   OH250639   1.597   3.709   3.333  0.2965 -0.0098 -0.3458
 8815TIP3    H150640   1.623   3.632   3.282 -0.8414  1.0095 -2.5995
 8815TIP3    H250641   1.655   3.779   3.302  0.2207  0.4271  0.4787
 8816TIP3   OH250642   3.536   2.513   1.716 -0.0630  0.1154  0.4308
 8816TIP3    H150643   3.458   2.468   1.682 -0.0820  0.7757 -0.4270
 8816TIP3    H250644   3.604   2.446   1.712 -0.1405  0.0757 -0.6349
 8817TIP3   OH250645   5.202   1.864   1.972 -0.4279  0.0273  0.5352
 8817TIP3    H150646   5.200   1.946   2.021  1.9806  0.2149  0.3990
 8817TIP3    H250647   5.265   1.878   1.902  2.6162 -2.8933  2.4179
 8818TIP3   OH250648   2.702   3.614   1.872 -0.2711 -0.1903  0.3990
 8818TIP3    H150649   2.634   3.550   1.891 -1.4447  0.5382 -1.1047
 8818TIP3    H250650   2.666   3.698   1.902 -1.2584  0.6278 -2.6716
 8819TIP3   OH250651   0.768   1.998   0.871  0.0047  0.2139  0.1536
 8819TIP3    H150652   0.790   2.057   0.944  0.7657 -1.1368  1.0645
 8819TIP3    H250653   0.845   1.999   0.815  0.8843 -1.4221  1.2422
 8820TIP3   OH250654   5.286   2.312   1.345 -0.3585 -0.2733  0.2584
 8820TIP3    H150655   5.280   2.407   1.341  1.9276 -0.0811 -0.0934
 8820TIP3    H250656   5.256   2.289   1.433 -2.4014  0.5672 -0.1618
 8821TIP3   OH250657   1.409   4.921   0.690  0.1773  0.0875  0.4998
 8821TIP3    H150658   1.329   4.907   0.640 -0.5043 -1.1194  1.8555
 8821TIP3    H250659   1.382   4.916   0.782  1.7834 -0.2706  0.9974
 8822TIP3   OH250660   6.295   0.384   2.890 -0.3811  0.0440  0.2073
 8822TIP3    H150661   6.211   0.424   2.867 -0.5848 -0.6470 -0.2563
 8822TIP3    H250662   6.360   0.446   2.858 -0.6755 -0.3671 -1.2692
 8823TIP3   OH250663   2.506   0.200   0.830 -0.2265 -0.6335 -0.1061
 8823TIP3    H150664   2.517   0.248   0.748 -1.4528  1.6502  0.9756
 8823TIP3    H250665   2.583   0.224   0.882  0.3534 -1.7741 -0.3944
 8824TIP3   OH250666   1.883   4.839   2.290 -0.3141 -0.6252  0.5121
 8824TIP3    H150667   1.966   4.804   2.321 -0.7485 -0.6547  1.6763
 8824TIP3    H250668   1.885   4.824   2.195  1.9230  1.2852  0.1387
 8825TIP3   OH250669   5.731   6.495   0.871 -0.0089 -0.0931  0.5999
 8825TIP3    H150670   5.761   6.585   0.885 -0.0769 -0.1593  1.1867
 8825TIP3    H250671   5.811   6.443   0.865  0.0183 -0.0869  0.9087
 8826TIP3   OH250672   4.377   2.600   1.737 -0.1654 -0.3970  0.2058
 8826TIP3    H150673   4.336   2.677   1.775 -0.9998 -0.7623  0.0521
 8826TIP3    H250674   4.456   2.587   1.790 -1.3361 -0.9540  1.9042
 8827TIP3   OH250675   0.364   2.168   4.013 -0.2605 -0.2349  0.0955
 8827TIP3    H150676   0.343   2.221   3.936 -1.6811 -0.2944  0.4208
 8827TIP3    H250677   0.288   2.112   4.025  0.4873 -1.1147  0.8082
 8828TIP3   OH250678   6.337   2.135   3.311  0.1928 -0.4949 -0.2723
 8828TIP3    H150679   6.418   2.118   3.360  0.5725 -1.7388 -1.2812
 8828TIP3    H250680   6.267   2.104   3.369  0.4832 -0.0823  0.3084
 8829TIP3   OH250681   0.295   5.019   2.745  0.7660 -0.3460  0.2715
 8829TIP3    H150682   0.211   5.021   2.791  0.8830  2.8043  0.6128
 8829TIP3    H250683   0.273   5.003   2.654 -0.1311 -0.2667  0.4668
 8830TIP3   OH250684   3.890   0.014   1.206 -0.1502 -0.1689 -0.0346
 8830TIP3    H150685   3.835  -0.062   1.186 -0.7537  0.0037  0.8777
 8830TIP3    H250686   3.965  -0.022   1.254 -1.6602 -0.0030  2.6718
 8831TIP3   OH250687   1.426   3.996   3.448  0.2665  0.4294  0.2122
 8831TIP3    H150688   1.392   4.058   3.513  1.1078 -0.9696  2.0400
 8831TIP3    H250689   1.358   3.995   3.380 -0.5306  2.1019  0.9047
 8832TIP3   OH250690   3.925   0.859   0.773 -0.8569  0.0094 -0.4493
 8832TIP3    H150691   3.897   0.932   0.828 -0.4258 -1.7831  2.3027
 8832TIP3    H250692   4.019   0.851   0.789 -0.5263 -0.0250 -2.1865
 8833TIP3   OH250693   1.767   3.540   3.200  0.1107  0.4849  0.0142
 8833TIP3    H150694   1.807   3.516   3.117 -0.0689  2.2901 -0.6187
 8833TIP3    H250695   1.841   3.555   3.259  0.2709 -3.1616  1.0049
 8834TIP3   OH250696   1.995   1.469   4.702  0.2406 -0.0149 -0.0492
 8834TIP3    H150697   1.979   1.393   4.759  1.1415 -0.7007 -0.6850
 8834TIP3    H250698   1.938   1.455   4.627  0.4084 -0.0503 -0.1675
 8835TIP3   OH250699   1.456   5.822   2.943 -0.4360 -0.1905  1.0457
 8835TIP3    H150700   1.374   5.861   2.972 -1.0699 -1.4223  0.9464
 8835TIP3    H250701   1.431   5.743   2.895  0.8195 -1.0657  1.7413
 8836TIP3   OH250702   1.430   6.410   3.688 -0.1272 -0.0482  0.1539
 8836TIP3    H150703   1.401   6.365   3.767  0.4673  0.2049  0.5223
 8836TIP3    H250704   1.441   6.341   3.623  0.7582 -0.4521  0.7093
 8837TIP3   OH250705   2.126   4.916   1.256  0.1315  0.0443  0.1246
 8837TIP3    H150706   2.059   4.849   1.265  0.0916  0.0809  0.1031
 8837TIP3    H250707   2.079   4.999   1.269  0.3268  0.0337  0.9642
 8838TIP3   OH250708   2.537   1.383   1.484 -0.0544  0.0496 -0.2466
 8838TIP3    H150709   2.550   1.291   1.457 -3.1430 -0.3602 -0.6684
 8838TIP3    H250710   2.509   1.427   1.404 -0.2418  0.9676  0.3182
 8839TIP3   OH250711   3.087   1.587   2.930 -0.0812 -0.3432 -0.5773
 8839TIP3    H150712   3.121   1.667   2.890  2.3596 -0.3498  1.2122
 8839TIP3    H250713   3.064   1.613   3.020 -1.0030 -1.2872 -0.5146
 8840TIP3   OH250714   4.254   4.525   3.558 -1.1808 -0.1906 -0.4653
 8840TIP3    H150715   4.175   4.551   3.606 -1.1836  1.5461 -1.3126
 8840TIP3    H250716   4.242   4.563   3.470  0.6144  0.2031 -0.5912
 8841TIP3   OH250717   4.277   1.741   2.431 -0.0267 -0.2755  0.0951
 8841TIP3    H150718   4.263   1.830   2.397 -0.7764 -1.1496 -2.1145
 8841TIP3    H250719   4.361   1.714   2.394  0.3558 -0.3991  1.0209
 8842TIP3   OH250720   0.685   2.496   0.972 -0.1836 -0.2762  0.4831
 8842TIP3    H150721   0.657   2.581   1.006  0.1513 -1.3784  3.8915
 8842TIP3    H250722   0.778   2.508   0.953 -0.5811  0.6179 -1.0824
 8843TIP3   OH250723   0.855   3.577   1.538 -0.7343  0.0796  0.0745
 8843TIP3    H150724   0.899   3.600   1.620  0.2658  0.3534 -0.5181
 8843TIP3    H250725   0.763   3.567   1.562 -0.8522  2.3841  0.8248
 8844TIP3   OH250726   4.826   5.059   1.405 -0.5237  0.2019  0.2185
 8844TIP3    H150727   4.893   5.075   1.339 -1.4132 -2.4392 -1.4994
 8844TIP3    H250728   4.869   5.002   1.469 -0.2090  1.2583  0.9824
 8845TIP3   OH250729   4.244   4.505   2.829  0.3200 -0.0391  0.2136
 8845TIP3    H150730   4.191   4.485   2.751 -0.4791  0.9248  0.4893
 8845TIP3    H250731   4.334   4.490   2.801  0.0070 -0.2661 -0.7229
 8846TIP3   OH250732   5.445   2.465   1.915 -0.4618  0.2396 -0.6471
 8846TIP3    H150733   5.396   2.448   1.995  0.3760 -1.7447 -0.5134
 8846TIP3    H250734   5.383   2.449   1.845 -0.4662 -0.7057 -0.4410
 8847TIP3   OH250735   3.189   5.175   1.153  0.3781  0.1765  0.0200
 8847TIP3    H150736   3.132   5.251   1.158  1.2035  0.7828  0.3764
 8847TIP3    H250737   3.129   5.100   1.145 -0.5194  0.6623  1.8378
 8848TIP3   OH250738   1.742   6.340   3.089  0.2390 -0.4792 -0.3736
 8848TIP3    H150739   1.774   6.307   3.174  1.4278 -0.5433 -0.8263
 8848TIP3    H250740   1.761   6.434   3.091 -1.0725 -0.1989 -0.0022
 8849TIP3   OH250741   3.160   0.039   1.781 -0.2368  0.0483 -0.2975
 8849TIP3    H150742   3.176   0.116   1.726  0.2264  0.1244 -0.0554
 8849TIP3    H250743   3.247   0.005   1.801 -0.4070 -0.0805  0.2441
 8850TIP3   OH250744   5.569   0.278   2.474 -0.5990  0.1924  0.2330
 8850TIP3    H150745   5.523   0.253   2.394 -1.2176 -2.1615  1.2324
 8850TIP3    H250746   5.661   0.263   2.454 -0.5134  1.8118 -0.7302
 8851TIP3   OH250747   1.731   0.387   1.516 -0.5485 -0.1633  0.2738
 8851TIP3    H150748   1.815   0.432   1.506  0.5661 -2.1960  0.0368
 8851TIP3    H250749   1.722   0.374   1.610 -0.5135 -0.1022  0.2856
 8852TIP3   OH250750   4.549   4.549   2.991  0.5962 -0.1699  0.3007
 8852TIP3    H150751   4.595   4.556   3.075  2.9942 -0.0324 -0.9507
 8852TIP3    H250752   4.611   4.505   2.933 -0.4999  0.8277 -1.7438
 8853TIP3   OH250753   1.368   1.697   3.212  0.3087 -0.3428  0.4157
 8853TIP3    H150754   1.313   1.727   3.285 -0.4225  1.4902 -0.8114
 8853TIP3    H250755   1.436   1.765   3.204 -0.5187  0.3355 -1.5191
 8854TIP3   OH250756   6.232   1.554   3.253  0.5393  0.3063  0.5080
 8854TIP3    H150757   6.286   1.559   3.175 -1.9832 -0.4717 -1.4463
 8854TIP3    H250758   6.263   1.625   3.309  1.4109  1.9825 -1.9384
 8855TIP3   OH250759   4.742   1.220   2.990  0.1091 -0.0358  0.0366
 8855TIP3    H150760   4.707   1.166   3.061 -1.0313  2.0304  1.1501
 8855TIP3    H250761   4.665   1.268   2.958  1.0925  1.0284 -0.7804
 8856TIP3   OH250762   4.258   1.233   0.577  0.2118 -0.5523 -0.0731
 8856TIP3    H150763   4.163   1.234   0.590  0.1451  2.7256 -0.0287
 8856TIP3    H250764   4.294   1.231   0.666  0.1501 -0.4875 -0.0465
 8857TIP3   OH250765   0.733   6.162   0.624 -0.8831  0.0540  0.3201
 8857TIP3    H150766   0.678   6.240   0.631 -0.5950  0.3281 -0.3667
 8857TIP3    H250767   0.687   6.106   0.562  0.0589  0.6977 -1.0159
 8858TIP3   OH250768   3.849   6.504   2.309  0.4257 -0.2758  0.3488
 8858TIP3    H150769   3.920   6.507   2.373  1.0280  0.2109 -0.3253
 8858TIP3    H250770   3.843   6.411   2.285  0.7436 -0.3416  0.5150
 8859TIP3   OH250771   0.258   1.074   2.671  0.1143  0.4610 -0.2784
 8859TIP3    H150772   0.337   1.024   2.690  0.6706  1.5100  0.2658
 8859TIP3    H250773   0.279   1.121   2.590 -0.9826 -1.3411 -1.6910
 8860TIP3   OH250774   1.986   5.711   1.319 -0.6512 -0.6779 -0.2693
 8860TIP3    H150775   1.952   5.776   1.258 -1.9192  1.4133  2.4556
 8860TIP3    H250776   1.992   5.757   1.403  2.7694 -2.8264  0.9098
 8861TIP3   OH250777   3.220   0.275   0.931  0.1685 -0.7041 -0.3757
 8861TIP3    H150778   3.149   0.338   0.920  1.9190  1.5241  0.5332
 8861TIP3    H250779   3.215   0.249   1.023  0.7823 -0.2037 -0.1972
 8862TIP3   OH250780   1.124   1.284   0.966 -0.0802  0.1417  0.4218
 8862TIP3    H150781   1.141   1.194   0.939 -1.0840  0.4181 -1.2615
 8862TIP3    H250782   1.049   1.278   1.025  0.4662 -0.2095  1.0886
 8863TIP3   OH250783   4.707   5.928   3.242 -0.0122 -0.0469  0.2031
 8863TIP3    H150784   4.711   5.861   3.311 -0.8996 -1.6791 -1.2631
 8863TIP3    H250785   4.791   5.919   3.197  0.6162  1.1009  1.0976
 8864TIP3   OH250786   2.520   2.384   2.489 -0.2406 -0.3619  0.3007
 8864TIP3    H150787   2.601   2.386   2.540  0.3258 -0.8643 -0.5470
 8864TIP3    H250788   2.513   2.472   2.451  1.5044 -1.1282 -1.9952
 8865TIP3   OH250789   3.315   5.295   1.535 -0.1910  0.7006  0.0529
 8865TIP3    H150790   3.383   5.313   1.469 -0.6051  0.3708 -0.4773
 8865TIP3    H250791   3.273   5.215   1.504  1.1864 -0.8865  2.0159
 8866TIP3   OH250792   4.962   0.446   2.447 -0.5790 -0.4894  0.0835
 8866TIP3    H150793   4.873   0.474   2.468  0.4536  1.7002  1.9810
 8866TIP3    H250794   4.977   0.475   2.357 -1.7888 -1.0399 -0.3122
 8867TIP3   OH250795   3.102   4.040   2.852 -0.1322  0.3094  0.5588
 8867TIP3    H150796   3.077   4.086   2.772  0.1673 -0.2007  0.1733
 8867TIP3    H250797   3.165   4.098   2.895  0.0046  0.4036  0.2302
 8868TIP3   OH250798   3.120   2.590   2.642 -0.8582  0.4164  0.1340
 8868TIP3    H150799   3.089   2.533   2.713  0.6689 -1.5166 -0.6286
 8868TIP3    H250800   3.077   2.557   2.563 -1.2696  1.4645 -0.0973
 8869TIP3   OH250801   4.435   1.942   1.987 -0.3281  0.1661  0.1192
 8869TIP3    H150802   4.466   2.020   1.941 -0.3114 -0.0153 -0.1787
 8869TIP3    H250803   4.495   1.873   1.960 -0.1663  0.1085  0.6066
 8870TIP3   OH250804   3.414   3.669   2.495 -0.0825 -0.5583 -0.0381
 8870TIP3    H150805   3.403   3.731   2.567 -1.5102 -3.2427  2.2715
 8870TIP3    H250806   3.324   3.644   2.472  0.3601  0.0033 -2.6203
 8871TIP3   OH250807   0.867   2.024   3.355  0.2089  0.6094 -0.0139
 8871TIP3    H150808   0.918   2.098   3.390  1.2242  0.0628 -0.3014
 8871TIP3    H250809   0.779   2.059   3.344  1.3285  2.8388 -3.3171
 8872TIP3   OH250810   0.315   0.696   3.265  0.0142  0.1376 -0.0428
 8872TIP3    H150811   0.353   0.706   3.352  0.7201 -0.4495 -0.2839
 8872TIP3    H250812   0.386   0.664   3.211 -0.5965 -0.1313 -0.6976
 8873TIP3   OH250813   0.533   3.773   3.040 -0.3486  0.5883 -0.5988
 8873TIP3    H150814   0.606   3.734   2.991  0.7935  1.3844  0.4152
 8873TIP3    H250815   0.470   3.798   2.973  0.1710 -0.3582 -1.4843
 8874TIP3   OH250816   6.265   3.759   1.000 -0.3329 -0.6517 -0.2212
 8874TIP3    H150817   6.169   3.753   1.006 -0.4952  0.3204 -1.4965
 8874TIP3    H250818   6.295   3.757   1.091 -1.7517  1.7455  0.3920
 8875TIP3   OH250819   3.350   0.801   1.460 -0.5280 -0.1011  0.1083
 8875TIP3    H150820   3.384   0.734   1.401  2.3550  0.8576  0.5314
 8875TIP3    H250821   3.413   0.805   1.532 -0.7436  2.8194  0.2621
 8876TIP3   OH250822   2.856   1.203   3.609 -0.5507 -0.8499 -0.0002
 8876TIP3    H150823   2.823   1.159   3.687 -1.1442 -2.2478 -0.9835
 8876TIP3    H250824   2.934   1.249   3.638 -0.9973 -0.9870  1.4915
 8877TIP3   OH250825   3.238   5.585   4.138 -0.2414  0.1533 -0.0260
 8877TIP3    H150826   3.326   5.608   4.166 -0.3664  0.9962 -0.2985
 8877TIP3    H250827   3.237   5.489   4.139  0.1250  0.1290  1.6841
 8878TIP3   OH250828   4.117   4.306   2.337 -0.4799  0.3853  0.2172
 8878TIP3    H150829   4.139   4.394   2.306 -0.1695 -0.4244 -2.0732
 8878TIP3    H250830   4.202   4.266   2.358 -0.6801  0.8958  2.2133
 8879TIP3   OH250831   1.338   3.808   2.619  0.1410  0.1249 -0.2349
 8879TIP3    H150832   1.364   3.868   2.689 -1.5656 -0.9611  1.4344
 8879TIP3    H250833   1.252   3.838   2.592 -0.4826 -1.1725  0.2125
 8880TIP3   OH250834   1.557   5.795   1.731  0.2508 -0.2002  0.0808
 8880TIP3    H150835   1.644   5.832   1.743  0.8842 -1.0681 -1.5742
 8880TIP3    H250836   1.556   5.763   1.641 -1.7450 -0.3243  0.0955
 8881TIP3   OH250837   4.979   6.618   0.719 -0.0643  0.6030  0.3393
 8881TIP3    H150838   4.959   6.684   0.653 -2.2791  0.5189  0.8394
 8881TIP3    H250839   4.909   6.554   0.710  2.1261 -1.8422 -0.2493
 8882TIP3   OH250840   3.316   3.941   0.993 -0.1331  0.4312 -0.3435
 8882TIP3    H150841   3.348   3.860   0.952 -0.2713  0.9116 -1.4310
 8882TIP3    H250842   3.269   3.911   1.071 -0.0775 -0.5351 -0.6648
 8883TIP3   OH250843   0.500   1.583   0.687 -0.5046 -0.3212 -0.1856
 8883TIP3    H150844   0.569   1.641   0.719 -0.5870 -0.2189 -0.1924
 8883TIP3    H250845   0.547   1.507   0.652 -0.3746 -0.0793 -0.5466
 8884TIP3   OH250846   5.105   1.220   1.364  0.3761 -0.2833  0.3092
 8884TIP3    H150847   5.087   1.252   1.276 -1.4270  0.7592  1.0028
 8884TIP3    H250848   5.200   1.227   1.373  0.6621 -0.8684 -1.6858
 8885TIP3   OH250849   6.070   3.209   2.586 -0.5709 -0.7035 -0.0013
 8885TIP3    H150850   6.161   3.209   2.557 -0.7542  0.8786 -0.6693
 8885TIP3    H250851   6.068   3.273   2.658 -1.1210 -0.8441  0.1141
 8886TIP3   OH250852   4.318   4.732   1.311 -1.0459 -0.5127 -0.0114
 8886TIP3    H150853   4.342   4.810   1.260 -2.4170 -0.3497 -0.4538
 8886TIP3    H250854   4.386   4.726   1.378  0.5521 -0.4577 -1.5487
 8887TIP3   OH250855   0.677   0.373   2.917 -0.5162 -0.4000  0.2334
 8887TIP3    H150856   0.595   0.336   2.883 -0.1476 -0.9899 -0.0143
 8887TIP3    H250857   0.714   0.304   2.971 -0.6114  0.1838  1.0758
 8888TIP3   OH250858   5.219   6.711   3.703  0.1253  0.0954  0.2317
 8888TIP3    H150859   5.290   6.652   3.679  0.0647  0.0404  0.1863
 8888TIP3    H250860   5.219   6.711   3.799 -1.3569 -1.7961  0.2963
 8889TIP3   OH250861   1.515   5.479   1.614 -0.3436  0.3904 -0.5468
 8889TIP3    H150862   1.599   5.462   1.657  0.4277 -0.0244 -2.1609
 8889TIP3    H250863   1.533   5.467   1.521 -2.0799  0.8126 -0.9613
 8890TIP3   OH250864   2.954   2.363   1.385 -0.5326 -0.0228  0.5504
 8890TIP3    H150865   2.865   2.342   1.357 -0.3320  0.0446 -0.1641
 8890TIP3    H250866   2.975   2.446   1.340  0.2180 -0.5108 -0.0353
 8891TIP3   OH250867   6.840   4.998   3.686 -0.0437  0.5393 -0.1374
 8891TIP3    H150868   6.804   4.912   3.708 -0.0104  0.5931  0.1361
 8891TIP3    H250869   6.909   4.980   3.622  0.7469  0.2462  0.7830
 8892TIP3   OH250870   5.979   4.608   1.270 -0.0708  0.1280  0.6464
 8892TIP3    H150871   5.962   4.702   1.264  1.4627  0.3813 -0.4918
 8892TIP3    H250872   5.966   4.587   1.363 -1.4719  1.2200  0.7321
 8893TIP3   OH250873   5.847   4.033   3.481  0.1251  0.3360 -0.0146
 8893TIP3    H150874   5.889   4.062   3.562  1.0383 -1.4469  0.2084
 8893TIP3    H250875   5.921   4.011   3.423 -0.4759  2.2770 -1.6733
 8894TIP3   OH250876   5.720   2.672   2.798  0.0980  0.6362  0.4479
 8894TIP3    H150877   5.799   2.670   2.744 -0.3046 -3.1450 -0.2973
 8894TIP3    H250878   5.753   2.675   2.888  0.9664  1.5643  0.1182
 8895TIP3   OH250879   3.527   6.032   0.708 -0.3104  0.3395 -0.0609
 8895TIP3    H150880   3.559   5.943   0.723 -0.2058  0.3976  0.0640
 8895TIP3    H250881   3.462   6.046   0.777 -1.3487 -0.1398 -0.9082
 8896TIP3   OH250882   1.393   4.249   3.206  0.0685 -0.4434 -0.1317
 8896TIP3    H150883   1.426   4.310   3.271  1.8284 -2.3199  0.8406
 8896TIP3    H250884   1.339   4.187   3.256 -1.8721  0.3468 -1.1227
 8897TIP3   OH250885   2.229   1.028   3.364 -0.3565 -0.0375  0.4801
 8897TIP3    H150886   2.159   1.008   3.302  1.9292 -3.6214 -1.2455
 8897TIP3    H250887   2.223   0.960   3.430  1.2877 -0.2487  0.4541
 8898TIP3   OH250888   6.559   5.469   1.728 -0.2253 -0.3536 -0.2831
 8898TIP3    H150889   6.621   5.451   1.799 -1.1067  2.8775  1.5057
 8898TIP3    H250890   6.505   5.390   1.724  1.4734 -1.6713  0.8060
 8899TIP3   OH250891   2.426   6.541   0.716 -0.0743 -0.2304 -0.2247
 8899TIP3    H150892   2.485   6.470   0.739  0.8141  0.6488  0.3128
 8899TIP3    H250893   2.431   6.547   0.620  0.5334 -0.3043 -0.1970
 8900TIP3   OH250894   6.310   3.940   3.273  0.9875  0.4154  0.8337
 8900TIP3    H150895   6.355   3.864   3.310 -1.1986 -2.1248 -1.3315
 8900TIP3    H250896   6.355   3.956   3.190 -0.3279 -0.4269 -0.0741
 8901TIP3   OH250897   1.018   0.933   1.075 -0.2066 -0.1704  0.3176
 8901TIP3    H150898   0.957   0.988   1.124 -0.4267  0.4577 -0.6411
 8901TIP3    H250899   1.027   0.854   1.128 -0.6318  0.3823  1.2416
 8902TIP3   OH250900   5.967   4.108   0.827 -0.4829  0.0480 -0.8130
 8902TIP3    H150901   5.991   4.018   0.849 -1.4652 -0.4767 -1.8002
 8902TIP3    H250902   6.044   4.143   0.782  0.3928  0.1500  0.6870
 8903TIP3   OH250903   3.436   1.143   2.904  0.1473  0.2963 -0.3515
 8903TIP3    H150904   3.405   1.191   2.981 -1.9860 -0.8694 -0.4285
 8903TIP3    H250905   3.526   1.175   2.891 -0.1165  1.9486  1.4281
 8904TIP3   OH250906   6.686   1.048   0.938 -0.3213  0.4955  0.3725
 8904TIP3    H150907   6.636   1.120   0.899  0.4644  0.1022 -1.4799
 8904TIP3    H250908   6.631   0.971   0.926 -0.9475  0.6730  1.9122
 8905TIP3   OH250909   1.834   2.200   1.877  0.4108  0.0086 -0.3349
 8905TIP3    H150910   1.785   2.134   1.925  0.9675 -0.7117 -0.7291
 8905TIP3    H250911   1.769   2.268   1.856 -0.6539 -1.3501 -1.6493
 8906TIP3   OH250912   5.720   0.186   0.617  0.3773 -0.6187  0.6650
 8906TIP3    H150913   5.767   0.150   0.692 -0.2055  0.5018  1.5994
 8906TIP3    H250914   5.742   0.279   0.617 -2.1793  0.0673  1.4641
 8907TIP3   OH250915   2.331   2.323   4.237 -0.0558  0.4629  0.0283
 8907TIP3    H150916   2.420   2.349   4.214 -0.1291  1.3030  0.6734
 8907TIP3    H250917   2.278   2.349   4.162  0.4546 -1.6005 -1.1379
 8908TIP3   OH250918   5.286   1.393   3.110  0.3400 -0.5564  0.4541
 8908TIP3    H150919   5.209   1.435   3.072 -0.8683 -2.4285  0.7193
 8908TIP3    H250920   5.317   1.334   3.042  2.1879  0.8654 -0.0187
 8909TIP3   OH250921   5.712   6.776   1.235 -0.2708  0.1859 -0.4169
 8909TIP3    H150922   5.651   6.847   1.215  0.7684  1.4151  0.6541
 8909TIP3    H250923   5.707   6.766   1.330  1.0627  0.1909 -0.3299
 8910TIP3   OH250924   3.634   3.253   3.219 -0.3905 -0.4142  0.5282
 8910TIP3    H150925   3.612   3.208   3.138 -0.0229 -1.4943  1.0111
 8910TIP3    H250926   3.725   3.280   3.208  0.2743 -2.2065  1.2733
 8911TIP3   OH250927   2.823   6.622   0.890 -0.4142  0.3348  0.1926
 8911TIP3    H150928   2.729   6.610   0.897 -0.4151  0.7813  0.9541
 8911TIP3    H250929   2.845   6.584   0.805 -1.5474  1.8281 -0.8240
 8912TIP3   OH250930   0.124   3.171   2.986 -0.3246 -0.2867 -0.1007
 8912TIP3    H150931   0.202   3.226   3.000 -1.0941  0.6169  0.7523
 8912TIP3    H250932   0.085   3.206   2.906 -0.1159 -0.4321 -0.2677
 8913TIP3   OH250933   1.559   1.829   3.726 -0.0306 -0.1398 -0.1406
 8913TIP3    H150934   1.653   1.840   3.711 -0.1051  0.8388  0.0554
 8913TIP3    H250935   1.540   1.883   3.802 -0.9543  0.5668 -0.8463
 8914TIP3   OH250936   3.258   5.459   1.759  0.2137  0.3395 -0.2146
 8914TIP3    H150937   3.342   5.472   1.802 -0.4684  0.7895  1.0349
 8914TIP3    H250938   3.275   5.393   1.691  1.0298 -1.4918  1.6714
 8915TIP3   OH250939   5.200   5.712   1.210  0.2434 -0.3252  0.3311
 8915TIP3    H150940   5.125   5.704   1.151 -0.9800  0.5973  1.7297
 8915TIP3    H250941   5.269   5.750   1.155 -0.2592 -1.2477 -0.9883
 8916TIP3   OH250942   0.370   4.220   3.275  0.0069 -0.2658 -0.4045
 8916TIP3    H150943   0.403   4.173   3.198  1.3240 -0.3979  0.2199
 8916TIP3    H250944   0.408   4.174   3.350 -0.6969  0.2850  0.3155
 8917TIP3   OH250945   3.992   5.303   1.142  0.3881  0.2741 -0.8115
 8917TIP3    H150946   3.907   5.294   1.186  1.4402  1.4717  1.6834
 8917TIP3    H250947   4.014   5.214   1.113 -1.1357 -0.2731 -0.3887
 8918TIP3   OH250948   6.073   5.850   2.594 -0.3442  0.5690 -0.2819
 8918TIP3    H150949   6.077   5.844   2.690 -2.5167 -1.2910 -0.2126
 8918TIP3    H250950   6.112   5.935   2.574  1.7328  0.2922  2.0814
 8919TIP3   OH250951   4.974   3.927   2.722  0.4738 -0.0547 -0.3007
 8919TIP3    H150952   4.883   3.959   2.725  0.5911  0.4385 -1.5244
 8919TIP3    H250953   5.013   3.974   2.648  2.2158  1.0181  1.2097
 8920TIP3   OH250954   2.654   1.085   3.275  0.8184 -0.1170 -0.2522
 8920TIP3    H150955   2.690   1.055   3.359 -0.6774 -0.0447  0.4608
 8920TIP3    H250956   2.710   1.045   3.209  1.6895 -0.6443  0.7697
 8921TIP3   OH250957   0.479   4.436   1.759 -0.6109 -0.1448 -0.2255
 8921TIP3    H150958   0.432   4.493   1.820 -1.2532 -1.9478  1.0390
 8921TIP3    H250959   0.553   4.403   1.810 -0.0965 -0.2556 -1.0217
 8922TIP3   OH250960   2.080   5.034   0.807 -0.7740  0.0684 -0.6401
 8922TIP3    H150961   2.024   5.064   0.878  2.2258  2.0974  1.0475
 8922TIP3    H250962   2.132   5.110   0.782  1.8200 -1.8266 -1.5170
 8923TIP3   OH250963   1.031   2.097   0.836  0.3472 -0.5165  0.1876
 8923TIP3    H150964   1.122   2.101   0.865  1.0235 -1.1924 -1.6980
 8923TIP3    H250965   1.014   2.182   0.796  1.1010 -1.3053 -1.9537
 8924TIP3   OH250966   1.969   0.990   1.581 -0.1483 -0.4053 -0.4744
 8924TIP3    H150967   1.908   1.062   1.597 -0.4856 -0.9077  0.6717
 8924TIP3    H250968   1.918   0.911   1.599  0.6305 -0.8626 -0.2030
 8925TIP3   OH250969   3.688   4.698   0.732 -0.4336  0.2828  0.0439
 8925TIP3    H150970   3.646   4.679   0.816  2.2530  0.7736  1.6455
 8925TIP3    H250971   3.664   4.625   0.675 -0.8836 -1.0414  1.8572
 8926TIP3   OH250972   1.985   1.995   2.135 -0.0532 -0.3647 -0.0949
 8926TIP3    H150973   1.951   1.914   2.097  0.8876 -1.1099  0.5958
 8926TIP3    H250974   2.080   1.984   2.131  0.0726  0.4797  0.4883
 8927TIP3   OH250975   1.710   4.502   1.944  0.2710 -0.0989  0.2504
 8927TIP3    H150976   1.646   4.499   1.872 -0.0416 -2.8473  0.5409
 8927TIP3    H250977   1.780   4.443   1.917  0.0822 -1.3185  2.2340
 8928TIP3   OH250978   2.922   2.929   2.580 -0.2089  0.1174  0.1800
 8928TIP3    H150979   2.898   3.015   2.614 -0.4235  0.4586 -0.7762
 8928TIP3    H250980   2.845   2.875   2.595 -1.3481  0.9563 -2.0199
 8929TIP3   OH250981   5.920   2.954   2.338  0.4465  0.5648  0.0528
 8929TIP3    H150982   5.862   2.990   2.405 -0.3982  1.5269 -1.1576
 8929TIP3    H250983   5.886   2.867   2.320  1.8737 -0.5511  2.2481
 8930TIP3   OH250984   2.903   4.605   1.960  0.0425  0.4630  0.1145
 8930TIP3    H150985   2.902   4.701   1.953  0.0385  0.3666 -2.1458
 8930TIP3    H250986   2.903   4.575   1.869  1.3413 -1.6938  0.7503
 8931TIP3   OH250987   4.866   6.007   2.289 -0.5561 -0.1031 -0.6666
 8931TIP3    H150988   4.836   6.061   2.362 -0.1166 -1.1087  0.2799
 8931TIP3    H250989   4.786   5.978   2.246 -0.8729 -0.5737  0.2163
 8932TIP3   OH250990   4.341   1.636   1.475 -0.1393  0.3770 -0.0299
 8932TIP3    H150991   4.423   1.670   1.440  0.8741 -1.3083  0.6258
 8932TIP3    H250992   4.341   1.661   1.567  1.0582 -2.0450  0.6974
 8933TIP3   OH250993   1.148   1.812   2.014  0.0980  0.0150 -0.1226
 8933TIP3    H150994   1.196   1.827   1.932 -0.4728 -0.3519 -0.5279
 8933TIP3    H250995   1.110   1.725   2.005 -0.3952  0.1764  0.3197
 8934TIP3   OH250996   4.139   0.765   1.785 -0.1498 -0.0722 -0.0527
 8934TIP3    H150997   4.196   0.789   1.859  1.1783  0.9104 -1.3099
 8934TIP3    H250998   4.072   0.834   1.784  0.0556  0.1332  0.0149
 8935TIP3   OH250999   0.481   2.774   2.876 -0.0305  0.1941  0.2813
 8935TIP3    H151000   0.531   2.785   2.795 -0.4577  0.0097 -0.0124
 8935TIP3    H251001   0.532   2.819   2.943 -0.3519  1.5584 -0.3550
 8936TIP3   OH251002   6.780   1.902   1.564 -0.0489 -0.2740 -0.4733
 8936TIP3    H151003   6.725   1.901   1.485 -0.9464  1.7494  0.0729
 8936TIP3    H251004   6.791   1.995   1.584  0.9047 -0.7353  1.2966
 8937TIP3   OH251005   6.778   4.012   1.007 -0.1406 -0.1690  0.1386
 8937TIP3    H151006   6.799   4.073   1.078  2.1135 -0.3730 -0.2790
 8937TIP3    H251007   6.855   4.013   0.951  0.8998 -4.7877  1.0768
 8938TIP3   OH251008   0.151   3.429   2.774 -0.1839  0.4964 -0.4751
 8938TIP3    H151009   0.130   3.498   2.837 -1.3923 -0.6601  0.4422
 8938TIP3    H251010   0.068   3.383   2.760  0.7074 -1.1423 -0.6078
 8939TIP3   OH251011   4.722   3.601   1.639 -0.4491  0.0764  0.1198
 8939TIP3    H151012   4.814   3.627   1.626 -0.3008 -0.0680  0.8427
 8939TIP3    H251013   4.689   3.585   1.550  0.3482 -0.2972 -0.1208
 8940TIP3   OH251014   2.721   3.633   0.877 -0.0335  0.1307  0.5864
 8940TIP3    H151015   2.694   3.553   0.923 -1.4548 -0.0370 -0.4775
 8940TIP3    H251016   2.807   3.612   0.840  0.0331 -0.5554  1.1059
 8941TIP3   OH251017   2.826   3.066   2.329  0.3367 -0.8880  0.2445
 8941TIP3    H151018   2.848   3.159   2.327  2.2769 -1.3062 -1.9086
 8941TIP3    H251019   2.909   3.021   2.312 -0.6808 -2.9898  0.4978
 8942TIP3   OH251020   0.341   5.635   3.104 -0.8768 -0.0178  0.0029
 8942TIP3    H151021   0.274   5.684   3.153 -1.6172 -0.4981 -0.5041
 8942TIP3    H251022   0.394   5.702   3.061  0.6472  0.4980  2.4839
 8943TIP3   OH251023   5.642   5.542   3.462  0.3009 -0.1676 -0.2947
 8943TIP3    H151024   5.721   5.583   3.498  0.3599  0.0515 -0.6693
 8943TIP3    H251025   5.633   5.581   3.376 -0.1082 -0.3414 -0.3288
 8944TIP3   OH251026   3.681   0.213   1.207  0.1671 -0.0127 -0.0528
 8944TIP3    H151027   3.607   0.159   1.235  0.8917 -0.5047  0.9508
 8944TIP3    H251028   3.735   0.154   1.154 -0.7002  0.6521 -1.7833
 8945TIP3   OH251029   5.526   2.137   3.867  0.6208  0.0576 -0.2736
 8945TIP3    H151030   5.440   2.164   3.899  0.3804 -0.2830 -0.6203
 8945TIP3    H251031   5.526   2.041   3.875  0.5725 -0.0356 -1.2282
 8946TIP3   OH251032   2.576   2.263   1.026  0.5903  0.0055  0.1064
 8946TIP3    H151033   2.508   2.330   1.022 -0.4991 -1.0935 -0.6383
 8946TIP3    H251034   2.621   2.270   0.942 -0.5339 -1.1629 -0.6356
 8947TIP3   OH251035   3.774   2.348   1.718  0.3429 -0.5792 -0.1039
 8947TIP3    H151036   3.848   2.381   1.667  1.5159 -0.6704  1.4469
 8947TIP3    H251037   3.814   2.286   1.779 -0.6725  0.7895  2.0798
 8948TIP3   OH251038   5.409   5.334   0.748  0.0687 -0.3235 -0.1065
 8948TIP3    H151039   5.388   5.385   0.826  1.5621 -1.5910  1.1949
 8948TIP3    H251040   5.351   5.258   0.753  0.0732 -0.3386 -0.2922
 8949TIP3   OH251041   6.027   1.717   3.053 -0.6111 -0.4753 -0.3044
 8949TIP3    H151042   6.006   1.644   2.995 -1.7516  0.0481 -0.5613
 8949TIP3    H251043   6.122   1.729   3.043 -0.5382 -1.4294 -0.8262
 8950TIP3   OH251044   6.226   4.982   3.086  0.2031  0.1245 -0.1712
 8950TIP3    H151045   6.258   4.965   3.175  0.0498 -0.1064 -0.1598
 8950TIP3    H251046   6.166   5.056   3.096  0.3016  0.1970 -0.1064
 8951TIP3   OH251047   3.648   6.302   0.676  0.1425 -0.6674  0.1294
 8951TIP3    H151048   3.592   6.226   0.659 -0.1247 -0.4866  0.1897
 8951TIP3    H251049   3.724   6.289   0.620 -1.1063  0.3609 -1.9206
 8952TIP3   OH251050   6.465   0.214   2.993 -0.1722 -0.7105  0.3091
 8952TIP3    H151051   6.420   0.153   3.051  1.2909  1.0425  3.5553
 8952TIP3    H251052   6.407   0.290   2.988  0.9133  0.2947  1.9619
 8953TIP3   OH251053   1.298   2.155   0.849 -0.1594  0.0096  0.2568
 8953TIP3    H151054   1.326   2.247   0.845 -0.5533  0.0996 -0.4559
 8953TIP3    H251055   1.364   2.108   0.798  1.1150 -0.3907  2.1464
 8954TIP3   OH251056   0.713   4.470   2.258  0.2713  0.6696  0.2465
 8954TIP3    H151057   0.794   4.508   2.292 -0.2364  0.1318  2.2079
 8954TIP3    H251058   0.719   4.377   2.281 -0.4071  0.4132 -0.5783
 8955TIP3   OH251059   2.420   6.098   2.234  0.8987  0.2836  0.0160
 8955TIP3    H151060   2.358   6.041   2.189  0.6243  0.0290  0.7059
 8955TIP3    H251061   2.483   6.122   2.166  1.4178 -1.4043 -0.1631
 8956TIP3   OH251062   4.581   2.875   3.134  0.1440  0.0714 -0.0704
 8956TIP3    H151063   4.538   2.891   3.050  1.4180 -0.5646 -0.8797
 8956TIP3    H251064   4.665   2.921   3.127 -0.2877  1.1723  1.4156
 8957TIP3   OH251065   1.790   1.573   3.764  0.2444 -0.4287  0.1516
 8957TIP3    H151066   1.856   1.618   3.817 -1.1999 -0.3667  2.0287
 8957TIP3    H251067   1.795   1.482   3.793  0.2683 -0.6440 -0.5202
 8958TIP3   OH251068   5.899   4.424   3.295 -0.5534 -0.5334 -0.4927
 8958TIP3    H151069   5.929   4.337   3.268 -0.0832 -0.1360 -1.2866
 8958TIP3    H251070   5.814   4.408   3.335  0.5929 -1.6811  1.6809
 8959TIP3   OH251071   4.577   5.153   0.430  0.0459 -0.2194 -0.4858
 8959TIP3    H151072   4.496   5.167   0.480 -0.0723 -1.7365 -0.2236
 8959TIP3    H251073   4.561   5.198   0.347 -2.0763 -2.4535 -1.4107
 8960TIP3   OH251074   5.293   4.904   1.521 -0.1410 -0.2345  0.0165
 8960TIP3    H151075   5.372   4.958   1.515  1.2723 -2.2053  0.1462
 8960TIP3    H251076   5.269   4.887   1.430  0.7245 -1.2110 -0.0387
 8961TIP3   OH251077   3.967   1.352   3.082 -0.2997  0.3680  0.1299
 8961TIP3    H151078   4.024   1.307   3.144 -1.4367 -3.1265 -1.1405
 8961TIP3    H251079   3.906   1.402   3.136 -0.0240 -0.9960  1.7702
 8962TIP3   OH251080   3.981   4.606   0.897 -0.0213 -0.1411 -0.2625
 8962TIP3    H151081   3.949   4.640   0.981 -1.3334 -0.2815 -0.6940
 8962TIP3    H251082   3.906   4.562   0.858  0.8316 -0.9163 -1.0973
 8963TIP3   OH251083   0.772   5.032   1.124  0.0255 -0.0406  0.3281
 8963TIP3    H151084   0.859   4.997   1.105 -0.0260 -0.0108  0.0316
 8963TIP3    H251085   0.789   5.111   1.175  0.2361  0.8002 -0.9978
 8964TIP3   OH251086   1.922   0.458   1.161  0.2470  0.0138 -0.2898
 8964TIP3    H151087   1.931   0.487   1.252  0.2373  0.1590 -0.3349
 8964TIP3    H251088   1.902   0.364   1.168 -1.9652  0.4458 -0.0543
 8965TIP3   OH251089   1.722   1.891   1.726 -0.1432  0.0775  0.2304
 8965TIP3    H151090   1.807   1.913   1.688  0.1660 -0.1022  0.8024
 8965TIP3    H251091   1.701   1.966   1.783 -0.5706  0.3136 -0.2216
 8966TIP3   OH251092   5.086   4.367   2.163 -0.2971  0.0127 -0.1764
 8966TIP3    H151093   5.148   4.388   2.094 -1.7956  0.1113 -1.5464
 8966TIP3    H251094   5.119   4.284   2.199 -0.3508 -0.9430 -2.1492
 8967TIP3   OH251095   0.958   4.232   3.134 -0.3760 -0.3641  0.9443
 8967TIP3    H151096   1.009   4.306   3.102 -0.3088 -1.5895 -2.1299
 8967TIP3    H251097   1.021   4.160   3.138 -1.3261 -1.3798 -0.8617
 8968TIP3   OH251098   2.886   0.681   1.114  0.8275  0.4148 -0.3971
 8968TIP3    H151099   2.978   0.687   1.140  0.9202  3.0098 -1.0380
 8968TIP3    H251100   2.887   0.692   1.019 -0.1426  0.7205 -0.3853
 8969TIP3   OH251101   0.235   6.563   1.528 -0.5989 -0.5827  0.4017
 8969TIP3    H151102   0.231   6.646   1.481 -1.5439 -1.8863 -1.9864
 8969TIP3    H251103   0.158   6.514   1.498 -0.1383 -2.2948  1.8220
 8970TIP3   OH251104   5.699   0.688   2.994  0.2821 -0.1966 -0.1173
 8970TIP3    H151105   5.726   0.704   2.903 -2.6302  1.5867 -0.7963
 8970TIP3    H251106   5.635   0.617   2.987 -0.6087  0.5335  0.3723
 8971TIP3   OH251107   1.086   3.031   1.657 -0.5473 -0.0696 -0.1414
 8971TIP3    H151108   1.048   3.076   1.733 -2.0156 -0.0717 -0.8257
 8971TIP3    H251109   1.177   3.059   1.656 -1.2893  2.6239 -0.3053
 8972TIP3   OH251110   2.273   3.469   1.198 -0.2083 -0.3713 -0.0652
 8972TIP3    H151111   2.253   3.449   1.107 -0.7559 -2.3026  0.4399
 8972TIP3    H251112   2.201   3.429   1.248  1.2535 -1.3388  1.3516
 8973TIP3   OH251113   6.653   0.363   1.755  0.0148  0.5289  0.2829
 8973TIP3    H151114   6.609   0.380   1.672  2.1392 -0.4550 -1.1186
 8973TIP3    H251115   6.738   0.405   1.747  0.5147 -0.1364  1.6933
 8974TIP3   OH251116   1.161   5.896   0.909  0.4115  0.3356 -0.0074
 8974TIP3    H151117   1.104   5.939   0.974 -2.9620 -0.5657 -2.1006
 8974TIP3    H251118   1.179   5.965   0.845  0.7901  0.3253  0.0843
 8975TIP3   OH251119   0.764   6.117   0.896  0.3254 -0.6467  0.5879
 8975TIP3    H151120   0.766   6.101   0.802  0.5022 -1.9497  0.7941
 8975TIP3    H251121   0.804   6.203   0.907 -2.6026  1.0350 -0.8040
 8976TIP3   OH251122   4.794   0.506   1.439 -0.6035  0.8656  0.3148
 8976TIP3    H151123   4.862   0.573   1.434 -0.6875  0.9348  0.0981
 8976TIP3    H251124   4.726   0.546   1.494 -0.4891  0.8136  0.4944
 8977TIP3   OH251125   4.010   5.069   1.015  0.1662 -0.3181 -0.1290
 8977TIP3    H151126   3.967   5.059   0.930 -0.0752  0.4516 -0.0990
 8977TIP3    H251127   3.984   4.991   1.065 -0.9711  0.0095 -0.2036
 8978TIP3   OH251128   0.184   6.451   2.347 -0.6239 -0.1082  0.2077
 8978TIP3    H151129   0.226   6.455   2.261 -0.1570  0.3290  0.4513
 8978TIP3    H251130   0.176   6.357   2.366 -1.8315 -0.2436 -0.8337
 8979TIP3   OH251131   1.168   5.089   3.076 -0.5833  0.2734  0.1246
 8979TIP3    H151132   1.206   5.132   3.153 -2.2328  0.6086  0.8136
 8979TIP3    H251133   1.238   5.036   3.040  0.4417  0.6841  1.4495
 8980TIP3   OH251134   5.732   3.113   2.002 -0.7974  0.0512  0.3450
 8980TIP3    H151135   5.780   3.033   2.022  0.4080  0.7146  0.1772
 8980TIP3    H251136   5.644   3.083   1.977 -0.0781 -1.2914 -0.6929
 8981TIP3   OH251137   5.704   2.267   0.877 -0.0556 -0.3436 -0.1205
 8981TIP3    H151138   5.713   2.173   0.861 -0.4919 -0.6281  1.1869
 8981TIP3    H251139   5.611   2.284   0.863 -0.3819 -0.5286  1.5456
 8982TIP3   OH251140   5.816   3.556   1.244  0.2948  0.1666 -0.0113
 8982TIP3    H151141   5.902   3.585   1.213 -0.0231 -1.0611 -2.3011
 8982TIP3    H251142   5.764   3.549   1.164 -1.4018 -0.8320  1.1292
 8983TIP3   OH251143   0.880   5.537   4.245  0.5518 -0.0377  0.0952
 8983TIP3    H151144   0.933   5.609   4.277 -0.0276  1.0283 -1.2181
 8983TIP3    H251145   0.932   5.458   4.263  0.9223  0.6195  2.1083
 8984TIP3   OH251146   5.001   4.742   2.245 -0.5481  0.1870  0.0290
 8984TIP3    H151147   5.007   4.657   2.289  2.3125  0.4846  0.4409
 8984TIP3    H251148   5.092   4.771   2.238 -1.3701  2.7786 -1.0034
 8985TIP3   OH251149   4.342   6.055   3.104  0.6372 -0.1857 -0.2153
 8985TIP3    H151150   4.281   6.023   3.038  1.7591  0.1569 -1.4443
 8985TIP3    H251151   4.369   5.976   3.152 -1.2079 -0.2733  0.7723
 8986TIP3   OH251152   0.412   2.178   3.360  0.6678 -0.2539  0.4615
 8986TIP3    H151153   0.333   2.162   3.307  0.6124  0.2659  0.3861
 8986TIP3    H251154   0.392   2.139   3.445 -0.1980  1.0273  0.8741
 8987TIP3   OH251155   4.336   4.727   0.553 -0.0637 -0.1516 -0.1532
 8987TIP3    H151156   4.356   4.785   0.480 -0.7208  1.1638  0.6813
 8987TIP3    H251157   4.336   4.784   0.630  0.3742 -1.4625  0.8574
 8988TIP3   OH251158   0.373   6.821   0.649  0.4920 -0.0731 -0.0799
 8988TIP3    H151159   0.318   6.769   0.590  0.5229  0.3401 -0.4770
 8988TIP3    H251160   0.350   6.790   0.737 -0.9905  0.6580 -0.1779
 8989TIP3   OH251161   2.941   0.124   1.197  0.3298 -0.2605  0.3869
 8989TIP3    H151162   3.030   0.154   1.215  0.0316  1.6431 -0.9828
 8989TIP3    H251163   2.888   0.158   1.269 -0.2893  4.3738 -1.8853
 8990TIP3   OH251164   3.746   3.564   3.725 -0.3661  0.0553  0.6775
 8990TIP3    H151165   3.775   3.489   3.776 -1.1554 -0.7819 -0.0692
 8990TIP3    H251166   3.701   3.620   3.789 -0.9980 -0.7828  0.9852
 8991TIP3   OH251167   2.950   3.641   0.726 -0.1089  0.4813  0.3287
 8991TIP3    H151168   2.997   3.562   0.698 -1.8013 -0.2737 -0.5082
 8991TIP3    H251169   2.996   3.713   0.681  2.1142  0.1701  1.9165
 8992TIP3   OH251170   1.845   1.427   0.763  0.4688  0.1775  0.3057
 8992TIP3    H151171   1.790   1.351   0.784 -0.3234  0.2942 -1.2067
 8992TIP3    H251172   1.784   1.501   0.763  0.3503  0.1678 -2.3500
 8993TIP3   OH251173   4.802   3.246   1.005  0.1063 -0.3971  0.6835
 8993TIP3    H151174   4.882   3.262   0.955 -0.5697  0.3031 -0.2000
 8993TIP3    H251175   4.826   3.178   1.069  1.8192  0.9225  1.5017
 8994TIP3   OH251176   2.467   1.560   1.282 -0.2054 -0.2383 -0.0906
 8994TIP3    H151177   2.505   1.644   1.308 -0.5369  0.3658 -1.4802
 8994TIP3    H251178   2.503   1.544   1.195 -0.4706 -1.3401 -0.0032
 8995TIP3   OH251179   3.735   5.961   1.318 -0.2753  0.1900  0.2744
 8995TIP3    H151180   3.685   5.986   1.240  1.2883  0.9209 -0.5552
 8995TIP3    H251181   3.740   5.866   1.314  1.3921  0.2910 -1.6438
 8996TIP3   OH251182   1.141   6.831   3.333 -0.0909 -0.0622  0.1605
 8996TIP3    H151183   1.102   6.917   3.353 -0.7919  0.1008 -1.6633
 8996TIP3    H251184   1.106   6.773   3.400 -0.9025  0.7672  0.4872
 8997TIP3   OH251185   5.805   3.839   2.637 -0.1684 -0.2546 -0.3981
 8997TIP3    H151186   5.726   3.803   2.676 -0.2647  1.4248  1.0404
 8997TIP3    H251187   5.785   3.931   2.620  1.7746  0.5107  1.0224
 8998TIP3   OH251188   4.114   1.195   3.246 -0.0730  0.2445 -0.9157
 8998TIP3    H151189   4.113   1.100   3.255 -1.2193  0.2799 -0.5358
 8998TIP3    H251190   4.207   1.218   3.241  0.2252 -0.8415 -0.4931
 8999TIP3   OH251191   6.474   2.185   4.221  0.1481 -0.2550  0.6075
 8999TIP3    H151192   6.547   2.164   4.278 -1.2323  0.1089  2.6021
 8999TIP3    H251193   6.452   2.102   4.178  1.9161 -0.2868 -0.3194
 9000TIP3   OH251194   5.672   4.370   3.430 -0.5480 -0.2834 -0.6191
 9000TIP3    H151195   5.705   4.407   3.512  0.5836 -3.4840  0.4986
 9000TIP3    H251196   5.596   4.319   3.456 -2.3429  1.3944 -2.1875
 9001TIP3   OH251197   1.003   1.865   1.321 -0.1025  0.7705  0.0692
 9001TIP3    H151198   0.938   1.920   1.365 -0.8147 -1.0196  1.4103
 9001TIP3    H251199   0.971   1.857   1.231 -0.5076  1.7353  0.1176
 9002TIP3   OH251200   5.947   6.703   1.731 -0.5175 -0.2008  0.0657
 9002TIP3    H151201   6.020   6.646   1.757  0.5394  0.5421 -1.2116
 9002TIP3    H251202   5.927   6.753   1.810 -0.7565 -1.5555  0.9008
 9003TIP3   OH251203   3.231   0.409   1.348  0.1528  0.0001 -0.2512
 9003TIP3    H151204   3.277   0.487   1.315 -0.1970 -0.1608 -1.1664
 9003TIP3    H251205   3.154   0.444   1.392 -0.2274  0.1731 -1.0265
 9004TIP3   OH251206   6.757   5.881   1.398  0.2130 -0.5061  0.5467
 9004TIP3    H151207   6.695   5.910   1.465  0.7743 -0.6566  1.1433
 9004TIP3    H251208   6.732   5.790   1.380  0.3506 -0.6106  0.8887
 9005TIP3   OH251209   4.541   4.150   1.791  0.3686 -0.2976  0.2155
 9005TIP3    H151210   4.448   4.129   1.804  0.4309 -1.1411 -0.5847
 9005TIP3    H251211   4.587   4.098   1.857  0.3875 -1.3420 -0.5877
 9006TIP3   OH251212   0.089   6.068   3.534 -0.0994  0.0081  0.3436
 9006TIP3    H151213   0.062   5.992   3.585  1.7193 -1.7060 -1.1369
 9006TIP3    H251214   0.013   6.088   3.480 -1.2891  0.5349  2.0949
 9007TIP3   OH251215   3.157   3.664   1.451  0.4880 -0.1085 -0.1507
 9007TIP3    H151216   3.199   3.643   1.534 -0.5420  0.5674  0.5746
 9007TIP3    H251217   3.183   3.594   1.392  2.7223  0.3566  0.2031
 9008TIP3   OH251218   6.592   1.288   2.355  0.5249 -0.1880 -0.2090
 9008TIP3    H151219   6.592   1.256   2.264 -0.4469  1.2937 -0.7619
 9008TIP3    H251220   6.677   1.331   2.365 -0.2943  1.8269 -1.2826
 9009TIP3   OH251221   4.370   3.772   0.719  0.4515 -0.5820  0.2859
 9009TIP3    H151222   4.366   3.866   0.736  0.7551 -0.5689  0.2930
 9009TIP3    H251223   4.450   3.761   0.667 -1.1508 -0.4058 -2.4102
 9010TIP3   OH251224   5.422   1.219   2.923  0.0512  0.5535  0.5417
 9010TIP3    H151225   5.418   1.151   2.991  1.9099 -0.0263  0.1442
 9010TIP3    H251226   5.395   1.174   2.843 -1.5688  1.0839  0.7623
 9011TIP3   OH251227   3.835   2.866   4.186 -0.1701  0.0168 -0.0330
 9011TIP3    H151228   3.764   2.840   4.244 -0.2626 -1.0051 -0.5713
 9011TIP3    H251229   3.803   2.845   4.098  0.6319 -0.0724 -0.3137
 9012TIP3   OH251230   5.716   4.978   2.291  0.8462  0.4620  0.1386
 9012TIP3    H151231   5.750   4.889   2.287 -2.4272 -0.9134 -2.9796
 9012TIP3    H251232   5.720   5.009   2.200 -2.3497  1.6001  0.2768
 9013TIP3   OH251233   5.422   0.084   3.767  0.2156 -0.2076 -0.1267
 9013TIP3    H151234   5.389  -0.006   3.772  0.2385 -0.3059 -1.4059
 9013TIP3    H251235   5.446   0.095   3.675 -1.0793  1.5575 -0.3138
 9014TIP3   OH251236   6.514   1.796   3.259 -0.8650 -0.4946 -0.1870
 9014TIP3    H151237   6.585   1.735   3.279  0.4704  0.9481 -0.2998
 9014TIP3    H251238   6.467   1.805   3.342  1.3262  1.2659  1.0015
 9015TIP3   OH251239   6.117   5.211   0.522 -0.2388  0.1604  0.1078
 9015TIP3    H151240   6.098   5.298   0.487 -0.6927 -0.4592 -1.2432
 9015TIP3    H251241   6.204   5.190   0.487 -0.7942 -0.5564 -0.9041
 9016TIP3   OH251242   4.003   6.186   3.530  0.2578  0.4961 -0.6061
 9016TIP3    H151243   4.056   6.251   3.575 -2.0547  0.0850  3.1302
 9016TIP3    H251244   4.025   6.103   3.572 -0.2567 -0.4065 -2.0197
 9017TIP3   OH251245   6.406   6.770   1.988 -0.5682  0.4372  0.0715
 9017TIP3    H151246   6.435   6.798   1.901  0.9327 -1.2907 -0.0504
 9017TIP3    H251247   6.487   6.759   2.038 -1.3271  0.1620  1.2841
 9018TIP3   OH251248   5.792   5.637   2.709 -0.0585 -0.2150 -0.0570
 9018TIP3    H151249   5.859   5.705   2.716  1.0243 -1.3620  1.5904
 9018TIP3    H251250   5.838   5.562   2.671 -1.1104 -0.1899 -1.4271
 9019TIP3   OH251251   2.292   4.098   1.208  0.4895 -0.1805  0.3920
 9019TIP3    H151252   2.236   4.166   1.245  2.3399  0.6690  1.8524
 9019TIP3    H251253   2.350   4.145   1.148 -0.9226 -1.1966 -1.8937
 9020TIP3   OH251254   3.356   5.834   3.310  0.7253 -1.2051 -0.3650
 9020TIP3    H151255   3.340   5.799   3.397  1.4139 -0.0425  0.2478
 9020TIP3    H251256   3.273   5.820   3.263 -0.1856 -0.4422  0.9615
 9021TIP3   OH251257   5.361   3.116   1.356 -0.7246  0.0524  0.1692
 9021TIP3    H151258   5.411   3.195   1.377 -0.8539  0.2000 -0.0747
 9021TIP3    H251259   5.348   3.121   1.262  1.0885 -1.3192 -0.2107
 9022TIP3   OH251260   1.679   2.348   4.388  0.3351 -0.8587  0.1798
 9022TIP3    H151261   1.663   2.369   4.296  1.5206  2.0043  0.5255
 9022TIP3    H251262   1.770   2.373   4.403  0.1611 -1.2275  2.1732
 9023TIP3   OH251263   1.180   2.598   2.406  0.5268  0.4028  0.1684
 9023TIP3    H151264   1.146   2.537   2.471  3.5040 -1.2285  0.3937
 9023TIP3    H251265   1.257   2.637   2.448  3.0711 -1.3369 -2.4861
 9024TIP3   OH251266   2.300   3.012   2.937  0.2430  0.5925  0.1005
 9024TIP3    H151267   2.254   3.028   2.855 -0.6912  1.2311  0.7278
 9024TIP3    H251268   2.367   2.948   2.915 -0.3646  0.3250 -1.0324
 9025TIP3   OH251269   0.620   3.521   2.308  0.1731  0.1960  0.0130
 9025TIP3    H151270   0.651   3.435   2.279  1.1731  0.5029  0.1542
 9025TIP3    H251271   0.651   3.581   2.240  0.2100  0.5579  0.3498
 9026TIP3   OH251272   1.318   1.409   2.827  0.3757 -0.6384 -0.3263
 9026TIP3    H151273   1.256   1.336   2.819  0.0852 -0.7939  2.3839
 9026TIP3    H251274   1.318   1.429   2.920  1.4602  1.9874 -0.8278
 9027TIP3   OH251275   4.819   2.402   2.430  0.2642 -0.3288  0.2572
 9027TIP3    H151276   4.842   2.431   2.518 -1.1447 -0.5279  0.7204
 9027TIP3    H251277   4.805   2.307   2.439 -1.6006 -0.0999  0.2492
 9028TIP3   OH251278   5.216   1.077   1.021 -0.6986  0.3715 -0.3883
 9028TIP3    H151279   5.294   1.127   1.045 -0.5361 -0.3087  0.5617
 9028TIP3    H251280   5.149   1.105   1.084 -1.2173  0.8879 -1.1400
 9029TIP3   OH251281   3.666   5.404   1.054  0.0728  0.1888 -0.6586
 9029TIP3    H151282   3.580   5.363   1.042 -0.5648  1.8522 -2.2738
 9029TIP3    H251283   3.686   5.391   1.146 -1.5775 -0.8707 -0.4061
 9030TIP3   OH251284   0.375   3.388   2.388 -0.2296  0.3530  0.2670
 9030TIP3    H151285   0.436   3.449   2.347 -1.7110  1.0974 -0.9465
 9030TIP3    H251286   0.421   3.304   2.388  1.2533  1.1262  0.5397
 9031TIP3   OH251287   5.590   6.609   2.119  0.0557  0.2598 -0.0767
 9031TIP3    H151288   5.565   6.675   2.183 -0.6904 -0.6709  0.6260
 9031TIP3    H251289   5.510   6.592   2.070 -0.2299 -1.2827  0.8515
 9032TIP3   OH251290   3.181   0.771   2.870  0.0600  0.0270  0.2628
 9032TIP3    H151291   3.249   0.775   2.803 -0.9507  1.3677 -0.7322
 9032TIP3    H251292   3.152   0.680   2.870  0.3907 -0.0846 -0.7835
 9033TIP3   OH251293   3.079   5.323   2.364  0.2952 -0.0075 -0.5190
 9033TIP3    H151294   3.119   5.411   2.369  0.3424 -0.0737  0.4942
 9033TIP3    H251295   3.153   5.263   2.373  0.1162 -0.1371  0.1575
 9034TIP3   OH251296   3.177   5.884   3.060 -0.0762  0.0665 -0.5788
 9034TIP3    H151297   3.164   5.943   2.986  0.8723  0.0794 -0.7465
 9034TIP3    H251298   3.093   5.884   3.105 -0.0191  1.7984 -0.3970
 9035TIP3   OH251299   5.033   1.060   1.914 -0.3098  0.3765  0.4646
 9035TIP3    H151300   5.043   1.154   1.925  1.5259  0.2952 -0.2108
 9035TIP3    H251301   5.122   1.025   1.927 -0.4383 -0.9787 -1.8322
 9036TIP3   OH251302   2.726   2.984   3.282 -0.0372 -0.4985 -0.1192
 9036TIP3    H151303   2.663   3.006   3.350  0.4346  0.4339  0.0222
 9036TIP3    H251304   2.802   2.950   3.329 -0.4032 -1.6256 -0.2900
 9037TIP3   OH251305   3.079   4.429   3.501 -0.6917  0.5219 -0.2129
 9037TIP3    H151306   3.038   4.462   3.581  0.4270  2.2564 -0.3137
 9037TIP3    H251307   3.138   4.360   3.531 -1.0552  0.4494  0.3423
 9038TIP3   OH251308   0.135   0.636   1.374  0.3218  0.4075  0.1726
 9038TIP3    H151309   0.205   0.574   1.393 -0.8179 -2.0702 -2.7753
 9038TIP3    H251310   0.064   0.611   1.433  0.1256 -0.6410 -0.4943
 9039TIP3   OH251311   2.999   0.511   1.440 -0.2255  0.1256  0.0553
 9039TIP3    H151312   2.919   0.479   1.482 -0.1579  1.0288  0.9085
 9039TIP3    H251313   2.978   0.600   1.412  0.4459  0.3311  0.1874
 9040TIP3   OH251314   4.533   6.289   3.407 -0.3244 -0.3271  0.3007
 9040TIP3    H151315   4.447   6.319   3.378  1.3267  2.1267 -2.7074
 9040TIP3    H251316   4.563   6.358   3.466  0.6914  0.3855 -1.0096
 9041TIP3   OH251317   0.295   6.394   2.954  0.2349  0.0937  0.0289
 9041TIP3    H151318   0.199   6.393   2.959  0.2424 -1.4873  0.2287
 9041TIP3    H251319   0.314   6.419   2.864 -0.3265  1.5017  0.2660
 9042TIP3   OH251320   2.147   4.575   1.481  0.6541 -0.4746  0.9379
 9042TIP3    H151321   2.220   4.514   1.495  1.8472  0.6341 -0.2024
 9042TIP3    H251322   2.178   4.635   1.414 -1.1006  0.4248  0.8704
 9043TIP3   OH251323   6.732   6.728   1.444 -0.0556  0.2279  0.3918
 9043TIP3    H151324   6.778   6.798   1.490  1.9584 -0.2085 -0.8247
 9043TIP3    H251325   6.718   6.762   1.356 -2.0381  0.2914  0.6901
 9044TIP3   OH251326   1.558   2.600   2.685  0.1968  0.4687  0.3368
 9044TIP3    H151327   1.524   2.620   2.772 -0.8229 -0.7279  0.2265
 9044TIP3    H251328   1.510   2.658   2.626  0.9350  1.3272  0.5582
 9045TIP3   OH251329   3.190   3.343   1.487 -0.1214 -0.4105  0.0052
 9045TIP3    H151330   3.139   3.267   1.513 -0.1308 -0.8067 -1.0902
 9045TIP3    H251331   3.147   3.375   1.407  0.1265  0.4955  0.2159
 9046TIP3   OH251332   6.412   2.327   3.109  0.4342  0.4609  0.1267
 9046TIP3    H151333   6.493   2.313   3.159  0.8370  2.2994  0.0597
 9046TIP3    H251334   6.343   2.294   3.166  1.2337 -1.5335  0.0187
 9047TIP3   OH251335   3.404   4.078   3.236 -0.4526  0.5224  0.0445
 9047TIP3    H151336   3.467   4.021   3.281  0.3203  1.4889  0.2439
 9047TIP3    H251337   3.321   4.030   3.239  0.5975 -1.5817 -1.7264
 9048TIP3   OH251338   2.807   0.998   1.886 -0.3756  0.7645  0.4942
 9048TIP3    H151339   2.881   1.021   1.942  0.2084 -2.6659  1.3713
 9048TIP3    H251340   2.731   1.002   1.944 -0.3291  0.8379  0.5495
 9049TIP3   OH251341   1.224   2.645   2.878  0.0541 -0.4012 -0.2471
 9049TIP3    H151342   1.205   2.688   2.795 -0.1829  1.1982  0.6074
 9049TIP3    H251343   1.171   2.565   2.876 -2.8505  1.3803 -0.1334
 9050TIP3   OH251344   4.958   5.104   0.953  0.3664  0.7103  0.5775
 9050TIP3    H151345   4.962   5.075   1.045 -0.8717  0.1817  0.4901
 9050TIP3    H251346   4.912   5.033   0.908 -2.2886  2.4890  0.2328
 9051TIP3   OH251347   6.292   5.549   1.400  0.4119 -0.3186 -0.2344
 9051TIP3    H151348   6.235   5.474   1.416 -0.4218  0.2188 -0.5923
 9051TIP3    H251349   6.247   5.623   1.443  0.1348  0.3677 -1.6225
 9052TIP3   OH251350   5.305   5.458   3.868 -0.2043 -0.7223 -0.0456
 9052TIP3    H151351   5.296   5.507   3.949  0.9029 -1.8356  0.8054
 9052TIP3    H251352   5.397   5.470   3.843 -0.4352 -0.7164 -0.9086
 9053TIP3   OH251353   5.034   5.150   2.198  0.6089 -0.0433 -0.0718
 9053TIP3    H151354   5.028   5.104   2.282  0.9950 -0.5089 -0.2923
 9053TIP3    H251355   5.123   5.184   2.196  0.5577  0.0831 -0.2358
 9054TIP3   OH251356   2.268   3.177   1.311  0.0613 -0.0831  0.7398
 9054TIP3    H151357   2.362   3.195   1.313  0.2140 -0.8390  0.4501
 9054TIP3    H251358   2.238   3.202   1.399  0.4538  0.5310  0.7088
 9055TIP3   OH251359   1.224   2.901   1.368  0.0756 -0.7314 -0.2406
 9055TIP3    H151360   1.198   2.991   1.349  2.8769 -0.0690 -1.3448
 9055TIP3    H251361   1.223   2.896   1.464  2.9982  1.5844  0.0444
 9056TIP3   OH251362   5.210   0.512   1.911  0.3417 -0.0626 -0.1023
 9056TIP3    H151363   5.259   0.556   1.980  0.2527 -1.7333  1.0719
 9056TIP3    H251364   5.276   0.462   1.863  0.4738  1.4043 -1.5566
 9057TIP3   OH251365   5.148   6.384   0.962 -0.2992  0.2003 -0.1467
 9057TIP3    H151366   5.086   6.339   0.904  1.3884 -1.0229 -1.1072
 9057TIP3    H251367   5.232   6.341   0.944  0.6780  1.2353  1.7073
 9058TIP3   OH251368   2.743   2.992   1.530  0.3662  0.2699  0.6047
 9058TIP3    H151369   2.687   2.958   1.461 -0.2670 -0.5070  1.4827
 9058TIP3    H251370   2.717   2.945   1.608  0.7248  1.4789  1.4920
 9059TIP3   OH251371   3.454   0.598   1.292 -0.0233 -0.2944 -0.1817
 9059TIP3    H151372   3.542   0.594   1.329 -0.1696 -1.8361  0.0318
 9059TIP3    H251373   3.469   0.623   1.200  0.4284  2.0564  0.4578
 9060TIP3   OH251374   1.672   0.779   1.487  0.3864 -0.2082 -0.2844
 9060TIP3    H151375   1.611   0.731   1.543  2.3645 -0.0042  2.2047
 9060TIP3    H251376   1.674   0.867   1.523  2.6700 -0.4018  0.2134
 9061TIP3   OH251377   5.475   6.662   1.582 -0.5630  0.2278 -0.5272
 9061TIP3    H151378   5.404   6.686   1.641 -1.0349  0.6335 -1.2441
 9061TIP3    H251379   5.461   6.569   1.563 -0.9456  0.3220 -0.7176
 9062TIP3   OH251380   6.194   6.532   0.864  0.2417 -0.2125  0.2562
 9062TIP3    H151381   6.195   6.627   0.857  2.3748 -0.2561 -1.4156
 9062TIP3    H251382   6.205   6.502   0.774 -0.4546 -2.0435  0.7490
 9063TIP3   OH251383   4.159   2.681   1.521  0.0146 -0.1959  0.4358
 9063TIP3    H151384   4.096   2.647   1.586 -1.2186  1.0689 -0.0509
 9063TIP3    H251385   4.221   2.732   1.573  0.3035 -0.9576  0.8564
 9064TIP3   OH251386   0.497   3.917   0.474  0.1109  0.0263 -0.3677
 9064TIP3    H151387   0.539   3.935   0.390  1.1841 -1.9084 -0.3165
 9064TIP3    H251388   0.569   3.916   0.537  0.2257 -3.6530 -0.3195
 9065TIP3   OH251389   0.208   0.580   2.560 -0.3197  0.2350  0.1783
 9065TIP3    H151390   0.114   0.576   2.540 -0.2468 -1.5388  0.0575
 9065TIP3    H251391   0.214   0.550   2.651  0.2168 -0.7203 -0.1649
 9066TIP3   OH251392   1.155   5.892   4.499 -0.1091 -0.0092  0.5431
 9066TIP3    H151393   1.141   5.807   4.457 -1.7621  0.8060 -0.6387
 9066TIP3    H251394   1.233   5.927   4.457 -1.0969  0.3032 -1.1042
 9067TIP3   OH251395   5.038   5.024   1.906  0.0314  0.1067 -0.0557
 9067TIP3    H151396   5.085   4.965   1.965 -0.7156  0.9343  1.4344
 9067TIP3    H251397   5.103   5.052   1.842  1.0187 -0.3619  0.7228
 9068TIP3   OH251398   2.428   3.877   3.555 -0.4661 -0.3999 -0.0106
 9068TIP3    H151399   2.387   3.847   3.636 -0.7399  1.1536  0.4473
 9068TIP3    H251400   2.361   3.866   3.488 -0.3840 -1.2667  0.0317
 9069TIP3   OH251401   0.799   4.922   3.716 -0.0717  0.1623 -0.7004
 9069TIP3    H151402   0.832   4.950   3.801 -0.3476 -1.3997 -0.0525
 9069TIP3    H251403   0.813   4.998   3.659  1.2389  0.8100  0.4250
 9070TIP3   OH251404   2.139   0.612   1.698 -0.1605  0.0746  0.3844
 9070TIP3    H151405   2.126   0.698   1.737  0.8189  0.1397  0.5931
 9070TIP3    H251406   2.162   0.555   1.773  3.0630  0.4739 -0.1532
 9071TIP3   OH251407   3.407   5.771   3.576 -0.0886  0.4226  0.2027
 9071TIP3    H151408   3.365   5.724   3.648  2.9064  0.3338  2.0326
 9071TIP3    H251409   3.443   5.850   3.616  0.8411  0.8595 -1.4191
 9072TIP3   OH251410   5.207   5.944   0.943  0.6687 -0.7003 -0.6937
 9072TIP3    H151411   5.259   5.921   1.020  2.9140  2.0439 -1.2276
 9072TIP3    H251412   5.124   5.977   0.979  1.8271  0.9141  0.6486
 9073TIP3   OH251413   4.411   1.778   2.680 -0.1120  0.4521  1.0538
 9073TIP3    H151414   4.399   1.705   2.741 -1.8017 -1.0905 -0.9653
 9073TIP3    H251415   4.346   1.762   2.611  1.7158  2.0400 -1.1922
 9074TIP3   OH251416   1.935   2.438   3.719 -0.4679  0.3702  0.1080
 9074TIP3    H151417   2.029   2.438   3.700 -0.5207 -1.6623 -0.3319
 9074TIP3    H251418   1.929   2.468   3.810  0.3502  3.0653 -0.6263
 9075TIP3   OH251419   5.421   4.584   2.888 -0.1663  0.7169  0.2216
 9075TIP3    H151420   5.440   4.609   2.978 -2.3534 -1.3538  1.3641
 9075TIP3    H251421   5.437   4.490   2.885  0.6177  0.8776 -1.7906
 9076TIP3   OH251422   0.306   1.494   1.784 -0.2750 -0.7488  0.0049
 9076TIP3    H151423   0.378   1.526   1.839 -0.3487 -0.3421 -0.1309
 9076TIP3    H251424   0.228   1.536   1.821 -0.2221  0.2404 -0.9460
 9077TIP3   OH251425   2.816   2.647   1.303  0.6563  0.4292 -0.4199
 9077TIP3    H151426   2.734   2.690   1.278 -0.4332 -1.0766  0.3949
 9077TIP3    H251427   2.829   2.580   1.236  0.7453  0.0822 -0.0559
 9078TIP3   OH251428   0.036   3.694   4.005  0.2606  0.7199 -0.3485
 9078TIP3    H151429  -0.010   3.745   4.071 -0.7816 -0.4750 -0.1066
 9078TIP3    H251430   0.081   3.626   4.054  0.4986  0.5777 -0.7568
 9079TIP3   OH251431   2.567   4.769   3.354  0.0421  0.5994  0.0474
 9079TIP3    H151432   2.550   4.687   3.401  1.5168  0.1151 -0.2196
 9079TIP3    H251433   2.662   4.776   3.352 -0.0304  1.4760 -1.3941
 9080TIP3   OH251434   0.792   5.114   2.280  0.1144 -0.0335 -0.0417
 9080TIP3    H151435   0.743   5.148   2.355 -1.5003  0.6460 -1.3407
 9080TIP3    H251436   0.735   5.046   2.243 -0.2425  1.2407 -1.9964
 9081TIP3   OH251437   4.015   3.362   0.635  0.0376 -0.1690 -0.0225
 9081TIP3    H151438   4.041   3.450   0.663  1.3298  0.1920 -2.1192
 9081TIP3    H251439   4.001   3.314   0.716  1.0436  1.4733  1.1943
 9082TIP3   OH251440   5.407   0.036   1.425 -0.2304 -0.6156 -0.6358
 9082TIP3    H151441   5.453  -0.031   1.475 -1.2301 -0.5195  0.4663
 9082TIP3    H251442   5.321   0.042   1.466 -0.6170  0.4335 -1.5333
 9083TIP3   OH251443   0.313   1.482   2.236  0.1757 -0.3032  0.1057
 9083TIP3    H151444   0.300   1.567   2.279 -2.3213  0.5407 -2.0471
 9083TIP3    H251445   0.386   1.496   2.176 -0.0597  0.2292 -0.0555
 9084TIP3   OH251446   3.950   0.948   3.055  0.0960 -0.2273  0.1697
 9084TIP3    H151447   3.918   0.858   3.049 -0.1300 -0.2240  1.1946
 9084TIP3    H251448   4.022   0.944   3.117  0.4845  0.2016 -0.2421
 9085TIP3   OH251449   0.403   2.858   2.424 -0.1962  0.1854 -0.0034
 9085TIP3    H151450   0.494   2.863   2.395 -0.8210  1.7740 -1.8781
 9085TIP3    H251451   0.353   2.838   2.345 -1.8637  3.6466 -0.0191
 9086TIP3   OH251452   0.747   0.580   3.892  0.4467 -0.3660 -0.0229
 9086TIP3    H151453   0.817   0.516   3.907  1.7906  0.6799 -1.4699
 9086TIP3    H251454   0.700   0.584   3.976  3.8853  0.9911  2.0488
 9087TIP3   OH251455   1.613   5.455   4.267  0.5235 -0.2536 -0.2024
 9087TIP3    H151456   1.659   5.397   4.206  0.0348  0.0905 -0.9092
 9087TIP3    H251457   1.678   5.474   4.335  0.8937 -1.0953 -0.3068
 9088TIP3   OH251458   0.151   5.851   0.959  0.5746  0.1306  0.6325
 9088TIP3    H151459   0.072   5.885   1.001  0.1307  0.4403 -0.3985
 9088TIP3    H251460   0.193   5.797   1.026 -1.1380 -1.0103  0.8665
 9089TIP3   OH251461   0.119   6.717   2.022  0.5246  0.4908 -0.3061
 9089TIP3    H151462   0.164   6.799   2.042  0.9410  0.1976 -0.0381
 9089TIP3    H251463   0.172   6.677   1.952 -0.4838  1.1359 -1.4887
 9090TIP3   OH251464   3.553   1.444   2.623 -0.0689  0.1955  0.1943
 9090TIP3    H151465   3.572   1.359   2.582  1.2182 -0.7889  2.6320
 9090TIP3    H251466   3.465   1.433   2.659 -1.1941  1.0543 -2.0503
 9091TIP3   OH251467   4.990   0.494   2.193 -0.8480  0.6203 -0.4923
 9091TIP3    H151468   5.032   0.577   2.170  1.1102 -0.8531 -2.7117
 9091TIP3    H251469   4.958   0.460   2.110  2.8384 -3.0764 -0.6905
 9092TIP3   OH251470   6.031   4.828   0.459  0.4439 -0.1175  0.1877
 9092TIP3    H151471   5.970   4.760   0.431  0.7682  0.5086 -2.2581
 9092TIP3    H251472   6.079   4.789   0.532 -0.8460 -1.6916  0.2387
 9093TIP3   OH251473   2.366   1.035   2.841  0.0520  0.1384  0.0141
 9093TIP3    H151474   2.364   1.114   2.788  1.4932 -0.3199 -0.7794
 9093TIP3    H251475   2.380   1.065   2.930  3.5445  0.7371 -0.6122
 9094TIP3   OH251476   5.132   3.022   1.467  0.0599  0.5159 -0.0032
 9094TIP3    H151477   5.195   3.073   1.415  1.5443 -0.5319  0.6952
 9094TIP3    H251478   5.111   2.947   1.411  0.1993  0.3634  0.1470
 9095TIP3   OH251479   4.713   3.167   2.920  0.3631 -0.3967  0.7911
 9095TIP3    H151480   4.731   3.260   2.911  1.1470 -0.6359 -0.3171
 9095TIP3    H251481   4.733   3.148   3.012  2.2648  0.1252  0.5358
 9096TIP3   OH251482   4.560   5.447   1.958 -0.2700  0.1773 -0.0727
 9096TIP3    H151483   4.552   5.495   2.041 -0.5341  0.0580 -0.0287
 9096TIP3    H251484   4.520   5.505   1.893  0.6442  0.6196 -0.2546
 9097TIP3   OH251485   1.596   4.919   2.424 -0.2758  0.3109  0.1686
 9097TIP3    H151486   1.551   4.904   2.507 -0.9918  0.6558 -0.1427
 9097TIP3    H251487   1.615   4.832   2.390 -0.1891  0.1673  0.5781
 9098TIP3   OH251488   0.699   3.020   1.035  0.0459 -0.1048  0.3573
 9098TIP3    H151489   0.677   2.931   1.008  1.3104 -0.0462 -0.9720
 9098TIP3    H251490   0.792   3.017   1.057 -0.0422  0.7548  0.9235
 9099TIP3   OH251491   6.327   3.598   1.613 -0.2433 -0.1786  0.4159
 9099TIP3    H151492   6.421   3.611   1.625  0.2213 -2.3814 -0.2402
 9099TIP3    H251493   6.287   3.640   1.688  1.3169  0.3016  1.0176
 9100TIP3   OH251494   4.481   1.473   0.906  0.9106 -0.2846  0.0391
 9100TIP3    H151495   4.571   1.443   0.919  1.1859  0.0244 -1.0603
 9100TIP3    H251496   4.427   1.400   0.937  1.5338 -0.4979  0.6489
 9101TIP3   OH251497   3.199   2.224   4.057  0.1370 -0.5198 -0.1495
 9101TIP3    H151498   3.164   2.206   4.145 -0.3151 -1.8046 -0.5642
 9101TIP3    H251499   3.214   2.318   4.056  1.1863 -0.6111  1.6822
 9102TIP3   OH251500   1.137   5.286   2.705  0.9877 -0.3782  0.4647
 9102TIP3    H151501   1.120   5.264   2.613 -1.0183 -1.9058  1.1083
 9102TIP3    H251502   1.138   5.381   2.708 -0.4621 -0.2784 -0.9438
 9103TIP3   OH251503   6.627   0.208   3.290  0.2872  0.6772  0.0686
 9103TIP3    H151504   6.572   0.263   3.346  1.1588  2.1943 -0.5036
 9103TIP3    H251505   6.567   0.141   3.256 -0.4407  0.2411  2.0858
 9104TIP3   OH251506   3.549   6.774   2.686  0.2591 -0.1057 -0.5825
 9104TIP3    H151507   3.468   6.739   2.650 -1.0672  3.0192 -0.9798
 9104TIP3    H251508   3.591   6.819   2.612  2.3739 -1.5816 -0.3673
 9105TIP3   OH251509   2.541   4.745   2.303  0.0994 -0.6065  0.3125
 9105TIP3    H151510   2.474   4.804   2.339  1.4753  1.9792 -1.0652
 9105TIP3    H251511   2.493   4.687   2.245 -1.0665  0.8323 -0.2396
 9106TIP3   OH251512   2.694   5.835   2.986 -0.4447  0.2649  0.5477
 9106TIP3    H151513   2.605   5.860   3.009 -1.6546 -1.4525 -1.8480
 9106TIP3    H251514   2.702   5.855   2.893  1.4949 -0.1166  0.5919
 9107TIP3   OH251515   4.631   3.926   3.127  0.3016  0.1423 -0.2316
 9107TIP3    H151516   4.604   3.842   3.164  0.9620 -0.2062 -0.5233
 9107TIP3    H251517   4.726   3.923   3.127  0.3361  0.9398 -0.1565
 9108TIP3   OH251518   3.737   2.701   1.611 -0.2199 -0.1767  0.6138
 9108TIP3    H151519   3.674   2.644   1.654 -2.1044 -1.0416 -2.9064
 9108TIP3    H251520   3.705   2.790   1.629 -1.9093 -0.5702 -0.2384
 9109TIP3   OH251521   5.755   0.441   0.700 -0.3680 -0.3118  0.7751
 9109TIP3    H151522   5.801   0.524   0.685  1.6879 -1.5065  0.1259
 9109TIP3    H251523   5.781   0.415   0.788 -1.2547 -0.1331  1.0943
 9110TIP3   OH251524   2.163   3.656   3.513 -0.4411 -0.2454 -0.1317
 9110TIP3    H151525   2.183   3.684   3.603  0.5667 -1.2248 -0.0323
 9110TIP3    H251526   2.162   3.737   3.462  0.2357  0.1910  0.5293
 9111TIP3   OH251527   6.254   2.625   0.951 -0.0670  0.0076 -0.6704
 9111TIP3    H151528   6.195   2.686   0.996  0.7578  0.3387 -0.0101
 9111TIP3    H251529   6.273   2.667   0.867  1.0691  1.0467  0.0716
 9112TIP3   OH251530   1.179   0.015   1.636 -0.7115  0.7635 -0.3809
 9112TIP3    H151531   1.095  -0.017   1.668 -1.0618  0.9214 -1.1066
 9112TIP3    H251532   1.184   0.106   1.666  0.9181 -0.2595  2.9042
 9113TIP3   OH251533   2.819   6.726   3.072  0.1749  0.3299 -0.3823
 9113TIP3    H151534   2.778   6.807   3.042 -0.5420  0.3416  0.5769
 9113TIP3    H251535   2.824   6.735   3.167 -0.6123 -1.0474 -0.1798
 9114TIP3   OH251536   6.650   2.502   2.802  0.9731 -0.2359  0.3201
 9114TIP3    H151537   6.555   2.501   2.815  0.9581 -0.1978  0.2114
 9114TIP3    H251538   6.681   2.570   2.863  0.8965 -0.0256  0.1269
 9115TIP3   OH251539   6.627   1.946   1.852  0.6206  0.2486  0.1004
 9115TIP3    H151540   6.675   1.959   1.934 -1.2918 -0.8556  1.4736
 9115TIP3    H251541   6.654   1.859   1.822  0.2545  0.0545  0.3293
 9116TIP3   OH251542   2.571   2.621   3.439  0.5432  0.1215 -0.8203
 9116TIP3    H151543   2.511   2.652   3.506 -1.2535  0.1606 -2.3551
 9116TIP3    H251544   2.621   2.551   3.481 -1.4215 -0.7288  0.2204
 9117TIP3   OH251545   6.120   2.226   2.669  0.6214 -0.0509 -0.2937
 9117TIP3    H151546   6.067   2.305   2.676  1.7036  0.5958  1.4659
 9117TIP3    H251547   6.060   2.154   2.691  0.3996  0.6495  1.5412
 9118TIP3   OH251548   4.266   6.324   3.357  0.8643 -0.1349 -0.8412
 9118TIP3    H151549   4.263   6.229   3.354  1.6063 -0.1442 -1.5357
 9118TIP3    H251550   4.230   6.346   3.443  0.4119 -1.0192 -0.7928
 9119TIP3   OH251551   4.281   2.235   2.736  0.3289 -0.3493 -0.2121
 9119TIP3    H151552   4.285   2.210   2.644  0.0565  0.1589 -0.3601
 9119TIP3    H251553   4.302   2.328   2.737  1.7182 -0.6288  0.3807
 9120TIP3   OH251554   5.521   2.453   1.562  0.1131  0.4271 -0.0213
 9120TIP3    H151555   5.439   2.418   1.596  1.1050  1.1650  3.6028
 9120TIP3    H251556   5.502   2.545   1.545 -0.4018  0.0451 -1.6270
 9121TIP3   OH251557   0.979   0.491   3.096 -0.1338 -0.5910  0.2955
 9121TIP3    H151558   0.962   0.488   3.190  1.9474  0.9053  0.7915
 9121TIP3    H251559   1.018   0.577   3.082 -0.3702 -0.7982 -1.9610
 9122TIP3   OH251560   6.733   0.156   1.932 -0.8463  0.2160  0.4263
 9122TIP3    H151561   6.706   0.070   1.903 -2.4449  0.7024  0.3707
 9122TIP3    H251562   6.695   0.216   1.868  0.0281  0.9713  0.6021
 9123TIP3   OH251563   1.282   5.473   1.766 -0.8299  0.0931  0.2897
 9123TIP3    H151564   1.344   5.435   1.704 -0.7337  0.1449  0.3546
 9123TIP3    H251565   1.258   5.401   1.824 -2.2912 -0.4278 -0.8916
 9124TIP3   OH251566   4.389   3.267   1.466 -0.0465 -0.3380  0.1724
 9124TIP3    H151567   4.439   3.312   1.534  0.0348  0.1253 -0.1919
 9124TIP3    H251568   4.406   3.174   1.482  1.6872 -0.1874 -0.4831
 9125TIP3   OH251569   1.814   0.550   2.437  0.1834  0.5699  0.5016
 9125TIP3    H151570   1.868   0.556   2.515 -0.2505  2.3674  0.7103
 9125TIP3    H251571   1.817   0.638   2.399  0.0483 -0.1606 -1.2794
 9126TIP3   OH251572   0.227   0.902   1.399  0.1766  0.7267 -0.3963
 9126TIP3    H151573   0.186   0.822   1.365  0.2850  0.3422  0.3739
 9126TIP3    H251574   0.188   0.916   1.485  2.3073 -0.2023  0.8161
 9127TIP3   OH251575   5.915   4.048   2.407  0.1607  0.1917  0.2029
 9127TIP3    H151576   5.967   4.117   2.366  0.0937  0.7718  1.0643
 9127TIP3    H251577   5.833   4.092   2.432  0.7296  0.2120  2.1681
 9128TIP3   OH251578   5.738   5.237   0.675  0.6195 -0.2125  0.2077
 9128TIP3    H151579   5.767   5.162   0.623  0.0076 -0.1062 -0.2901
 9128TIP3    H251580   5.765   5.313   0.624  1.1627 -0.0878  0.6701
 9129TIP3   OH251581   6.501   0.206   3.641  0.0713  0.0124  0.0965
 9129TIP3    H151582   6.535   0.119   3.661 -0.2083  0.1754  1.3573
 9129TIP3    H251583   6.435   0.222   3.709 -0.2794  0.9773 -0.4571
 9130TIP3   OH251584   1.460   1.009   1.050 -0.6469  0.2302  0.5550
 9130TIP3    H151585   1.394   1.055   1.103 -1.0415  0.4592 -0.1255
 9130TIP3    H251586   1.499   0.946   1.111 -0.0259  1.5143  1.5378
 9131TIP3   OH251587   2.671   0.823   1.350 -0.3526 -0.1056 -0.0149
 9131TIP3    H151588   2.661   0.885   1.277 -0.4386 -0.4448 -0.2933
 9131TIP3    H251589   2.596   0.764   1.342 -0.4035 -0.1008  0.3967
 9132TIP3   OH251590   4.040   6.356   3.837 -0.4790 -0.5109 -0.1296
 9132TIP3    H151591   3.992   6.297   3.895 -0.2142 -0.4110  0.1951
 9132TIP3    H251592   4.089   6.414   3.897  0.7067 -1.1512 -0.4481
 9133TIP3   OH251593   2.142   3.806   2.152 -0.0978 -0.0059  0.2444
 9133TIP3    H151594   2.165   3.820   2.244  0.8961 -0.6296  0.1045
 9133TIP3    H251595   2.208   3.854   2.103 -0.2810 -0.1528 -0.1509
 9134TIP3   OH251596   5.519   1.331   2.075  0.3999  0.2696 -1.0341
 9134TIP3    H151597   5.444   1.366   2.123  0.3478 -1.4877  0.2449
 9134TIP3    H251598   5.549   1.405   2.022 -0.6702  1.7650  0.3219
 9135TIP3   OH251599   5.744   2.935   3.850  0.2253  0.6222  0.3362
 9135TIP3    H151600   5.732   3.018   3.895  0.6455  0.6165  0.4617
 9135TIP3    H251601   5.672   2.931   3.787 -1.7907 -0.4478  2.5638
 9136TIP3   OH251602   5.429   3.790   1.082  0.4758  0.0791 -0.2240
 9136TIP3    H151603   5.520   3.773   1.058  0.6329  1.7868 -0.9737
 9136TIP3    H251604   5.390   3.828   1.004 -0.5029  0.6637  0.5256
 9137TIP3   OH251605   4.158   2.646   3.788 -0.3249  0.2660 -0.3221
 9137TIP3    H151606   4.120   2.727   3.821  1.6794  1.0326  0.2442
 9137TIP3    H251607   4.139   2.581   3.856  1.4416  1.2170  1.1788
 9138TIP3   OH251608   2.340   0.350   1.677  0.3500 -0.6007 -0.8183
 9138TIP3    H151609   2.411   0.288   1.663  1.1788  0.3364 -0.8496
 9138TIP3    H251610   2.328   0.393   1.592  0.9015  0.4246 -0.3994
 9139TIP3   OH251611   6.522   4.511   1.999  0.1314  0.1596 -0.2432
 9139TIP3    H151612   6.544   4.496   2.091 -0.8178  0.7060  0.0860
 9139TIP3    H251613   6.497   4.425   1.966 -1.4969  0.2961  0.5734
 9140TIP3   OH251614   1.155   3.215   0.999 -0.4602  0.2312  0.2599
 9140TIP3    H151615   1.191   3.286   1.052 -2.6905  0.9861  0.8708
 9140TIP3    H251616   1.227   3.190   0.941  1.6543  0.2911  2.6598
 9141TIP3   OH251617   6.711   3.958   3.927 -0.1238 -0.0081 -0.0053
 9141TIP3    H151618   6.713   4.051   3.906 -0.7061 -0.0471 -0.2589
 9141TIP3    H251619   6.669   3.918   3.851  0.5457 -0.5362 -0.1047
 9142TIP3   OH251620   3.153   2.852   2.708 -0.0255  0.0041  0.2904
 9142TIP3    H151621   3.133   2.759   2.698 -0.5870  0.0938  0.5447
 9142TIP3    H251622   3.079   2.897   2.665  0.7857  0.3292 -0.8283
 9143TIP3   OH251623   3.520   3.017   2.212  0.0462  0.7572  0.0962
 9143TIP3    H151624   3.503   2.947   2.276  0.1822  2.3260  1.9378
 9143TIP3    H251625   3.433   3.044   2.183 -0.1817  1.7238  1.5799
 9144TIP3   OH251626   6.561   3.709   1.643  0.1286 -0.2061 -0.6562
 9144TIP3    H151627   6.614   3.778   1.682 -0.1133  0.5433 -1.5933
 9144TIP3    H251628   6.602   3.693   1.558 -0.8269  0.0413 -1.1837
 9145TIP3   OH251629   0.361   2.096   2.403 -0.0821 -0.3282  0.2383
 9145TIP3    H151630   0.356   2.191   2.418  1.1820 -0.0180 -1.0473
 9145TIP3    H251631   0.392   2.089   2.312 -3.0336 -1.9876 -0.7742
 9146TIP3   OH251632   0.624   2.255   1.083 -0.4160 -0.0492 -0.4035
 9146TIP3    H151633   0.640   2.340   1.041 -1.4060  1.5023  2.1441
 9146TIP3    H251634   0.711   2.220   1.100  0.0846  1.3818  0.1958
 9147TIP3   OH251635   5.654   4.246   2.997 -0.2198 -0.0202 -0.1331
 9147TIP3    H151636   5.672   4.223   3.088 -0.8174  0.2260  0.0571
 9147TIP3    H251637   5.715   4.317   2.978 -0.6164  0.4540  0.3276
 9148TIP3   OH251638   3.907   1.655   3.125  0.2855  0.4243  0.1649
 9148TIP3    H151639   3.872   1.676   3.212  0.6284 -2.7078  1.1916
 9148TIP3    H251640   3.837   1.607   3.082  0.6048  0.8046 -0.8160
 9149TIP3   OH251641   2.265   6.713   1.809 -0.3742 -0.4040 -0.0949
 9149TIP3    H151642   2.187   6.668   1.841 -0.7535 -0.3396 -0.8957
 9149TIP3    H251643   2.268   6.693   1.715  1.0143 -1.0388  0.0629
 9150TIP3   OH251644   5.044   1.682   2.767 -0.4408 -0.0733 -0.2701
 9150TIP3    H151645   5.113   1.618   2.786 -2.5274 -2.3742 -0.0084
 9150TIP3    H251646   5.064   1.756   2.825  2.6569  0.1047 -1.3502
 9151TIP3   OH251647   1.040   6.840   0.855  0.3215 -0.6512 -0.2700
 9151TIP3    H151648   1.089   6.762   0.880  1.5395  0.2536  0.2740
 9151TIP3    H251649   0.987   6.861   0.933  1.8350  0.4211  0.5366
 9152TIP3   OH251650   1.360   5.520   2.116 -0.3324  0.2747 -0.7621
 9152TIP3    H151651   1.453   5.522   2.094 -0.3318  3.5204 -0.8818
 9152TIP3    H251652   1.315   5.513   2.032 -0.1840  2.1000 -1.0284
 9153TIP3   OH251653   5.352   5.717   2.122 -0.5935 -0.0300 -0.2646
 9153TIP3    H151654   5.350   5.794   2.066  1.5522 -0.3727 -0.9117
 9153TIP3    H251655   5.361   5.752   2.211  2.2209  0.5830 -0.6755
 9154TIP3   OH251656   6.060   5.562   2.616  0.1029  0.0444  0.0377
 9154TIP3    H151657   6.121   5.517   2.558 -0.3281  0.2610 -0.6000
 9154TIP3    H251658   6.029   5.637   2.565 -0.1159  0.3712  0.6330
 9155TIP3   OH251659   2.637   3.179   1.104 -0.0063  0.0391  0.1122
 9155TIP3    H151660   2.704   3.117   1.132 -1.7001 -0.7579  2.7456
 9155TIP3    H251661   2.587   3.198   1.183 -2.3874  1.2323 -1.5572
 9156TIP3   OH251662   0.963   1.536   2.588  0.0652  0.3674  0.0169
 9156TIP3    H151663   1.003   1.605   2.535  1.0325  0.5780  0.9735
 9156TIP3    H251664   0.879   1.573   2.616 -0.3178  0.3691 -1.0885
 9157TIP3   OH251665   3.769   4.817   2.112  0.1702  0.1637  0.9628
 9157TIP3    H151666   3.729   4.735   2.139 -0.1026  0.2898  0.9432
 9157TIP3    H251667   3.862   4.808   2.136 -0.2044  0.6146  2.7557
 9158TIP3   OH251668   4.549   1.417   1.318 -0.0888  0.6162 -0.5944
 9158TIP3    H151669   4.511   1.391   1.402  0.5796 -1.1055 -0.7745
 9158TIP3    H251670   4.474   1.433   1.261 -0.5451  1.5316  0.2448
 9159TIP3   OH251671   1.821   2.803   1.158 -0.0970  0.2792 -0.7899
 9159TIP3    H151672   1.779   2.860   1.094 -0.0216  0.8120 -0.3686
 9159TIP3    H251673   1.914   2.805   1.134  0.1091  1.4032  0.0219
 9160TIP3   OH251674   4.538   2.690   3.506  0.1451  0.0303  0.4353
 9160TIP3    H151675   4.468   2.728   3.559 -0.2267  0.8333 -0.6034
 9160TIP3    H251676   4.531   2.595   3.522 -2.5946 -0.1635 -1.2429
 9161TIP3   OH251677   2.729   0.980   2.931 -0.2209  0.3508  0.2863
 9161TIP3    H151678   2.689   1.067   2.943  0.1828  0.2567  2.8703
 9161TIP3    H251679   2.796   0.975   2.999 -0.8596 -2.3425  0.8350
 9162TIP3   OH251680   2.479   5.274   3.635  0.5310  0.1703  0.2192
 9162TIP3    H151681   2.500   5.351   3.688  0.3806  0.1282  0.3407
 9162TIP3    H251682   2.487   5.200   3.696  0.2101  0.1372  0.2233
 9163TIP3   OH251683   5.917   3.856   1.715  0.1614 -0.0857  0.2355
 9163TIP3    H151684   5.879   3.772   1.737 -2.5447  0.5412 -1.5599
 9163TIP3    H251685   5.895   3.869   1.622  2.8048  1.4628 -0.3060
 9164TIP3   OH251686   4.281   6.810   1.426 -0.8475 -0.0003  0.7462
 9164TIP3    H151687   4.245   6.831   1.513 -1.5842 -0.1475  0.4830
 9164TIP3    H251688   4.217   6.751   1.387 -1.0593  0.8905 -0.3091
 9165TIP3   OH251689   2.910   2.615   3.049  0.3372  0.3201  0.6058
 9165TIP3    H151690   2.841   2.582   3.106  1.0162 -0.4543  1.0010
 9165TIP3    H251691   2.864   2.643   2.970 -0.4506 -0.0408  0.9217
 9166TIP3   OH251692   4.994   0.412   4.334  0.4427  0.4513 -0.2393
 9166TIP3    H151693   5.004   0.318   4.316 -0.8172  0.1319  0.6132
 9166TIP3    H251694   4.928   0.441   4.271  2.3614  1.2970 -1.9957
 9167TIP3   OH251695   2.059   2.004   4.637 -1.1892 -0.1599 -0.2031
 9167TIP3    H151696   2.068   1.912   4.614 -0.9301 -0.2040  0.0717
 9167TIP3    H251697   2.036   2.004   4.730 -1.6193  0.0391 -0.3030
 9168TIP3   OH251698   0.886   2.138   1.098 -0.3808 -0.3843 -0.0581
 9168TIP3    H151699   0.974   2.157   1.068 -0.1068  0.2535  1.0764
 9168TIP3    H251700   0.896   2.120   1.192 -1.3664 -0.9621 -0.0502
 9169TIP3   OH251701   2.999   3.030   2.070 -0.1921 -0.2574 -1.0867
 9169TIP3    H151702   3.016   3.047   1.977 -0.2643 -0.0189 -1.0558
 9169TIP3    H251703   3.046   2.949   2.088  0.4517  0.0952 -1.1495
 9170TIP3   OH251704   3.884   0.259   2.796  0.1989 -0.1701  0.2538
 9170TIP3    H151705   3.789   0.271   2.801  0.0315 -1.2435 -0.0870
 9170TIP3    H251706   3.913   0.324   2.733 -0.3808 -0.1415  0.0102
 9171TIP3   OH251707   4.324   3.376   4.097 -0.2574 -0.0791  0.1738
 9171TIP3    H151708   4.253   3.440   4.104  0.1181  0.2654  0.8888
 9171TIP3    H251709   4.280   3.295   4.069 -0.7911  0.3697 -0.3215
 9172TIP3   OH251710   1.514   5.979   1.135 -0.7568 -0.0269 -0.0855
 9172TIP3    H151711   1.524   6.039   1.209 -1.7778 -2.3521  2.0891
 9172TIP3    H251712   1.423   5.949   1.141 -0.3111 -1.7277 -1.1090
 9173TIP3   OH251713   2.531   1.730   2.697  0.2736 -0.5915 -0.1322
 9173TIP3    H151714   2.570   1.693   2.618 -0.9092  0.1495 -1.0886
 9173TIP3    H251715   2.498   1.815   2.670 -1.5857 -0.9899  0.7414
 9174TIP3   OH251716   5.420   4.259   2.371  0.5853 -0.2389 -0.3851
 9174TIP3    H151717   5.450   4.318   2.441  0.2585  1.1483 -1.3708
 9174TIP3    H251718   5.499   4.236   2.323  0.7695 -0.9569  0.2374
 9175TIP3   OH251719   0.585   4.244   1.513  0.0255  0.4346 -0.1120
 9175TIP3    H151720   0.546   4.292   1.440  0.2206  1.0631  0.1918
 9175TIP3    H251721   0.664   4.205   1.477  1.1833  2.3445  0.2206
 9176TIP3   OH251722   6.705   3.165   1.554  0.2643 -0.3273  0.5545
 9176TIP3    H151723   6.797   3.143   1.567  0.5378  1.1542  1.4283
 9176TIP3    H251724   6.671   3.094   1.500  1.5513 -1.6769  1.4167
 9177TIP3   OH251725   3.969   2.048   2.508  0.5166 -0.0496  0.4121
 9177TIP3    H151726   3.993   2.082   2.422  2.3422 -0.0039  0.9005
 9177TIP3    H251727   3.874   2.060   2.513  0.5811  1.3073 -1.0013
 9178TIP3   OH251728   0.905   3.964   3.285 -0.1111  0.2745  0.3093
 9178TIP3    H151729   0.848   3.954   3.361  1.6499 -0.2873  1.6039
 9178TIP3    H251730   0.877   4.046   3.245 -2.0885 -0.1875  0.6455
 9179TIP3   OH251731   3.459   4.926   0.949  0.0633 -0.2992  0.6421
 9179TIP3    H151732   3.551   4.899   0.953  0.4336  0.7919 -0.1270
 9179TIP3    H251733   3.432   4.905   0.860 -0.7979 -1.6548  1.1786
 9180TIP3   OH251734   6.759   1.450   3.480 -0.3240  0.3978  0.5568
 9180TIP3    H151735   6.749   1.452   3.575 -0.5570  2.1237  0.5321
 9180TIP3    H251736   6.826   1.516   3.462  1.1357 -1.2569 -0.3520
 9181TIP3   OH251737   1.690   3.618   1.241 -0.0305 -0.1634 -0.5130
 9181TIP3    H151738   1.623   3.656   1.185  1.3427  1.7504 -0.9818
 9181TIP3    H251739   1.681   3.664   1.324  1.1779  0.7358 -0.8456
 9182TIP3   OH251740   0.412   4.091   2.998 -0.4915  0.5055 -0.0836
 9182TIP3    H151741   0.411   4.020   2.934  0.0406 -0.0399  0.5106
 9182TIP3    H251742   0.398   4.170   2.946  0.0854  0.0814 -0.8929
 9183TIP3   OH251743   2.925   5.917   3.203  0.0589 -0.8214  0.1232
 9183TIP3    H151744   2.832   5.894   3.212 -0.0876 -0.3272 -0.1122
 9183TIP3    H251745   2.931   6.007   3.235  0.6975 -1.2840  1.3677
 9184TIP3   OH251746   4.846   5.980   3.555  0.0792  0.1530  0.1701
 9184TIP3    H151747   4.823   5.980   3.648  0.2855  0.0954  0.2210
 9184TIP3    H251748   4.771   5.940   3.511  0.0141  0.1134  0.3183
 9185TIP3   OH251749   3.293   3.027   1.155 -0.0929 -0.2472  0.3123
 9185TIP3    H151750   3.373   2.994   1.114 -0.1972 -0.2732  0.1268
 9185TIP3    H251751   3.279   3.112   1.114 -0.8247 -0.7635 -0.5587
 9186TIP3   OH251752   6.781   0.878   1.965  0.0786  0.6279 -0.0516
 9186TIP3    H151753   6.834   0.835   1.898 -0.0385 -0.9742  0.8369
 9186TIP3    H251754   6.691   0.873   1.931 -0.0187 -0.4411  0.3200
 9187TIP3   OH251755   4.851   5.351   3.112 -0.0150 -0.4012 -0.0883
 9187TIP3    H151756   4.946   5.353   3.125 -0.1215 -0.8942  0.8583
 9187TIP3    H251757   4.816   5.401   3.186 -0.5822 -1.9323  0.7107
 9188TIP3   OH251758   5.517   0.545   3.361  0.1642 -0.1666  0.2956
 9188TIP3    H151759   5.513   0.514   3.452  0.9069  0.5004  0.5606
 9188TIP3    H251760   5.610   0.547   3.340  0.1056  1.2303  0.0633
 9189TIP3   OH251761   5.696   2.061   3.272 -0.6551 -0.6462 -0.0630
 9189TIP3    H151762   5.769   2.058   3.334 -1.5199 -0.2544  0.9942
 9189TIP3    H251763   5.721   1.998   3.204  1.8547  1.3061 -1.1091
 9190TIP3   OH251764   4.139   6.163   1.364  0.0796  0.1606 -0.2231
 9190TIP3    H151765   4.104   6.197   1.282 -0.9790  0.8572  0.4832
 9190TIP3    H251766   4.217   6.215   1.382 -0.4578  0.9477 -0.1169
 9191TIP3   OH251767   1.193   0.156   1.194  0.0097 -0.1119  0.2612
 9191TIP3    H151768   1.251   0.214   1.145 -1.5140  0.0648 -1.4538
 9191TIP3    H251769   1.236   0.070   1.190 -0.5484 -0.3495 -2.4156
 9192TIP3   OH251770   2.700   6.002   1.153  0.3823 -0.6274  0.1699
 9192TIP3    H151771   2.681   5.911   1.175  0.4761 -0.8059 -0.4558
 9192TIP3    H251772   2.763   6.030   1.219 -0.7109 -0.5715  1.2120
 9193TIP3   OH251773   5.097   4.079   1.080  0.2305  0.3573 -0.1356
 9193TIP3    H151774   5.042   4.011   1.041  0.3353 -0.2307  0.6860
 9193TIP3    H251775   5.184   4.062   1.044  0.5216 -0.7710  1.0160
 9194TIP3   OH251776   0.878   0.612   1.577  0.1704 -0.1811 -0.0893
 9194TIP3    H151777   0.936   0.599   1.502  0.8417  0.5819  0.2774
 9194TIP3    H251778   0.906   0.546   1.640 -1.5361 -1.9960 -1.1172
 9195TIP3   OH251779   5.152   4.480   1.155  0.1191  0.0187  0.1447
 9195TIP3    H151780   5.140   4.451   1.065  1.0494 -0.8047  0.2670
 9195TIP3    H251781   5.247   4.485   1.166  0.0172  0.1293  1.0767
 9196TIP3   OH251782   0.670   3.649   3.535 -0.5726  0.0528 -0.2424
 9196TIP3    H151783   0.679   3.568   3.586 -0.6060 -0.0197 -0.3502
 9196TIP3    H251784   0.643   3.715   3.599  0.2262  0.1587 -0.0052
 9197TIP3   OH251785   3.266   3.038   2.879 -0.1566  0.2041  0.4775
 9197TIP3    H151786   3.269   3.008   2.788 -2.2461 -1.8147  0.9787
 9197TIP3    H251787   3.330   2.983   2.925  0.6027  0.9433  0.3255
 9198TIP3   OH251788   0.160   1.250   3.531 -0.0365  0.3398 -0.3093
 9198TIP3    H151789   0.088   1.295   3.487 -0.5888  1.5531  1.7074
 9198TIP3    H251790   0.236   1.305   3.514 -0.4555  1.3870  1.0690
 9199TIP3   OH251791   5.421   1.019   3.120 -0.3430 -0.5089 -0.4971
 9199TIP3    H151792   5.393   0.939   3.164  1.4849 -1.1483 -0.4051
 9199TIP3    H251793   5.513   1.004   3.098 -0.6055  0.6344 -2.6666
 9200TIP3   OH251794   0.973   2.870   2.058  0.1101  0.5309  0.1519
 9200TIP3    H151795   0.954   2.798   2.117  0.0353  0.9303  0.6213
 9200TIP3    H251796   1.063   2.855   2.030 -0.0868 -0.0441 -0.1887
 9201TIP3   OH251797   1.443   6.248   1.953  0.3636 -0.1348  0.3189
 9201TIP3    H151798   1.521   6.243   2.009  0.6357  0.6989  0.0312
 9201TIP3    H251799   1.449   6.334   1.912 -0.1162 -0.5197 -0.5868
 9202TIP3   OH251800   1.551   2.745   3.480 -0.1500  0.1936  0.5124
 9202TIP3    H151801   1.532   2.748   3.574  3.1891  1.7041  1.2659
 9202TIP3    H251802   1.624   2.684   3.472 -0.1813  0.3219 -1.0550
 9203TIP3   OH251803   0.614   0.295   1.805 -0.7032 -0.5153  0.2149
 9203TIP3    H151804   0.703   0.283   1.771 -1.1479 -0.2649 -1.0763
 9203TIP3    H251805   0.602   0.390   1.809 -0.7881 -0.5443  0.7517
 9204TIP3   OH251806   3.643   6.443   3.593 -0.2680  0.1862 -0.7612
 9204TIP3    H151807   3.627   6.486   3.508 -0.8086  0.2840 -0.6090
 9204TIP3    H251808   3.705   6.501   3.637 -1.8961  1.4586 -0.0708
 9205TIP3   OH251809   1.603   4.985   2.734 -0.2673  0.0749 -0.8259
 9205TIP3    H151810   1.675   4.922   2.732 -1.5442 -1.5948  1.3664
 9205TIP3    H251811   1.637   5.058   2.785  1.4587  1.6466 -3.9462
 9206TIP3   OH251812   5.365   6.335   1.611  0.0132 -0.3171  0.3089
 9206TIP3    H151813   5.294   6.276   1.636  0.1309 -0.1590  1.0342
 9206TIP3    H251814   5.411   6.354   1.693 -0.2593  1.0911  0.1674
 9207TIP3   OH251815   5.373   6.146   3.520  0.0953 -0.0682  0.4116
 9207TIP3    H151816   5.390   6.115   3.609  2.4734 -0.6032 -0.1402
 9207TIP3    H251817   5.425   6.087   3.464  0.0992  1.3438 -1.1689
 9208TIP3   OH251818   1.798   2.027   1.104 -0.0052 -0.2389  0.8880
 9208TIP3    H151819   1.796   2.027   1.200 -0.3956  1.8006  0.9332
 9208TIP3    H251820   1.881   1.985   1.081 -0.3989 -1.7367  2.0654
 9209TIP3   OH251821   4.730   1.604   2.107 -0.2040 -0.5091  0.2997
 9209TIP3    H151822   4.756   1.512   2.104  0.6465 -0.2628 -1.1293
 9209TIP3    H251823   4.811   1.651   2.129 -0.5258 -0.0747  0.5686
 9210TIP3   OH251824   5.204   4.522   1.425 -0.3579 -0.1347  0.1191
 9210TIP3    H151825   5.181   4.500   1.335  0.6849  1.0176 -0.4533
 9210TIP3    H251826   5.137   4.584   1.454 -0.4447 -0.1707 -0.0072
 9211TIP3   OH251827   5.022   3.074   2.874 -0.2848  0.1995  0.0359
 9211TIP3    H151828   5.021   2.990   2.828 -0.6680  0.5530 -0.6233
 9211TIP3    H251829   4.931   3.103   2.874  0.0832  1.5367 -1.5233
 9212TIP3   OH251830   6.068   0.080   4.484 -0.2256 -0.3566  0.2121
 9212TIP3    H151831   6.078  -0.014   4.499  1.7000 -0.0634  1.0863
 9212TIP3    H251832   6.118   0.097   4.405 -1.0556 -0.1274 -0.2782
 9213TIP3   OH251833   2.320   1.963   1.018  0.8010  0.5548  0.4974
 9213TIP3    H151834   2.411   1.981   0.993  1.2498 -0.0635  1.6120
 9213TIP3    H251835   2.306   1.871   0.995  0.8036  0.3545  1.2534
 9214TIP3   OH251836   3.432   3.608   2.210  0.5566  0.2920  0.0068
 9214TIP3    H151837   3.455   3.670   2.140  1.4985 -0.0451 -0.0046
 9214TIP3    H251838   3.432   3.661   2.290 -0.6709  0.7096 -0.2587
 9215TIP3   OH251839   5.252   2.018   1.080 -0.0972  0.0278 -0.3470
 9215TIP3    H151840   5.168   2.025   1.125  0.2655 -1.3871  0.6099
 9215TIP3    H251841   5.230   2.024   0.987 -1.2909 -0.6342 -0.1196
 9216TIP3   OH251842   1.562   1.172   2.808  0.0421  0.9291 -0.2455
 9216TIP3    H151843   1.496   1.114   2.847  0.5287  1.2354  1.0635
 9216TIP3    H251844   1.541   1.171   2.714 -0.2625 -0.9571 -0.1968
 9217TIP3   OH251845   6.083   2.710   1.163 -0.2296 -0.1215 -0.7745
 9217TIP3    H151846   6.083   2.805   1.178 -0.5764 -0.4244  1.5463
 9217TIP3    H251847   6.006   2.679   1.210 -1.8147 -1.2991 -3.8908
 9218TIP3   OH251848   3.552   6.026   2.153 -0.1147 -0.2359 -0.1441
 9218TIP3    H151849   3.646   6.041   2.143  0.2852 -2.2975 -0.0421
 9218TIP3    H251850   3.511   6.089   2.095  1.4704 -1.1308 -2.3723
 9219TIP3   OH251851   2.700   4.532   2.171 -0.4181 -0.0459 -0.2022
 9219TIP3    H151852   2.619   4.579   2.152 -0.9244 -1.2152 -1.0643
 9219TIP3    H251853   2.764   4.569   2.110 -0.3182  0.7873  0.3888
 9220TIP3   OH251854   5.103   3.236   1.632  0.6626 -0.0672 -0.0322
 9220TIP3    H151855   5.133   3.285   1.555 -0.2213 -0.4596 -0.6562
 9220TIP3    H251856   5.105   3.144   1.604  0.3408 -0.2150  0.4130
 9221TIP3   OH251857   6.058   1.715   1.032 -0.2045  0.0873 -0.1680
 9221TIP3    H151858   6.099   1.774   0.969 -1.0119 -2.3875 -3.2614
 9221TIP3    H251859   6.131   1.667   1.071  0.2354  0.6850 -0.2414
 9222TIP3   OH251860   2.425   6.712   3.977  0.2708  0.5296 -0.1445
 9222TIP3    H151861   2.410   6.806   3.972 -1.7141  0.2120 -1.5625
 9222TIP3    H251862   2.375   6.684   4.054  0.1564  0.5353 -0.2159
 9223TIP3   OH251863   5.431   2.234   1.125 -1.1096  0.0932 -0.1080
 9223TIP3    H151864   5.411   2.143   1.104  1.8932 -0.6087 -0.3966
 9223TIP3    H251865   5.395   2.246   1.213  1.0195 -2.4392  1.2722
 9224TIP3   OH251866   5.671   0.551   1.307  0.7016  0.1612 -0.1650
 9224TIP3    H151867   5.737   0.529   1.241 -0.0755 -0.0365 -0.9027
 9224TIP3    H251868   5.599   0.588   1.256  1.7364  4.2054  0.9078
 9225TIP3   OH251869   0.378   0.085   3.333 -0.0831  0.4248 -0.7206
 9225TIP3    H151870   0.425   0.104   3.251 -0.5417  0.0018 -1.0853
 9225TIP3    H251871   0.418   0.005   3.366 -0.2941  0.2687 -0.8399
 9226TIP3   OH251872   1.039   5.002   2.228 -0.1715 -0.2797 -0.3427
 9226TIP3    H151873   1.056   4.980   2.320 -0.9214 -1.8074 -0.5404
 9226TIP3    H251874   0.960   5.056   2.230 -0.3963 -0.6136 -0.1078
 9227TIP3   OH251875   6.329   5.238   1.745  0.2571  0.2267  0.8436
 9227TIP3    H151876   6.258   5.195   1.792 -1.3764  0.4948 -1.2217
 9227TIP3    H251877   6.409   5.205   1.787 -1.0128 -1.7038  1.9053
 9228TIP3   OH251878   5.000   6.834   1.472 -0.5289 -0.4796 -0.1142
 9228TIP3    H151879   5.053   6.794   1.403 -1.5856 -0.5692 -0.8995
 9228TIP3    H251880   4.985   6.924   1.442 -0.6463 -0.3934  0.1981
 9229TIP3   OH251881   2.508   1.171   2.622  0.0751  0.0755 -0.8259
 9229TIP3    H151882   2.515   1.091   2.570 -0.0889 -1.6832  1.7125
 9229TIP3    H251883   2.594   1.182   2.662 -0.2093  0.5909 -0.3453
 9230TIP3   OH251884   5.110   6.723   1.246  0.4003  0.4854 -0.2413
 9230TIP3    H151885   5.159   6.642   1.252 -2.6690 -1.4318  1.3540
 9230TIP3    H251886   5.062   6.716   1.163 -0.0739  0.5379  0.0262
 9231TIP3   OH251887   0.118   0.346   1.612 -0.0401 -0.1748  0.2492
 9231TIP3    H151888   0.113   0.416   1.677 -1.6612  0.3089 -0.3405
 9231TIP3    H251889   0.189   0.372   1.554 -0.7020  1.0591 -0.0291
 9232TIP3   OH251890   3.745   0.376   1.843 -0.1838  0.4846  0.1865
 9232TIP3    H151891   3.827   0.328   1.851 -0.3503  0.3375  1.2197
 9232TIP3    H251892   3.767   0.454   1.792  0.9916  1.2643  1.7910
 9233TIP3   OH251893   5.800   6.077   2.716 -0.5333 -0.9561 -0.3587
 9233TIP3    H151894   5.749   6.148   2.756  0.2486 -0.7219  0.2434
 9233TIP3    H251895   5.745   6.047   2.643 -1.1304 -0.1125 -0.2801
 9234TIP3   OH251896   0.670   2.454   3.982  0.0211  0.5022 -0.1950
 9234TIP3    H151897   0.672   2.385   4.048  0.1674  2.0817  1.5573
 9234TIP3    H251898   0.756   2.494   3.987  0.2939  0.1717 -1.9290
 9235TIP3   OH251899   4.864   5.287   3.442  0.3989  0.2530 -0.1939
 9235TIP3    H151900   4.848   5.382   3.436  0.5567  0.2961  0.0273
 9235TIP3    H251901   4.779   5.247   3.424 -0.1929  0.4978  1.7911
 9236TIP3   OH251902   2.927   2.163   3.523 -0.5254  0.4957  0.0392
 9236TIP3    H151903   2.986   2.208   3.583 -0.1437  0.2506 -0.1511
 9236TIP3    H251904   2.954   2.071   3.526  1.2497  0.8171 -2.4604
 9237TIP3   OH251905   3.288   1.408   2.747  0.5334  0.3076 -0.0612
 9237TIP3    H151906   3.256   1.462   2.819  0.2195  1.0256 -0.7239
 9237TIP3    H251907   3.268   1.318   2.773 -2.2142  0.7014 -0.4766
 9238TIP3   OH251908   6.153   1.566   1.899 -0.2071  0.1111  0.2871
 9238TIP3    H151909   6.216   1.607   1.958 -0.5955 -0.8912  1.4212
 9238TIP3    H251910   6.208   1.525   1.831  0.4282 -1.0832  1.4689
 9239TIP3   OH251911   4.429   5.756   3.022 -0.2724  0.2672 -0.2025
 9239TIP3    H151912   4.351   5.713   2.987 -0.6154  1.1672 -0.5752
 9239TIP3    H251913   4.482   5.777   2.945 -0.5457  1.3225 -0.1279
 9240TIP3   OH251914   0.900   0.073   1.524 -0.5655  0.2534  0.1050
 9240TIP3    H151915   0.955  -0.006   1.527 -0.1041  0.5733  0.2341
 9240TIP3    H251916   0.812   0.041   1.542 -0.4507 -0.2954 -0.2838
 9241TIP3   OH251917   6.455   0.393   3.380 -0.5601  0.4413  0.2306
 9241TIP3    H151918   6.461   0.372   3.474  1.9768 -2.0152 -0.3097
 9241TIP3    H251919   6.366   0.369   3.356 -0.8055 -0.3622  1.7537
 9242TIP3   OH251920   6.808   2.169   1.616  0.1352  0.2517 -0.4334
 9242TIP3    H151921   6.734   2.163   1.677 -0.1450 -1.4434 -0.9043
 9242TIP3    H251922   6.826   2.263   1.611 -2.0695  0.7480 -0.4027
 9243TIP3   OH251923   0.885   2.494   2.046 -0.2062  0.4127  0.5314
 9243TIP3    H151924   0.826   2.568   2.030  1.3104  1.3786 -0.9998
 9243TIP3    H251925   0.971   2.534   2.056  0.7302 -1.1372 -0.7995
 9244TIP3   OH251926   2.759   4.837   3.720 -0.0131  0.1937 -0.0132
 9244TIP3    H151927   2.709   4.756   3.712 -0.2446  0.4824 -2.6592
 9244TIP3    H251928   2.818   4.835   3.645  0.3275  2.2286  0.1565
 9245TIP3   OH251929   5.640   4.163   2.209  0.8416 -0.3376 -0.4263
 9245TIP3    H151930   5.599   4.200   2.131 -0.4478  0.3638  0.5459
 9245TIP3    H251931   5.698   4.233   2.241  2.2412 -1.0389 -1.3585
 9246TIP3   OH251932   0.326   0.505   2.942 -0.6384 -0.0907  0.3968
 9246TIP3    H151933   0.322   0.441   3.013 -0.0755 -0.6338 -0.0515
 9246TIP3    H251934   0.413   0.544   2.950 -1.8572  2.5501  2.2927
 9247TIP3   OH251935   1.790   5.516   1.119  0.6742 -0.2021 -0.5252
 9247TIP3    H151936   1.713   5.501   1.064  0.5158  1.1591 -0.7113
 9247TIP3    H251937   1.758   5.499   1.208  0.3232 -0.2145 -0.6509
 9248TIP3   OH251938   6.559   5.642   1.434  0.4424 -0.1302 -0.1679
 9248TIP3    H151939   6.476   5.601   1.410  0.5929  0.1627 -1.2395
 9248TIP3    H251940   6.535   5.726   1.472  0.1741 -0.8154  1.2648
 9249TIP3   OH251941   0.762   6.055   2.639 -0.6298  0.8278 -0.2936
 9249TIP3    H151942   0.741   6.094   2.554 -2.4660  1.2587  0.3053
 9249TIP3    H251943   0.679   6.058   2.687 -0.2462 -1.6329  0.6512
 9250TIP3   OH251944   4.398   1.998   2.837  0.2669 -0.2385 -0.5301
 9250TIP3    H151945   4.365   1.952   2.760 -0.3147  1.0340 -1.0659
 9250TIP3    H251946   4.358   2.085   2.832  1.3361  0.3310  0.4560
 9251TIP3   OH251947   2.418   0.671   2.126  0.2824  0.4539 -0.0154
 9251TIP3    H151948   2.494   0.685   2.069  1.7530  0.5621  1.8785
 9251TIP3    H251949   2.421   0.742   2.190 -1.6338  0.6463 -0.0780
 9252TIP3   OH251950   6.742   3.898   1.677 -0.5015 -0.0529 -0.1065
 9252TIP3    H151951   6.807   3.866   1.740 -0.8053 -0.4027  0.0326
 9252TIP3    H251952   6.748   3.994   1.683 -0.8268 -0.0806  0.7611
 9253TIP3   OH251953   6.243   3.220   2.997  0.5688 -0.1607 -0.2812
 9253TIP3    H151954   6.256   3.315   2.987  1.1665 -0.1179  0.7356
 9253TIP3    H251955   6.273   3.183   2.914 -0.7932  0.6199 -1.1514
 9254TIP3   OH251956   4.039   2.304   2.051  0.0194 -0.1835 -0.0030
 9254TIP3    H151957   4.037   2.340   2.140 -2.0064 -0.8776  0.2811
 9254TIP3    H251958   4.119   2.340   2.013 -0.5945  2.6442  1.0720
 9255TIP3   OH251959   5.131   3.684   2.209 -0.6810 -0.3674  0.6371
 9255TIP3    H151960   5.079   3.688   2.129  0.2642 -0.3838 -0.0081
 9255TIP3    H251961   5.187   3.607   2.197  0.6439  0.5707  0.5509
 9256TIP3   OH251962   4.000   0.543   2.016 -0.4075 -0.2580  0.1199
 9256TIP3    H151963   4.043   0.627   2.032 -0.6315 -0.0640 -0.2805
 9256TIP3    H251964   4.036   0.513   1.932 -1.2337  0.0288 -0.3493
 9257TIP3   OH251965   2.146   4.793   3.288  0.2479  0.2571 -0.1692
 9257TIP3    H151966   2.079   4.735   3.324  0.8518 -1.0361 -1.0465
 9257TIP3    H251967   2.171   4.850   3.362  0.1967 -1.1291  0.9656
 9258TIP3   OH251968   0.236   1.105   1.188  0.1287  0.4003  0.1758
 9258TIP3    H151969   0.253   1.032   1.248  0.7840  0.8264  0.5286
 9258TIP3    H251970   0.316   1.112   1.136  0.4420  1.4249  0.7606
 9259TIP3   OH251971   0.795   5.239   1.294 -0.1722 -0.2442  0.6859
 9259TIP3    H151972   0.831   5.163   1.340  0.5884 -0.5647 -0.4070
 9259TIP3    H251973   0.723   5.268   1.350  1.5040  0.1891  2.7592
 9260TIP3   OH251974   4.870   4.866   0.814  0.4072  0.1090 -0.1519
 9260TIP3    H151975   4.778   4.866   0.786 -0.0033  2.0648  1.0424
 9260TIP3    H251976   4.879   4.787   0.868 -0.9537  0.6335  0.8790
 9261TIP3   OH251977   4.460   1.103   2.956 -0.3880 -0.5031 -0.1358
 9261TIP3    H151978   4.370   1.080   2.933 -1.1183  0.7613  1.2350
 9261TIP3    H251979   4.488   1.162   2.887 -0.0442 -2.0639 -1.3691
 9262TIP3   OH251980   1.949   0.745   1.327  0.1746 -0.0532  0.6547
 9262TIP3    H151981   1.978   0.684   1.395  0.1846 -1.7399 -0.7879
 9262TIP3    H251982   1.859   0.720   1.309  0.1083  0.4995  0.1838
 9263TIP3   OH251983   4.887   0.050   2.863 -0.7410 -0.2257 -0.2208
 9263TIP3    H151984   4.963   0.102   2.838  0.4348 -1.9571 -0.4972
 9263TIP3    H251985   4.924  -0.024   2.912 -2.2360 -1.1213 -0.3724
 9264TIP3   OH251986   4.016   4.600   3.666 -0.1987  0.4824  0.3442
 9264TIP3    H151987   4.033   4.693   3.652  2.0537  0.4707  2.2679
 9264TIP3    H251988   3.984   4.595   3.756 -0.4168 -0.6025  0.2192
 9265TIP3   OH251989   0.924   1.831   3.160 -0.3467  0.3121  0.2841
 9265TIP3    H151990   0.904   1.888   3.235 -2.4995  1.0154 -0.7235
 9265TIP3    H251991   0.939   1.745   3.199  0.9698  1.1284  1.6792
 9266TIP3   OH251992   2.409   0.145   3.467 -0.0756  0.0427 -0.3778
 9266TIP3    H151993   2.477   0.211   3.480 -1.0345  0.9956 -0.0304
 9266TIP3    H251994   2.455   0.061   3.474  1.3678  0.6459 -1.8353
 9267TIP3   OH251995   0.991   3.263   4.333 -0.1522 -0.2050 -0.4858
 9267TIP3    H151996   1.048   3.302   4.399  0.1000 -0.9569 -0.2391
 9267TIP3    H251997   0.907   3.307   4.344  0.6188  1.6253 -1.5156
 9268TIP3   OH251998   3.537   0.380   0.935  0.4944  0.1865 -0.5165
 9268TIP3    H151999   3.481   0.430   0.876  1.0574  1.3945 -0.0647
 9268TIP3    H252000   3.477   0.345   1.001  0.0167 -0.1991 -1.1489
 9269TIP3   OH252001   2.787   2.684   1.577  0.6679 -0.1975  0.5555
 9269TIP3    H152002   2.717   2.624   1.605 -0.7146  0.9970 -0.1853
 9269TIP3    H252003   2.786   2.680   1.482  0.3776  1.1355  0.4747
 9270TIP3   OH252004   0.924   3.202   1.824  0.0915 -0.0283  0.0023
 9270TIP3    H152005   0.930   3.161   1.910  0.3563  1.0251  0.5088
 9270TIP3    H252006   0.841   3.251   1.826  0.0584 -0.0620 -0.3729
 9271TIP3   OH252007   3.335   3.285   0.994 -0.4046 -0.3371 -0.3180
 9271TIP3    H152008   3.387   3.272   1.073 -0.6823 -1.0652 -0.2503
 9271TIP3    H252009   3.366   3.368   0.958  0.8414 -0.7923 -0.3187
 9272TIP3   OH252010   4.772   3.421   2.896 -0.1077 -0.1871  0.2851
 9272TIP3    H152011   4.803   3.492   2.840 -0.3994  0.8445  1.3883
 9272TIP3    H252012   4.688   3.452   2.929 -1.7714 -2.3300 -1.5732
 9273TIP3   OH252013   0.001   4.610   2.811  0.2200 -0.2626  0.6830
 9273TIP3    H152014   0.065   4.579   2.747  0.7309  0.5668  0.7732
 9273TIP3    H252015  -0.070   4.546   2.808 -0.1927  0.2187 -1.3844
 9274TIP3   OH252016   2.990   5.477   3.053 -0.5844 -0.3544 -0.5131
 9274TIP3    H152017   2.908   5.524   3.036 -0.7282 -0.9314 -1.4725
 9274TIP3    H252018   2.988   5.402   2.994 -0.0054 -1.1711  0.4634
 9275TIP3   OH252019   6.439   3.687   3.055  0.0037 -0.3535 -0.0883
 9275TIP3    H152020   6.454   3.735   2.973 -0.7588  0.3161  0.1540
 9275TIP3    H252021   6.527   3.672   3.090  0.2611  1.2156  0.0164
 9276TIP3   OH252022   3.931   6.382   1.688 -0.0424 -0.4922 -0.1950
 9276TIP3    H152023   3.956   6.426   1.607  0.4620 -0.1348  0.1466
 9276TIP3    H252024   3.975   6.432   1.757  0.6281 -1.5735  0.2000
 9277TIP3   OH252025   4.495   5.273   2.641 -0.0424 -0.2039 -0.2878
 9277TIP3    H152026   4.537   5.193   2.675  1.2184  1.1991  1.6542
 9277TIP3    H252027   4.554   5.344   2.667 -2.8025  1.7403  1.1655
 9278TIP3   OH252028   5.161   5.335   1.162 -0.6788  0.0825  0.6755
 9278TIP3    H152029   5.206   5.380   1.233 -0.7295  0.9589  0.1606
 9278TIP3    H252030   5.124   5.405   1.108 -1.3492 -0.5872  0.2432
 9279TIP3   OH252031   3.311   1.303   1.758 -0.1564  0.3566  0.0913
 9279TIP3    H152032   3.390   1.284   1.708 -0.9786 -2.1343 -0.4353
 9279TIP3    H252033   3.341   1.313   1.848  0.8270 -0.0251 -0.1799
 9280TIP3   OH252034   1.408   2.623   3.158 -0.3097  0.4527  0.2088
 9280TIP3    H152035   1.478   2.569   3.192  0.6264  0.9886 -0.8231
 9280TIP3    H252036   1.451   2.704   3.131 -1.4432  1.0976  0.2683
 9281TIP3   OH252037   3.959   4.081   0.881  0.2672 -0.3144  0.2419
 9281TIP3    H152038   3.874   4.060   0.842  0.5464 -1.1617  0.0719
 9281TIP3    H252039   3.951   4.173   0.906 -0.3382 -0.0859 -0.7155
 9282TIP3   OH252040   6.127   3.117   1.405 -0.1162 -0.1899 -0.1541
 9282TIP3    H152041   6.045   3.068   1.414  0.2935 -0.8300  0.1925
 9282TIP3    H252042   6.110   3.180   1.335 -1.3309  0.5803  0.8041
 9283TIP3   OH252043   3.100   4.884   2.879  0.1386 -0.6786 -0.2017
 9283TIP3    H152044   3.054   4.909   2.798 -0.5670  0.0863  0.4173
 9283TIP3    H252045   3.167   4.822   2.850  0.3786  0.1364 -1.4693
 9284TIP3   OH252046   2.514   0.012   2.981  0.0678  0.2216 -0.1949
 9284TIP3    H152047   2.445  -0.053   2.971 -1.9984  2.1742  0.4986
 9284TIP3    H252048   2.474   0.095   2.955  1.6765  1.6804  1.5649
 9285TIP3   OH252049   2.435   5.190   0.904 -0.6948 -0.3484  0.1589
 9285TIP3    H152050   2.409   5.138   0.980 -1.6464  0.7673  0.6531
 9285TIP3    H252051   2.352   5.217   0.865 -0.2378  0.5588 -0.2204
 9286TIP3   OH252052   5.777   0.306   3.108  1.1346  1.0205  0.3762
 9286TIP3    H152053   5.817   0.288   3.022 -0.9611  1.5989 -0.7699
 9286TIP3    H252054   5.771   0.220   3.149 -0.7711  0.2107 -1.4289
 9287TIP3   OH252055   3.151   6.034   2.277 -0.2900  0.2028  0.3775
 9287TIP3    H152056   3.137   5.940   2.292  0.8970 -0.1815 -0.7060
 9287TIP3    H252057   3.194   6.064   2.357  2.2964 -0.9245 -0.4800
 9288TIP3   OH252058   4.453   3.952   2.873 -0.1162 -0.2700  0.4055
 9288TIP3    H152059   4.407   3.880   2.916 -0.7725 -0.0643  0.0615
 9288TIP3    H252060   4.397   4.028   2.888  0.3136  0.0618  0.3211
 9289TIP3   OH252061   0.951   0.037   1.111  0.3289  0.7054  0.0187
 9289TIP3    H152062   1.012   0.054   1.183  0.7245  0.8384 -0.3452
 9289TIP3    H252063   0.939  -0.058   1.112 -0.2620  0.7809  0.7386
 9290TIP3   OH252064   1.999   3.410   1.739  0.1014 -0.0852 -0.1245
 9290TIP3    H152065   2.056   3.359   1.796 -0.0236  0.1501  0.2115
 9290TIP3    H252066   1.921   3.356   1.728  0.9138 -1.0249 -1.6779
 9291TIP3   OH252067   6.462   4.010   3.035  0.3053 -0.1970  0.2610
 9291TIP3    H152068   6.543   4.049   3.001  0.7000 -0.3818  0.9654
 9291TIP3    H252069   6.423   3.966   2.960  0.7970  0.0053 -0.1168
 9292TIP3   OH252070   2.384   6.491   1.076  0.0824  0.2651  0.4789
 9292TIP3    H152071   2.477   6.511   1.090 -0.1428  1.4814  0.4217
 9292TIP3    H252072   2.381   6.441   0.995  0.6057  1.1419 -0.0920
 9293TIP3   OH252073   6.401   1.901   2.756  0.8122 -0.6080  0.1411
 9293TIP3    H152074   6.373   1.844   2.828 -1.0754  1.4615  1.1916
 9293TIP3    H252075   6.462   1.962   2.797  0.2965  0.1220 -0.1534
 9294TIP3   OH252076   2.672   5.038   1.071  0.1825 -0.2562 -0.3847
 9294TIP3    H152077   2.726   4.970   1.030  1.4562 -1.0045  2.3020
 9294TIP3    H252078   2.591   4.993   1.096  0.4022 -0.4205  0.0426
 9295TIP3   OH252079   2.369   4.135   1.593  0.1583 -0.0468 -0.5169
 9295TIP3    H152080   2.443   4.075   1.605 -0.2059 -0.5095 -0.5397
 9295TIP3    H252081   2.334   4.113   1.507 -1.3675 -1.3835  0.3838
 9296TIP3   OH252082   0.087   0.010   2.499  0.0455  0.0612 -0.2645
 9296TIP3    H152083   0.132   0.041   2.578 -0.4135  0.4031 -0.1376
 9296TIP3    H252084   0.143  -0.061   2.467  1.8460  1.8551 -1.3265
 9297TIP3   OH252085   2.023   6.553   3.025 -0.1419  0.1305  0.8189
 9297TIP3    H152086   2.078   6.544   3.103  0.8620 -1.5871 -0.0016
 9297TIP3    H252087   1.934   6.547   3.058  0.2412  0.0100  1.8928
 9298TIP3   OH252088   6.369   1.923   2.274 -0.6613  0.1111  0.2337
 9298TIP3    H152089   6.411   1.905   2.359 -0.7265  0.3483  0.3168
 9298TIP3    H252090   6.368   2.019   2.268  0.5089  0.1040 -0.6078
 9299TIP3   OH252091   4.016   2.035   2.156 -0.4515  0.2816 -0.3088
 9299TIP3    H152092   3.927   2.006   2.136 -0.5321  0.1385  0.2542
 9299TIP3    H252093   4.020   2.124   2.120 -1.0979  0.6074  0.3901
 9300TIP3   OH252094   3.112   6.385   1.747 -0.7784 -0.6803 -0.0583
 9300TIP3    H152095   3.117   6.467   1.796  0.4136 -0.7065 -0.1074
 9300TIP3    H252096   3.023   6.353   1.762 -1.1164  0.3985  0.3146
 9301TIP3   OH252097   0.580   6.410   0.599  0.4972  0.0602 -0.1667
 9301TIP3    H152098   0.508   6.350   0.618  0.0119  1.5568  3.4996
 9301TIP3    H252099   0.538   6.487   0.561  0.2950  0.3757  0.6693
 9302TIP3   OH252100   1.125   4.537   3.289  0.4376 -0.3707  0.0365
 9302TIP3    H152101   1.149   4.496   3.206  0.6920 -1.6832  0.7343
 9302TIP3    H252102   1.203   4.526   3.344 -0.0414 -0.3036  0.7382
 9303TIP3   OH252103   0.910   6.839   2.933 -0.5303 -0.3841 -0.3498
 9303TIP3    H152104   0.865   6.755   2.933 -0.0542 -0.6451  0.0747
 9303TIP3    H252105   0.884   6.881   2.850 -0.3456 -1.1702 -0.8085
 9304TIP3   OH252106   0.171   4.208   3.972  0.1406 -0.3672 -0.4269
 9304TIP3    H152107   0.095   4.183   3.919 -0.1428 -1.7011  0.5603
 9304TIP3    H252108   0.134   4.244   4.053  0.5423 -1.2597  0.1704
 9305TIP3   OH252109   6.436   3.871   1.279  0.4930 -0.5718 -0.0756
 9305TIP3    H152110   6.496   3.805   1.244 -1.4627 -2.2849 -0.3414
 9305TIP3    H252111   6.429   3.937   1.210  0.0525 -1.6950 -1.1268
 9306TIP3   OH252112   1.066   1.235   2.399  0.2724 -0.3177 -0.0272
 9306TIP3    H152113   0.997   1.298   2.377 -0.1946 -0.9497 -0.3920
 9306TIP3    H252114   1.019   1.153   2.417  0.5399  0.1386  3.5571
 9307TIP3   OH252115   0.377   5.585   1.550  0.0797 -0.1483  0.5146
 9307TIP3    H152116   0.389   5.510   1.493  0.6500 -0.5215  1.1060
 9307TIP3    H252117   0.414   5.557   1.634  1.1771  1.1253  0.4848
 9308TIP3   OH252118   1.584   2.839   3.219  0.0541 -0.3394  0.1224
 9308TIP3    H152119   1.570   2.823   3.313  0.4556  1.8081  0.6064
 9308TIP3    H252120   1.544   2.925   3.203  0.3450 -0.4858 -1.5888
 9309TIP3   OH252121   4.584   4.946   1.366  0.2363  0.1090  0.0231
 9309TIP3    H152122   4.608   4.875   1.306 -0.5131  0.0968 -0.2689
 9309TIP3    H252123   4.668   4.988   1.388  0.5698 -0.1993 -0.6390
 9310TIP3   OH252124   1.375   0.671   1.162  0.4215  0.2384  0.0337
 9310TIP3    H152125   1.458   0.672   1.210  0.6224 -0.0786 -0.3003
 9310TIP3    H252126   1.401   0.675   1.070  0.0894 -0.3756 -0.0923
 9311TIP3   OH252127   0.280   3.588   2.955  0.0453  0.2474 -0.6934
 9311TIP3    H152128   0.361   3.544   2.981  0.5666  2.3881  1.7673
 9311TIP3    H252129   0.307   3.673   2.922 -1.1481  0.6189 -0.7897
 9312TIP3   OH252130   4.093   2.268   0.891 -0.8831 -0.1062 -0.2578
 9312TIP3    H152131   4.074   2.222   0.810 -1.3364 -2.4621  1.0710
 9312TIP3    H252132   4.181   2.238   0.915  0.0282  1.9996 -0.7386
 9313TIP3   OH252133   4.544   3.367   1.684 -0.3594 -0.0571  0.3600
 9313TIP3    H152134   4.630   3.329   1.700  0.5746  1.5912 -0.5176
 9313TIP3    H252135   4.560   3.461   1.675 -1.9769  0.1154 -1.5380
 9314TIP3   OH252136   6.217   3.707   1.865  0.3719  0.3808  0.0268
 9314TIP3    H152137   6.129   3.688   1.830  0.7404 -1.2209 -0.0863
 9314TIP3    H252138   6.234   3.636   1.926  2.5768 -0.7733 -1.7714
 9315TIP3   OH252139   5.152   0.450   2.624  0.1671 -0.2640  0.5926
 9315TIP3    H152140   5.087   0.455   2.554  0.4593 -2.5062  0.0865
 9315TIP3    H252141   5.137   0.365   2.665  2.4714 -0.6800  0.7383
 9316TIP3   OH252142   2.330   1.956   1.287  0.5345 -0.4148  0.3508
 9316TIP3    H152143   2.373   2.031   1.329 -0.2901  0.7060 -0.7459
 9316TIP3    H252144   2.333   1.976   1.194  0.7459 -2.0106 -0.0092
 9317TIP3   OH252145   4.193   3.950   3.018  0.0628 -0.3669  0.3259
 9317TIP3    H152146   4.203   4.045   3.005 -1.2798 -0.2281  0.2188
 9317TIP3    H252147   4.145   3.942   3.100 -0.6499 -0.9236 -0.1424
 9318TIP3   OH252148   1.934   5.438   1.397 -0.7012  0.1619 -0.7028
 9318TIP3    H152149   1.872   5.446   1.468 -0.2009 -0.2811 -0.2026
 9318TIP3    H252150   1.948   5.527   1.366 -1.6812  0.2488 -0.9159
 9319TIP3   OH252151   2.763   5.588   3.082 -1.0384 -0.3959 -0.0480
 9319TIP3    H152152   2.687   5.529   3.083 -1.1134 -0.2886  0.9312
 9319TIP3    H252153   2.729   5.671   3.050 -0.8720 -0.9322 -1.7515
 9320TIP3   OH252154   6.277   0.148   1.120  0.0078  0.0633 -0.2710
 9320TIP3    H152155   6.200   0.206   1.118  0.8313  1.1960 -0.3220
 9320TIP3    H252156   6.289   0.127   1.212 -0.2805  0.0091 -0.2458
 9321TIP3   OH252157   2.024   0.419   0.599  0.0406 -0.0398  0.1723
 9321TIP3    H152158   1.953   0.396   0.659 -1.5348  1.2647 -1.0850
 9321TIP3    H252159   1.991   0.495   0.550  1.4666 -0.6570 -1.9187
 9322TIP3   OH252160   0.804   2.036   1.903  0.3380 -0.0154  0.0544
 9322TIP3    H152161   0.778   2.116   1.858 -0.3748 -1.5143 -2.4124
 9322TIP3    H252162   0.727   1.980   1.900  1.3732 -1.5113 -0.0672
 9323TIP3   OH252163   1.941   2.283   2.130 -0.2986 -0.6026  0.1771
 9323TIP3    H152164   1.972   2.199   2.097 -0.2558  0.0892 -1.6134
 9323TIP3    H252165   2.007   2.309   2.194  0.9969 -0.7949 -1.0410
 9324TIP3   OH252166   0.950   1.734   0.791  0.6136  0.3488  0.0228
 9324TIP3    H152167   1.003   1.666   0.750 -1.1931 -1.0975 -0.0197
 9324TIP3    H252168   1.010   1.809   0.800  2.4294 -0.9556 -0.6502
 9325TIP3   OH252169   6.432   6.807   2.665  0.0246 -0.0457  0.3540
 9325TIP3    H152170   6.387   6.735   2.622  0.6782  0.2531 -0.8761
 9325TIP3    H252171   6.511   6.821   2.613  0.6504  0.6016  1.4256
 9326TIP3   OH252172   6.560   1.670   1.590 -0.2234 -0.5558 -0.9107
 9326TIP3    H152173   6.543   1.677   1.496  0.2744 -0.0256 -0.9704
 9326TIP3    H252174   6.610   1.749   1.610  0.5314 -1.1538 -0.3937
 9327TIP3   OH252175   0.043   1.560   0.902 -0.9550 -0.2024 -0.2618
 9327TIP3    H152176   0.072   1.468   0.897  1.4710  0.4263  0.5951
 9327TIP3    H252177   0.091   1.604   0.833  1.1559  1.0840  1.8604
 9328TIP3   OH252178   3.825   1.018   0.968  0.0003 -0.1806 -0.0805
 9328TIP3    H152179   3.806   0.962   1.043 -1.2008  0.4486  0.1261
 9328TIP3    H252180   3.885   1.084   1.002 -0.6921  0.2186  0.4052
 9329TIP3   OH252181   3.569   0.754   2.966 -0.0768 -0.4879 -0.1790
 9329TIP3    H152182   3.505   0.716   3.026 -0.8668 -0.0821 -0.7491
 9329TIP3    H252183   3.653   0.741   3.009 -0.5767 -0.6925  0.7563
 9330TIP3   OH252184   4.979   5.881   1.067  0.7937 -0.4928  0.7805
 9330TIP3    H152185   4.945   5.827   1.139  2.7543 -1.3557  1.1446
 9330TIP3    H252186   4.941   5.843   0.988 -1.2451  0.3506  1.3010
 9331TIP3   OH252187   1.311   4.751   3.242 -0.8150 -0.4945  0.0642
 9331TIP3    H152188   1.292   4.815   3.173  1.6320 -0.6586 -0.8590
 9331TIP3    H252189   1.248   4.681   3.227 -0.2371 -0.6153 -2.1785
 9332TIP3   OH252190   5.611   0.989   1.504 -0.4639 -0.0197  0.3991
 9332TIP3    H152191   5.667   0.982   1.581  0.7390 -0.2362 -0.4497
 9332TIP3    H252192   5.639   1.069   1.460 -0.4696 -0.3825 -0.2922
 9333TIP3   OH252193   1.251   6.224   3.007  0.1229 -0.2179  0.1446
 9333TIP3    H152194   1.344   6.205   2.995  0.1596  0.3469 -0.5748
 9333TIP3    H252195   1.234   6.206   3.099  1.4155  1.5633  0.7900
 9334TIP3   OH252196   3.390   2.093   0.833  0.8180 -0.1911  0.1967
 9334TIP3    H152197   3.380   2.023   0.898 -1.1846 -0.3241 -0.1923
 9334TIP3    H252198   3.479   2.127   0.848  1.4691 -2.1221  1.0564
 9335TIP3   OH252199   4.639   2.412   1.650 -0.0314  0.3539 -0.2748
 9335TIP3    H152200   4.553   2.375   1.628  0.4635 -0.5008 -0.8500
 9335TIP3    H252201   4.636   2.423   1.745 -0.2363 -1.1567 -0.0809
 9336TIP3   OH252202   0.680   2.170   2.971 -0.2773  0.4875 -0.3031
 9336TIP3    H152203   0.663   2.192   2.880 -0.3724 -1.8064 -0.9075
 9336TIP3    H252204   0.766   2.128   2.970 -1.3488 -1.8872  0.1829
 9337TIP3   OH252205   4.727   4.306   3.677 -0.5276 -0.3302  0.1875
 9337TIP3    H152206   4.640   4.345   3.682 -1.1754 -1.7028 -0.1690
 9337TIP3    H252207   4.787   4.381   3.685 -1.6897  0.4846  1.8716
 9338TIP3   OH252208   5.388   1.918   1.777 -0.6114 -0.2216 -0.3709
 9338TIP3    H152209   5.468   1.884   1.817 -0.5334  0.6430  0.2355
 9338TIP3    H252210   5.388   1.881   1.688 -0.4106 -1.5717  0.1669
 9339TIP3   OH252211   5.521   3.956   2.502  0.0350  0.4762 -0.1955
 9339TIP3    H152212   5.544   4.020   2.434 -0.8350 -0.2678 -1.2312
 9339TIP3    H252213   5.483   3.883   2.454  1.0458 -0.8591  0.9643
 9340TIP3   OH252214   4.284   2.402   3.529 -0.1123 -0.2925 -0.5586
 9340TIP3    H152215   4.358   2.354   3.566  0.6533  0.0716 -1.5816
 9340TIP3    H252216   4.215   2.394   3.595  0.3643 -1.8387 -0.1951
 9341TIP3   OH252217   4.370   0.803   1.328 -0.1284 -0.7521 -0.4924
 9341TIP3    H152218   4.342   0.848   1.408 -1.3626  0.8799 -1.7775
 9341TIP3    H252219   4.299   0.741   1.310 -0.5932 -0.0412 -1.1324
 9342TIP3   OH252220   2.352   1.864   1.723 -0.1293  0.4015  0.3519
 9342TIP3    H152221   2.261   1.834   1.728 -1.1980  3.1706 -0.3855
 9342TIP3    H252222   2.393   1.807   1.657 -1.4319 -0.6148  0.3811
 9343TIP3   OH252223   2.297   0.468   2.936 -0.3107 -0.7607 -0.6817
 9343TIP3    H152224   2.230   0.528   2.905 -0.7797 -1.3930 -0.9035
 9343TIP3    H252225   2.323   0.503   3.022  0.1556  0.3255 -1.2457
 9344TIP3   OH252226   6.759   6.385   0.627 -0.2964 -0.3495 -0.2991
 9344TIP3    H152227   6.800   6.378   0.713 -0.3480 -0.8764 -0.3159
 9344TIP3    H252228   6.729   6.296   0.607 -1.4322  0.0192 -0.2970
 9345TIP3   OH252229   2.968   1.594   2.201 -0.2336 -0.1821 -0.4446
 9345TIP3    H152230   2.961   1.684   2.169 -0.3293  0.2992  0.8731
 9345TIP3    H252231   3.010   1.546   2.129  3.2421  1.6822  0.0916
 9346TIP3   OH252232   4.336   3.372   2.447  0.2498  0.2285 -0.1822
 9346TIP3    H152233   4.305   3.285   2.424  0.2071  0.2833 -0.3278
 9346TIP3    H252234   4.265   3.431   2.424  1.6694  0.7944 -3.7725
 9347TIP3   OH252235   5.944   4.866   1.318  0.0817  0.5662 -0.1006
 9347TIP3    H152236   5.959   4.924   1.393  1.1674 -0.1400  0.2476
 9347TIP3    H252237   5.871   4.907   1.271  0.3117  1.7875  0.5518
 9348TIP3   OH252238   5.326   0.600   3.588  0.0138 -0.0993  0.0077
 9348TIP3    H152239   5.303   0.658   3.659  0.4348 -0.5678  0.5421
 9348TIP3    H252240   5.244   0.582   3.543 -0.1889  0.5209  0.1240
 9349TIP3   OH252241   4.231   0.316   1.620 -0.0755  0.6880  0.4470
 9349TIP3    H152242   4.311   0.334   1.570 -0.1660  0.2471  0.1402
 9349TIP3    H252243   4.230   0.384   1.688 -0.1408  1.5098 -0.3604
 9350TIP3   OH252244   6.388   6.269   2.696  0.1393 -1.0687 -0.1574
 9350TIP3    H152245   6.398   6.302   2.786 -4.1009  1.5458 -0.3987
 9350TIP3    H252246   6.450   6.321   2.645 -0.6531  0.8380  0.7063
 9351TIP3   OH252247   6.084   5.624   1.101 -0.0136 -0.0980 -0.3819
 9351TIP3    H152248   6.010   5.683   1.088 -0.8665 -1.5280 -2.7228
 9351TIP3    H252249   6.159   5.671   1.065  0.2537  1.2505  1.7629
 9352TIP3   OH252250   1.798   4.013   2.159  0.2047 -0.3299 -0.1805
 9352TIP3    H152251   1.814   3.927   2.120 -0.9736  0.3294 -2.2372
 9352TIP3    H252252   1.883   4.056   2.158  0.8604 -1.4899  1.0724
 9353TIP3   OH252253   4.689   6.077   2.062  0.4002  0.1149 -0.6452
 9353TIP3    H152254   4.640   6.119   1.991 -0.1154  2.4970  0.9914
 9353TIP3    H252255   4.763   6.136   2.078 -0.7271  0.9453  2.2094
 9354TIP3   OH252256   2.727   2.090   2.696  0.1321  0.3151 -0.0390
 9354TIP3    H152257   2.739   2.107   2.603  1.0841 -0.9540 -0.1754
 9354TIP3    H252258   2.789   2.148   2.739 -1.2213  1.8752 -0.0702
 9355TIP3   OH252259   1.958   1.043   1.210 -0.0805  0.0246  0.0771
 9355TIP3    H152260   2.036   1.001   1.171 -0.4649  0.4378 -1.1716
 9355TIP3    H252261   1.942   0.993   1.290  0.2749 -1.3704 -0.6885
 9356TIP3   OH252262   5.211   4.957   2.633  0.1044  0.3336 -0.1138
 9356TIP3    H152263   5.170   4.926   2.714  0.9649  0.6664  0.4593
 9356TIP3    H252264   5.302   4.976   2.658 -0.4687  3.9192 -0.2441
 9357TIP3   OH252265   0.099   1.008   2.121  0.1382  0.1773 -0.0626
 9357TIP3    H152266   0.046   0.940   2.080  1.0779  0.0397 -1.1007
 9357TIP3    H252267   0.174   0.960   2.157  0.7842  0.6399 -0.7603
 9358TIP3   OH252268   6.556   0.228   1.056 -0.1464 -0.2110  0.2997
 9358TIP3    H152269   6.543   0.294   0.988 -0.5128  2.7701  3.0135
 9358TIP3    H252270   6.491   0.250   1.124  0.2933 -2.8883  1.7357
 9359TIP3   OH252271   2.024   3.082   2.739  0.2189  0.1156 -0.0587
 9359TIP3    H152272   2.017   3.149   2.806 -2.3938 -0.7219  0.5885
 9359TIP3    H252273   2.117   3.059   2.738  0.4597  0.6892  2.7286
 9360TIP3   OH252274   3.229   4.301   0.961  0.8469 -0.6919  0.0639
 9360TIP3    H152275   3.236   4.394   0.983  0.5440 -0.5996 -0.2256
 9360TIP3    H252276   3.179   4.263   1.034 -1.1725 -0.1742 -0.9755
 9361TIP3   OH252277   0.686   6.489   4.010 -0.3206 -0.0769 -0.0289
 9361TIP3    H152278   0.601   6.478   4.052 -0.8160 -1.1830 -1.2574
 9361TIP3    H252279   0.735   6.410   4.033  0.1916  0.3076  0.2282
 9362TIP3   OH252280   2.561   6.138   0.931  0.4087  0.2568 -0.2613
 9362TIP3    H152281   2.551   6.077   0.858  0.4038  1.3657 -1.2110
 9362TIP3    H252282   2.621   6.093   0.991 -0.0982 -0.9458 -0.6215
 9363TIP3   OH252283   4.525   1.316   2.819 -0.1063 -0.1767  0.1865
 9363TIP3    H152284   4.535   1.411   2.822 -0.3145 -0.1291 -0.3608
 9363TIP3    H252285   4.451   1.302   2.759 -1.3643 -0.6074  1.7525
 9364TIP3   OH252286   6.586   1.902   3.008 -0.3953 -0.0369  0.1232
 9364TIP3    H152287   6.623   1.990   3.015  0.0428 -0.0138 -1.8626
 9364TIP3    H252288   6.571   1.875   3.099 -0.3213  1.9750  0.7804
 9365TIP3   OH252289   1.601   1.329   1.900 -0.3165 -0.3707  0.3750
 9365TIP3    H152290   1.680   1.316   1.847 -0.3854 -1.6087  0.5335
 9365TIP3    H252291   1.582   1.242   1.936 -0.3563  0.4074  2.3358
 9366TIP3   OH252292   2.778   0.356   1.557 -0.0852 -0.7374  0.0992
 9366TIP3    H152293   2.775   0.372   1.652 -2.9204 -0.7894  0.0805
 9366TIP3    H252294   2.840   0.284   1.548  0.7062 -0.3487  1.8377
 9367TIP3   OH252295   5.848   0.746   2.773 -0.1772  0.2135  0.0729
 9367TIP3    H152296   5.807   0.795   2.701  2.2984 -0.8843 -2.2293
 9367TIP3    H252297   5.931   0.791   2.788 -0.3792  0.0475  1.8903
 9368TIP3   OH252298   5.857   6.155   1.519  0.5042  0.7484 -0.1334
 9368TIP3    H152299   5.862   6.212   1.442  0.3979  2.0414  0.7835
 9368TIP3    H252300   5.800   6.084   1.493 -0.5104  1.8088 -0.8738
 9369TIP3   OH252301   5.941   3.730   3.155 -0.0678  0.3498  0.2741
 9369TIP3    H152302   6.010   3.760   3.213  0.8344  0.3518 -0.7735
 9369TIP3    H252303   5.936   3.797   3.087 -0.7140  0.0630  0.0250
 9370TIP3   OH252304   2.418   3.640   1.038  0.4697 -0.3076  0.0571
 9370TIP3    H152305   2.409   3.652   1.132  0.5325  1.1590 -0.0991
 9370TIP3    H252306   2.346   3.581   1.014 -1.1539  1.3270  0.6760
 9371TIP3   OH252307   5.158   1.178   2.314  0.4052  0.0247 -0.3775
 9371TIP3    H152308   5.120   1.254   2.358  0.2916 -0.0365 -0.3695
 9371TIP3    H252309   5.207   1.133   2.382  1.8836  1.0072 -0.7591
 9372TIP3   OH252310   2.557   1.706   1.634  0.0408  0.5792 -0.3969
 9372TIP3    H152311   2.603   1.745   1.560  2.0190 -2.9144 -1.2392
 9372TIP3    H252312   2.618   1.640   1.668 -2.5416 -1.0325  1.5040
 9373TIP3   OH252313   3.559   3.511   1.393  0.3074 -0.1929 -0.2245
 9373TIP3    H152314   3.512   3.594   1.393  1.2229  0.4778 -3.6602
 9373TIP3    H252315   3.619   3.517   1.468 -1.6604  0.9180  1.3409
 9374TIP3   OH252316   4.014   3.752   2.090  0.2783 -0.3616 -0.6617
 9374TIP3    H152317   4.023   3.696   2.014  0.6098 -1.6684  0.3090
 9374TIP3    H252318   3.931   3.725   2.130  0.0410  0.4027 -0.6156
 9375TIP3   OH252319   4.826   2.082   1.209 -0.4891 -0.3895 -0.6504
 9375TIP3    H152320   4.856   2.171   1.227  0.6817 -0.5323 -1.7234
 9375TIP3    H252321   4.900   2.027   1.234 -1.5053 -1.1556  0.7916
 9376TIP3   OH252322   6.591   0.779   0.847  0.2501 -0.2636  0.4927
 9376TIP3    H152323   6.603   0.772   0.752 -1.1452  0.9533  0.1897
 9376TIP3    H252324   6.516   0.837   0.857  0.1585 -0.6574  2.3531
 9377TIP3   OH252325   1.930   0.544   4.091 -0.4146 -0.0379  0.1751
 9377TIP3    H152326   1.923   0.618   4.151 -0.0714  0.8648 -0.8551
 9377TIP3    H252327   1.841   0.509   4.086 -0.6446  0.4942  0.4557
 9378TIP3   OH252328   5.687   6.631   1.819 -0.2004 -0.0749  0.0203
 9378TIP3    H152329   5.662   6.543   1.790  0.6511 -0.6071  0.8192
 9378TIP3    H252330   5.779   6.640   1.793 -0.4213  0.7690 -0.4799
 9379TIP3   OH252331   4.061   5.491   1.379  0.2544  0.2415 -0.0874
 9379TIP3    H152332   3.996   5.488   1.449 -1.6929  1.3655 -1.7222
 9379TIP3    H252333   4.018   5.449   1.304  1.7083  0.3427 -1.0264
 9380TIP3   OH252334   4.466   6.311   0.970  0.1933 -0.2989 -0.1207
 9380TIP3    H152335   4.399   6.250   1.000  0.5380 -1.4076 -1.4814
 9380TIP3    H252336   4.459   6.386   1.029 -0.6485 -1.3972  1.2211
 9381TIP3   OH252337   2.297   5.290   2.820 -0.6027  0.1300 -0.1795
 9381TIP3    H152338   2.307   5.312   2.913 -2.5229 -0.4542  0.1967
 9381TIP3    H252339   2.203   5.291   2.804 -0.3558 -0.5515 -1.9437
 9382TIP3   OH252340   0.028   2.874   1.459  0.2543 -0.5216 -0.2077
 9382TIP3    H152341   0.034   2.934   1.385 -1.8635 -1.8181 -1.5318
 9382TIP3    H252342  -0.066   2.864   1.475  0.6090 -1.6326  1.5464
 9383TIP3   OH252343   5.749   4.197   2.529  0.1502  0.3644 -0.0515
 9383TIP3    H152344   5.795   4.188   2.612  0.5623  0.5882 -0.2504
 9383TIP3    H252345   5.671   4.248   2.549 -0.4892 -0.7617  0.4577
 9384TIP3   OH252346   0.805   3.337   1.391 -0.2020 -0.6937 -0.1565
 9384TIP3    H152347   0.798   3.420   1.438  0.1048 -2.0277  2.3973
 9384TIP3    H252348   0.714   3.308   1.380 -0.2475 -0.9172  0.7122
 9385TIP3   OH252349   1.297   3.590   2.787  0.3303 -0.2644 -0.0721
 9385TIP3    H152350   1.288   3.660   2.722  2.2218 -0.2054 -0.3307
 9385TIP3    H252351   1.225   3.530   2.768 -1.4283  1.6516  0.2537
 9386TIP3   OH252352   3.595   3.889   3.296 -0.3259 -0.0682  0.2279
 9386TIP3    H152353   3.676   3.940   3.305  0.4655 -1.1276 -0.6433
 9386TIP3    H252354   3.618   3.818   3.237 -2.2126  0.2454 -0.9487
 9387TIP3   OH252355   6.234   0.111   2.777  0.3559  0.6224 -0.0080
 9387TIP3    H152356   6.301   0.060   2.731 -0.3489  0.3196 -0.7432
 9387TIP3    H252357   6.276   0.195   2.795  1.2385  0.1125  0.4093
 9388TIP3   OH252358   0.994   5.754   2.861  0.2300 -0.1768 -0.1641
 9388TIP3    H152359   0.903   5.723   2.867 -0.0550  0.6651  0.0038
 9388TIP3    H252360   1.028   5.745   2.950  0.2815 -0.4262 -0.2112
 9389TIP3   OH252361   5.309   2.710   0.939  0.2506 -0.0031  0.5678
 9389TIP3    H152362   5.379   2.770   0.967  1.0227 -0.7432  0.2693
 9389TIP3    H252363   5.324   2.631   0.991  0.2077 -0.5059 -0.1706
 9390TIP3   OH252364   6.590   2.461   1.826  0.3556 -0.0376 -0.4563
 9390TIP3    H152365   6.523   2.472   1.758  0.6640  0.2520 -0.7151
 9390TIP3    H252366   6.596   2.367   1.838  2.1354 -0.2954 -2.6890
 9391TIP3   OH252367   1.882   1.881   3.264 -0.1907 -0.0078 -0.0348
 9391TIP3    H152368   1.906   1.972   3.284 -1.3731  0.2978  0.0800
 9391TIP3    H252369   1.864   1.882   3.170  2.9527 -0.8902 -0.7578
 9392TIP3   OH252370   3.261   6.707   0.947  0.2467 -0.7148  0.1533
 9392TIP3    H152371   3.198   6.774   0.972  2.3432  0.8537  1.5996
 9392TIP3    H252372   3.208   6.637   0.909 -2.2374  0.8604  0.4903
 9393TIP3   OH252373   6.384   3.943   1.550  0.5328  0.1077  0.6320
 9393TIP3    H152374   6.437   3.898   1.616  0.1864 -0.0699  0.7923
 9393TIP3    H252375   6.418   3.912   1.466  0.2537 -0.5142  0.7411
 9394TIP3   OH252376   5.409   0.193   2.265 -0.1287  0.3531  0.7093
 9394TIP3    H152377   5.431   0.262   2.202 -0.9629 -0.6627 -0.7468
 9394TIP3    H252378   5.318   0.210   2.288  0.1886  0.7553  1.7346
 9395TIP3   OH252379   0.243   5.472   3.821 -0.0458  0.1600  0.1658
 9395TIP3    H152380   0.180   5.403   3.803 -0.0061 -0.2446  1.4884
 9395TIP3    H252381   0.324   5.444   3.777 -0.7898  0.7859 -1.7224
 9396TIP3   OH252382   2.287   0.536   2.508  0.4872 -0.6186 -0.1601
 9396TIP3    H152383   2.330   0.511   2.426 -1.0957  2.4431 -2.1062
 9396TIP3    H252384   2.318   0.625   2.526 -1.6532  0.0176  0.7204
 9397TIP3   OH252385   2.179   2.430   2.784  0.6155  0.1687  0.0425
 9397TIP3    H152386   2.253   2.378   2.752  0.2271 -0.2452 -0.2054
 9397TIP3    H252387   2.155   2.388   2.867 -0.0566 -0.4091 -0.4334
 9398TIP3   OH252388   5.740   3.625   1.704 -0.1022 -0.5198  0.0814
 9398TIP3    H152389   5.698   3.616   1.618 -0.8332  1.8246  0.1283
 9398TIP3    H252390   5.667   3.622   1.766  0.0682  0.8558  0.3683
 9399TIP3   OH252391   3.134   5.569   2.270  0.4018 -0.2580 -0.1094
 9399TIP3    H152392   3.197   5.628   2.312  0.6496 -0.0040 -0.8076
 9399TIP3    H252393   3.176   5.546   2.187 -0.1461 -0.6116 -0.2928
 9400TIP3   OH252394   5.745   2.078   3.993  0.6565 -0.1745 -0.1368
 9400TIP3    H152395   5.679   2.134   3.952 -0.2876 -0.9367  0.3089
 9400TIP3    H252396   5.777   2.022   3.921 -0.3839 -0.9244 -0.0459
 9401TIP3   OH252397   0.431   6.597   0.462 -0.2849 -0.2112 -0.2132
 9401TIP3    H152398   0.342   6.585   0.495 -0.2793 -1.0624 -0.4946
 9401TIP3    H252399   0.420   6.634   0.374 -0.3699 -0.6301 -0.3794
 9402TIP3   OH252400   1.119   0.878   2.205 -0.2482  0.2478  0.6975
 9402TIP3    H152401   1.080   0.961   2.179 -2.7927 -0.3788  2.1016
 9402TIP3    H252402   1.200   0.902   2.250 -1.1179  2.0105  1.4175
 9403TIP3   OH252403   4.550   0.623   3.785 -0.2852 -0.2024  0.9989
 9403TIP3    H152404   4.546   0.707   3.829  3.2198  0.7990 -0.2463
 9403TIP3    H252405   4.637   0.589   3.807 -0.4856 -2.1223 -0.8668
 9404TIP3   OH252406   1.898   1.989   0.724 -0.2478  0.5324 -0.2872
 9404TIP3    H152407   1.815   1.955   0.690 -0.2344  0.4515 -0.2374
 9404TIP3    H252408   1.948   1.912   0.749  2.3962 -0.0384 -5.8656
 9405TIP3   OH252409   0.245   3.565   2.552 -0.6538  0.4381  0.3548
 9405TIP3    H152410   0.291   3.493   2.508 -0.3313 -0.2704  1.7872
 9405TIP3    H252411   0.261   3.550   2.645 -2.3765  1.1594  0.8061
 9406TIP3   OH252412   0.276   1.365   3.758 -0.0034  0.5129 -0.4044
 9406TIP3    H152413   0.217   1.311   3.707  0.5101 -0.5823  0.1314
 9406TIP3    H252414   0.357   1.314   3.764  0.4468  1.2714  0.2393
 9407TIP3   OH252415   6.101   1.261   1.827  0.3269 -0.8987  0.5114
 9407TIP3    H152416   6.106   1.186   1.767 -1.0996 -2.8309  2.6430
 9407TIP3    H252417   6.176   1.315   1.803  1.0178 -2.6100 -1.6029
 9408TIP3   OH252418   3.952   6.821   2.701  0.1363 -0.0135 -0.1835
 9408TIP3    H152419   3.955   6.908   2.740 -2.0750 -0.2474  0.6108
 9408TIP3    H252420   3.875   6.821   2.644  0.0327 -1.4782 -0.0993
 9409TIP3   OH252421   0.857   0.970   4.102 -0.4049  0.7830  0.4507
 9409TIP3    H152422   0.895   0.910   4.167 -1.9704 -0.1565  0.5420
 9409TIP3    H252423   0.765   0.976   4.127 -0.6949  1.6330 -0.7839
 9410TIP3   OH252424   1.129   2.500   3.623  0.3692  0.1047 -0.1243
 9410TIP3    H152425   1.160   2.549   3.700 -0.0758 -0.0411  0.1561
 9410TIP3    H252426   1.205   2.491   3.567  0.7798 -0.0655  0.4527
 9411TIP3   OH252427   1.988   4.727   2.710  0.1880 -0.3884 -0.5031
 9411TIP3    H152428   1.949   4.651   2.668 -1.3398  0.5158 -0.7740
 9411TIP3    H252429   2.000   4.790   2.639  0.1603  0.1405 -0.0379
 9412TIP3   OH252430   5.144   3.519   2.781 -0.2463 -0.1357  0.5249
 9412TIP3    H152431   5.227   3.551   2.745 -1.4547 -0.0383 -2.4529
 9412TIP3    H252432   5.152   3.424   2.778 -0.4226 -0.1320 -0.2866
 9413TIP3   OH252433   3.577   1.997   3.973  0.2040 -0.2823 -0.4124
 9413TIP3    H152434   3.654   1.942   3.957  0.1579 -0.8986  1.3071
 9413TIP3    H252435   3.513   1.938   4.012 -0.2743  0.7387  0.3820
 9414TIP3   OH252436   5.253   4.719   2.500 -0.0580  0.1756 -0.1986
 9414TIP3    H152437   5.180   4.657   2.507 -0.6522  0.8576 -0.2962
 9414TIP3    H252438   5.220   4.800   2.539  1.2629 -0.0232  1.4233
 9415TIP3   OH252439   1.919   0.214   0.930  0.5492  0.1002  0.8451
 9415TIP3    H152440   1.830   0.235   0.957  0.7288  0.3489  1.2455
 9415TIP3    H252441   1.926   0.119   0.941 -0.4668 -0.3269 -1.5506
 9416TIP3   OH252442   1.198   4.279   2.538  0.5404  0.1519 -0.1000
 9416TIP3    H152443   1.268   4.294   2.602  1.6880 -0.6173 -1.1571
 9416TIP3    H252444   1.163   4.367   2.521  0.5215  0.4248  1.2163
 9417TIP3   OH252445   5.962   6.589   1.024 -0.0120  1.0143 -0.0547
 9417TIP3    H152446   5.983   6.514   0.968 -2.2392 -1.2826  1.9467
 9417TIP3    H252447   6.033   6.594   1.087 -1.7505 -2.4427  2.5406
 9418TIP3   OH252448   3.058   0.760   3.130  0.3039 -0.2357  0.5519
 9418TIP3    H152449   3.097   0.793   3.049  0.4860  1.5212  1.3123
 9418TIP3    H252450   3.124   0.777   3.197 -0.3079 -0.6019  1.2602
 9419TIP3   OH252451   0.502   2.939   2.172  0.2182  0.0681 -0.0242
 9419TIP3    H152452   0.422   2.948   2.121 -0.5380  0.5521  1.2021
 9419TIP3    H252453   0.507   3.019   2.224  0.8594 -0.4793  0.7920
 9420TIP3   OH252454   5.851   3.038   2.599 -0.2048  0.0552 -0.1130
 9420TIP3    H152455   5.805   3.074   2.675 -0.0152 -0.1026  0.0754
 9420TIP3    H252456   5.928   3.093   2.590 -0.3961  0.2812 -0.3926
 9421TIP3   OH252457   2.176   5.246   1.794 -0.4144 -0.0213  0.4083
 9421TIP3    H152458   2.146   5.178   1.735  2.6941 -1.4601  0.2924
 9421TIP3    H252459   2.192   5.322   1.737 -1.9097  0.1699  0.2115
 9422TIP3   OH252460   2.649   1.409   0.629 -0.1587 -0.0338  0.2330
 9422TIP3    H152461   2.611   1.455   0.704  0.7343 -0.6985  1.1248
 9422TIP3    H252462   2.719   1.467   0.598  0.6507 -0.5254  1.0597
 9423TIP3   OH252463   3.112   0.384   2.609 -0.0072  0.6319  0.5137
 9423TIP3    H152464   3.122   0.381   2.514  1.7275  0.1156  0.6857
 9423TIP3    H252465   3.180   0.444   2.639  0.3172 -0.1931  1.5137
 9424TIP3   OH252466   4.723   3.421   3.224 -0.0001 -0.3302 -0.1378
 9424TIP3    H152467   4.657   3.371   3.175  0.9657  0.0830 -1.9589
 9424TIP3    H252468   4.750   3.363   3.295 -1.2427 -1.0823 -0.2556
 9425TIP3   OH252469   2.113   2.256   1.008  0.0926  0.2183 -0.0712
 9425TIP3    H152470   2.061   2.253   0.928  0.9535 -0.1178 -0.6277
 9425TIP3    H252471   2.182   2.192   0.994  1.9303  2.1314 -0.2307
 9426TIP3   OH252472   3.739   1.688   0.586 -0.3350  0.5072  0.3919
 9426TIP3    H152473   3.764   1.743   0.660  0.8017  1.8881 -0.9444
 9426TIP3    H252474   3.818   1.640   0.563 -1.3365 -1.9022  1.6046
 9427TIP3   OH252475   2.468   1.971   2.599 -0.2193  0.7377  0.2536
 9427TIP3    H152476   2.476   2.056   2.643  0.7018  1.0716 -0.5348
 9427TIP3    H252477   2.477   1.991   2.506  1.1905 -0.3634  0.1230
 9428TIP3   OH252478   6.044   0.414   2.503 -0.2414 -0.3167 -0.3334
 9428TIP3    H152479   5.955   0.378   2.501 -0.1533 -0.5237 -0.5926
 9428TIP3    H252480   6.101   0.338   2.508 -0.0313 -0.2538 -1.4078
 9429TIP3   OH252481   3.104   1.885   1.339 -0.3272  0.1383 -0.2505
 9429TIP3    H152482   3.078   1.798   1.371 -1.3886  0.7518  0.6622
 9429TIP3    H252483   3.174   1.912   1.397  0.6530 -0.4705 -1.1187
 9430TIP3   OH252484   1.270   5.065   1.034  0.5456 -0.4492  0.4165
 9430TIP3    H152485   1.352   5.025   1.005  0.7349 -0.0759  0.4307
 9430TIP3    H252486   1.248   5.128   0.965  0.8036  0.1756  0.8947
 9431TIP3   OH252487   4.419   3.134   0.527 -0.1775  0.6062  0.8846
 9431TIP3    H152488   4.373   3.218   0.534  0.1307  0.9067 -0.3484
 9431TIP3    H252489   4.494   3.153   0.471 -0.4980 -0.6434 -0.0230
 9432TIP3   OH252490   0.084   0.547   3.955  0.2380  0.4457 -0.2760
 9432TIP3    H152491   0.155   0.567   3.894 -0.4440 -0.8469 -1.5691
 9432TIP3    H252492   0.115   0.579   4.039  2.8257 -1.0179 -0.5588
 9433TIP3   OH252493   6.649   4.849   3.388 -0.0855 -0.2024 -0.3741
 9433TIP3    H152494   6.604   4.775   3.428 -0.1916 -1.0479 -1.9775
 9433TIP3    H252495   6.742   4.826   3.391  0.0777  0.5305  0.9159
 9434TIP3   OH252496   3.047   5.472   3.915  0.5715  0.2157  0.1162
 9434TIP3    H152497   3.041   5.377   3.905 -0.4688  0.2524  0.2137
 9434TIP3    H252498   3.128   5.487   3.963  0.8977 -0.5988 -0.1590
 9435TIP3   OH252499   2.576   0.187   3.803  0.0784  0.2689  0.4539
 9435TIP3    H152500   2.644   0.137   3.848 -0.4683 -0.6217  0.3041
 9435TIP3    H252501   2.500   0.183   3.862 -0.1363  0.4676  0.1933
 9436TIP3   OH252502   5.913   2.872   3.111  0.0723 -0.0266 -0.0261
 9436TIP3    H152503   5.915   2.857   3.205 -0.8713 -1.2241 -0.1746
 9436TIP3    H252504   5.965   2.952   3.098 -1.0100  1.0168  1.6596
 9437TIP3   OH252505   3.445   0.731   0.618 -0.0344 -0.7194 -0.2968
 9437TIP3    H152506   3.525   0.750   0.666 -0.3791 -0.2936  0.1115
 9437TIP3    H252507   3.418   0.815   0.581 -0.8530 -0.6485  0.4316
 9438TIP3   OH252508   0.414   6.326   1.002 -0.0129  0.4009  0.2686
 9438TIP3    H152509   0.500   6.325   1.045  0.1888  0.8551 -0.1236
 9438TIP3    H252510   0.414   6.249   0.946 -0.5561 -0.6196  1.6044
 9439TIP3   OH252511   5.018   2.788   1.301  0.1827  0.4067 -0.3868
 9439TIP3    H152512   5.106   2.779   1.266  0.6608 -0.5075  0.9823
 9439TIP3    H252513   4.988   2.698   1.315  0.4812  0.6700  2.5784
 9440TIP3   OH252514   1.747   3.800   0.957 -0.2293 -0.5797 -0.2768
 9440TIP3    H152515   1.792   3.815   0.874 -0.2239  0.5665 -0.0779
 9440TIP3    H252516   1.768   3.709   0.979 -0.1950 -0.8838 -1.5003
 9441TIP3   OH252517   0.268   3.952   2.495 -0.2158 -0.0539 -0.1501
 9441TIP3    H152518   0.269   3.996   2.410 -1.0949  2.1129  0.8782
 9441TIP3    H252519   0.347   3.897   2.495 -0.5256 -0.5882 -2.5670
 9442TIP3   OH252520   6.728   0.069   1.210 -0.3550  0.5887 -0.4739
 9442TIP3    H152521   6.810   0.064   1.161  0.7079  1.2598  1.1341
 9442TIP3    H252522   6.664   0.100   1.146  0.4314 -0.7245 -1.9665
 9443TIP3   OH252523   1.773   6.702   3.947  0.1325 -0.5058  0.4378
 9443TIP3    H152524   1.748   6.769   3.883 -0.2484 -1.5371 -0.5184
 9443TIP3    H252525   1.868   6.706   3.950  0.1081  0.1288  0.4423
 9444TIP3   OH252526   2.222   6.803   2.361  0.5328  0.4006 -0.5138
 9444TIP3    H152527   2.287   6.789   2.431 -0.8006  0.6635  0.8321
 9444TIP3    H252528   2.241   6.892   2.330  1.3427  0.1638 -0.7234
 9445TIP3   OH252529   1.316   0.931   4.336  0.1151 -0.7761 -0.2695
 9445TIP3    H152530   1.380   0.888   4.391  0.4220 -0.7674 -0.6132
 9445TIP3    H252531   1.368   0.985   4.276 -0.2444 -0.2449 -0.1078
 9446TIP3   OH252532   6.337   1.193   4.101 -0.3729  0.0519  0.3704
 9446TIP3    H152533   6.418   1.240   4.121 -0.4782  0.7012 -0.6474
 9446TIP3    H252534   6.268   1.255   4.123 -0.7242 -1.0360  2.7244
 9447TIP3   OH252535   0.916   6.371   1.209 -0.1038  0.1643 -0.5539
 9447TIP3    H152536   0.998   6.416   1.230 -1.3016  1.6067  1.4746
 9447TIP3    H252537   0.922   6.287   1.255  0.1502  0.3803 -0.1886
 9448TIP3   OH252538   6.346   5.045   2.708  0.6027  0.1475 -0.3634
 9448TIP3    H152539   6.435   5.057   2.676  0.2474 -2.1924 -2.4529
 9448TIP3    H252540   6.290   5.071   2.635 -0.4603  0.7693  0.6284
 9449TIP3   OH252541   6.667   2.676   1.981 -0.1718 -0.4387 -0.5305
 9449TIP3    H152542   6.618   2.673   2.063  1.3741 -0.2993  0.4416
 9449TIP3    H252543   6.642   2.596   1.934  0.6692 -1.7521  1.1578
 9450TIP3   OH252544   2.839   2.146   2.452 -0.1261 -0.1676  0.3047
 9450TIP3    H152545   2.890   2.104   2.382  1.6508  0.9236  0.8616
 9450TIP3    H252546   2.814   2.231   2.415 -1.1502 -0.4983  0.2143
 9451TIP3   OH252547   6.761   1.310   1.839  0.0686 -0.2400  0.2913
 9451TIP3    H152548   6.804   1.308   1.754  0.0476 -0.6678  0.2924
 9451TIP3    H252549   6.788   1.394   1.878 -0.3396  0.2025 -0.3549
 9452TIP3   OH252550   6.016   6.058   3.680 -0.1330  0.3084 -0.2003
 9452TIP3    H152551   6.072   6.065   3.603 -1.0605 -1.5454 -1.1159
 9452TIP3    H252552   6.009   5.964   3.697 -1.2319  0.5949  1.1923
 9453TIP3   OH252553   3.685   4.211   3.487 -0.1728 -0.5998 -0.0827
 9453TIP3    H152554   3.737   4.256   3.554  0.6962  1.1593 -1.8126
 9453TIP3    H252555   3.597   4.204   3.524  0.4064 -0.1682  1.4196
 9454TIP3   OH252556   0.377   6.585   0.885 -0.0555 -0.5655 -0.2816
 9454TIP3    H152557   0.302   6.544   0.842  0.5011 -2.0732  0.0983
 9454TIP3    H252558   0.402   6.523   0.954  1.5403 -0.1153 -0.4010
 9455TIP3   OH252559   1.419   4.971   2.981 -0.5695  0.5412 -0.0490
 9455TIP3    H152560   1.437   5.049   2.929  0.1343 -0.1381 -0.8753
 9455TIP3    H252561   1.363   4.917   2.924  0.0730 -0.1425 -0.0436
 9456TIP3   OH252562   0.217   0.785   4.436  0.6600  0.0509 -0.2418
 9456TIP3    H152563   0.296   0.769   4.385 -0.2700  0.9370 -2.0322
 9456TIP3    H252564   0.207   0.881   4.435 -1.7928 -0.1346 -2.2848
 9457TIP3   OH252565   3.733   4.129   2.937 -0.4175 -0.5607 -0.2318
 9457TIP3    H152566   3.760   4.062   3.000 -0.8005 -1.7565 -1.3198
 9457TIP3    H252567   3.640   4.115   2.924 -0.3594 -0.2873 -1.0193
 9458TIP3   OH252568   0.391   6.274   1.777  0.1441 -0.0892  0.1038
 9458TIP3    H152569   0.450   6.349   1.783  0.9673 -0.7524  0.5970
 9458TIP3    H252570   0.449   6.198   1.781 -0.2120 -0.8431 -4.2031
 9459TIP3   OH252571   2.640   2.827   2.614 -0.8717  0.5749 -0.0995
 9459TIP3    H152572   2.618   2.761   2.549  0.7077  0.1296 -0.2124
 9459TIP3    H252573   2.599   2.907   2.581 -0.5376  0.2450 -1.3771
 9460TIP3   OH252574   4.727   6.527   2.022 -0.2811  0.3679  0.6357
 9460TIP3    H152575   4.807   6.570   2.051  1.3598 -1.1749 -1.3475
 9460TIP3    H252576   4.739   6.513   1.928 -1.7626 -2.1510  0.7207
 9461TIP3   OH252577   5.964   4.533   1.544  0.3285 -0.1105  0.2671
 9461TIP3    H152578   5.876   4.556   1.572 -0.5015 -0.9085 -1.5051
 9461TIP3    H252579   5.964   4.437   1.543  1.1430 -0.1159  0.0196
 9462TIP3   OH252580   3.815   3.850   3.673 -0.1304 -0.6656  0.0360
 9462TIP3    H152581   3.801   3.757   3.690 -1.1626 -0.3347  1.1745
 9462TIP3    H252582   3.822   3.890   3.760  2.3767  0.0666 -0.4295
 9463TIP3   OH252583   1.036   5.383   3.241 -0.4403  0.1745  0.4072
 9463TIP3    H152584   1.081   5.384   3.156  0.5406  0.6255  0.9166
 9463TIP3    H252585   1.072   5.458   3.288 -3.2297  1.8621  0.0916
 9464TIP3   OH252586   1.965   4.465   1.101  0.3808 -0.6640  0.1738
 9464TIP3    H152587   1.982   4.475   1.007  1.9603  0.4771  0.5441
 9464TIP3    H252588   1.872   4.441   1.106 -1.0849  3.7008 -1.4837
 9465TIP3   OH252589   6.460   5.526   1.156 -0.3779  0.2833  0.1228
 9465TIP3    H152590   6.404   5.533   1.233 -2.5822 -2.3110 -1.0343
 9465TIP3    H252591   6.402   5.549   1.083  2.6635  7.0270 -0.8972
 9466TIP3   OH252592   4.325   3.007   1.051  0.4859  0.0034 -0.2482
 9466TIP3    H152593   4.397   2.944   1.056 -1.0990 -1.8467  0.5620
 9466TIP3    H252594   4.279   2.985   0.969  0.9021  1.2837 -0.8562
 9467TIP3   OH252595   3.369   0.313   1.573  0.7111 -0.1739  0.0756
 9467TIP3    H152596   3.330   0.334   1.488  0.3682  2.3400  0.7639
 9467TIP3    H252597   3.296   0.319   1.635  1.3276  0.0018  0.7923
 9468TIP3   OH252598   4.115   5.276   2.271 -0.3112 -0.0803  0.1322
 9468TIP3    H152599   4.134   5.309   2.183  0.9358 -1.4121 -0.1571
 9468TIP3    H252600   4.195   5.230   2.296 -0.7090  0.1409  1.9104
 9469TIP3   OH252601   0.442   6.084   0.862 -0.1319  0.1090  0.2554
 9469TIP3    H152602   0.500   6.044   0.797  0.5210 -0.9338  1.4291
 9469TIP3    H252603   0.461   6.036   0.943 -0.9605  1.3294  1.2030
 9470TIP3   OH252604   1.263   0.597   1.699 -0.2790 -0.0042 -0.0583
 9470TIP3    H152605   1.216   0.591   1.615 -0.2689 -1.6313  0.0058
 9470TIP3    H252606   1.355   0.605   1.674 -0.3053 -0.1511 -0.2090
 9471TIP3   OH252607   2.206   0.523   1.936  0.2115  0.1632  0.1572
 9471TIP3    H152608   2.283   0.467   1.942 -1.5987 -2.4113  1.4617
 9471TIP3    H252609   2.215   0.584   2.009  1.5573  0.7338 -0.4509
 9472TIP3   OH252610   5.440   2.903   3.974  0.0906 -0.0818 -0.4320
 9472TIP3    H152611   5.427   2.987   4.019  0.7062  0.6226 -1.5180
 9472TIP3    H252612   5.453   2.840   4.045 -0.4604  0.7174  0.4079
 9473TIP3   OH252613   1.359   5.717   1.891 -0.1509  0.1337 -0.5419
 9473TIP3    H152614   1.322   5.642   1.844 -0.3834 -0.1706  0.1081
 9473TIP3    H252615   1.435   5.743   1.839  1.3722 -2.0513  0.4078
 9474TIP3   OH252616   1.965   0.731   3.095  0.3791 -0.2060 -0.0073
 9474TIP3    H152617   2.002   0.674   3.163 -0.2943 -1.7317 -0.8639
 9474TIP3    H252618   2.029   0.730   3.025  0.7852  0.8686  0.3262
 9475TIP3   OH252619   6.038   6.726   3.901 -0.3487 -0.2305  0.0972
 9475TIP3    H152620   6.124   6.765   3.913  0.1639 -1.4477  0.4527
 9475TIP3    H252621   6.043   6.641   3.945 -1.2211 -0.9989 -1.2283
 9476TIP3   OH252622   0.571   4.010   1.329 -1.1586 -0.1260 -0.5749
 9476TIP3    H152623   0.657   4.043   1.354 -2.3394  2.1759  0.8430
 9476TIP3    H252624   0.569   4.018   1.234  0.0688  0.0979 -0.5995
 9477TIP3   OH252625   2.077   2.293   3.010  0.1431 -0.0699 -0.4111
 9477TIP3    H152626   2.025   2.246   2.945 -1.1744 -0.2175  0.6999
 9477TIP3    H252627   2.093   2.229   3.079  2.2646 -0.1704 -0.9401
 9478TIP3   OH252628   1.472   6.578   3.257  0.0898 -0.3111 -0.2762
 9478TIP3    H152629   1.527   6.574   3.335 -0.2074  2.6913  0.2096
 9478TIP3    H252630   1.389   6.537   3.284  0.8468 -1.6785  0.0892
 9479TIP3   OH252631   1.635   3.846   1.789 -0.4052  0.5472  0.2828
 9479TIP3    H152632   1.649   3.752   1.803 -0.1459  0.5205 -0.1423
 9479TIP3    H252633   1.563   3.868   1.848 -0.8434 -0.0404 -0.0093
 9480TIP3   OH252634   4.576   1.024   2.547 -0.8733 -0.3056 -0.3374
 9480TIP3    H152635   4.627   1.031   2.627  0.5528 -3.0933 -0.8884
 9480TIP3    H252636   4.552   1.114   2.525  3.0566  1.0971  0.4488
 9481TIP3   OH252637   4.603   0.849   1.196  0.5590 -0.1049  0.0896
 9481TIP3    H152638   4.522   0.830   1.243  1.5062 -0.0779  1.8091
 9481TIP3    H252639   4.670   0.855   1.264  1.7213  1.5627 -1.1064
 9482TIP3   OH252640   6.221   5.939   2.816 -0.4093 -0.7309 -0.5827
 9482TIP3    H152641   6.215   5.870   2.882 -0.4367 -0.4561 -0.2949
 9482TIP3    H252642   6.303   5.922   2.770  0.0621 -0.3990  0.1201
 9483TIP3   OH252643   3.007   2.427   2.461  0.3955 -0.0562 -0.8351
 9483TIP3    H152644   3.075   2.365   2.432  0.0487 -0.6037 -0.5009
 9483TIP3    H252645   2.925   2.386   2.435  0.1161 -0.1589  0.1666
 9484TIP3   OH252646   3.725   2.609   1.199  0.2457 -0.1128  0.6348
 9484TIP3    H152647   3.712   2.672   1.270 -1.6397 -0.2034  0.4118
 9484TIP3    H252648   3.766   2.660   1.129 -1.4723  0.9755  0.3693
 9485TIP3   OH252649   5.691   3.580   3.432 -0.3457  0.3374 -0.6490
 9485TIP3    H152650   5.609   3.542   3.463  1.6486 -2.6980  1.4424
 9485TIP3    H252651   5.696   3.664   3.477 -1.3176 -0.3954  0.9067
 9486TIP3   OH252652   1.045   1.290   3.850 -0.4546 -0.2472  0.6009
 9486TIP3    H152653   1.083   1.231   3.915 -0.5271 -1.6121 -0.5523
 9486TIP3    H252654   0.951   1.278   3.859 -0.4472 -2.4807 -1.4883
 9487TIP3   OH252655   4.230   4.642   3.321 -0.1114  0.8835  0.0345
 9487TIP3    H152656   4.245   4.731   3.289  0.5121  0.2005 -1.6447
 9487TIP3    H252657   4.198   4.593   3.245  0.2670 -0.5218  0.7397
 9488TIP3   OH252658   4.450   6.659   1.784  0.1111 -0.1202 -0.2708
 9488TIP3    H152659   4.361   6.686   1.804  0.3436  0.9707 -0.6731
 9488TIP3    H252660   4.501   6.740   1.785  1.1778 -0.7719  0.3530
 9489TIP3   OH252661   1.027   6.057   1.088  0.1049  0.4452 -0.3518
 9489TIP3    H152662   0.962   6.117   1.054 -1.3583 -0.5261  0.6329
 9489TIP3    H252663   1.065   6.102   1.164 -3.1055 -0.8724  2.2891
 9490TIP3   OH252664   3.439   6.632   1.776 -0.1252  0.2858 -0.1496
 9490TIP3    H152665   3.533   6.614   1.777 -0.1563  0.0024  1.7968
 9490TIP3    H252666   3.428   6.707   1.835 -1.0202  0.9901 -1.1718
 9491TIP3   OH252667   6.072   4.192   3.291 -0.1166 -0.4500 -0.3747
 9491TIP3    H152668   6.055   4.098   3.297  1.3614 -0.9395 -2.5706
 9491TIP3    H252669   6.096   4.218   3.380  0.1340 -2.2950  0.1325
 9492TIP3   OH252670   2.269   3.413   3.232 -0.2463  0.1396 -0.0960
 9492TIP3    H152671   2.318   3.394   3.152  0.7471  0.1004  0.4972
 9492TIP3    H252672   2.201   3.346   3.235 -1.2007  0.9899 -1.6244
 9493TIP3   OH252673   6.380   6.751   1.505  0.1497 -0.1113  0.4319
 9493TIP3    H152674   6.442   6.680   1.487  0.9963  1.2394 -2.6453
 9493TIP3    H252675   6.295   6.707   1.514  0.8546 -1.6096  0.0739
 9494TIP3   OH252676   3.604   1.940   0.553 -0.6007 -0.1066  0.0083
 9494TIP3    H152677   3.612   1.947   0.648  2.5790  0.9525 -0.1984
 9494TIP3    H252678   3.659   1.865   0.530  0.5230  0.9866 -1.0841
 9495TIP3   OH252679   6.530   5.035   3.807  0.2610  0.4664 -0.5436
 9495TIP3    H152680   6.570   5.027   3.894 -1.2850 -1.8061  0.0669
 9495TIP3    H252681   6.437   5.051   3.825 -0.3198 -1.3160 -1.6662
 9496TIP3   OH252682   6.530   2.073   3.955  0.1595 -0.2310  0.0885
 9496TIP3    H152683   6.461   2.018   3.994  0.9491 -2.2905 -1.2376
 9496TIP3    H252684   6.573   2.015   3.891  1.2041  1.9010 -1.2477
 9497TIP3   OH252685   0.818   1.334   0.813 -0.1557  0.0005 -0.2165
 9497TIP3    H152686   0.851   1.245   0.824 -1.3999 -0.3369  1.0984
 9497TIP3    H252687   0.733   1.323   0.770  0.0884  0.6291 -0.8786
 9498TIP3   OH252688   0.243   2.109   1.554  0.5016  0.0694  0.2617
 9498TIP3    H152689   0.255   2.032   1.610  2.2626  0.6594  0.7453
 9498TIP3    H252690   0.154   2.100   1.521 -0.2133 -0.8977  2.2589
 9499TIP3   OH252691   5.020   1.863   2.390  0.0481 -0.4451 -0.0976
 9499TIP3    H152692   4.985   1.892   2.306 -0.9429  0.0448  0.4623
 9499TIP3    H252693   5.023   1.942   2.444  0.3325 -0.8118  0.4402
 9500TIP3   OH252694   0.836   5.985   2.006 -0.0683 -0.6268 -0.0997
 9500TIP3    H152695   0.745   6.005   2.029 -0.2739 -1.0427 -0.5417
 9500TIP3    H252696   0.864   6.061   1.955 -0.4344 -0.8553 -0.6575
 9501TIP3   OH252697   3.850   3.084   1.067  0.2227 -0.5285 -0.1998
 9501TIP3    H152698   3.867   3.103   1.159  0.2850  0.6717 -0.4475
 9501TIP3    H252699   3.760   3.113   1.052  0.3534 -0.3297 -0.6180
 9502TIP3   OH252700   0.278   1.887   1.719 -0.4123  0.3582 -0.3276
 9502TIP3    H152701   0.346   1.847   1.665 -1.2984  1.2947 -2.2511
 9502TIP3    H252702   0.207   1.823   1.719 -0.5045  0.4603 -0.4760
 9503TIP3   OH252703   6.238   4.929   3.366  0.0235  0.3602 -0.6521
 9503TIP3    H152704   6.147   4.900   3.378 -0.8700  2.6585 -1.3044
 9503TIP3    H252705   6.283   4.902   3.446 -2.1033  2.1527  1.2938
 9504TIP3   OH252706   1.302   1.580   1.447  0.3039  0.5567  0.2186
 9504TIP3    H152707   1.309   1.498   1.496 -3.2377  0.1637  0.3373
 9504TIP3    H252708   1.292   1.647   1.514  1.9018  0.9744  0.0839
 9505TIP3   OH252709   2.200   3.605   2.592  0.5881  0.1058 -0.6616
 9505TIP3    H152710   2.170   3.620   2.502 -0.6959  2.1174  0.0450
 9505TIP3    H252711   2.137   3.541   2.627 -1.1648  2.0084 -0.1432
 9506TIP3   OH252712   0.333   3.471   1.428  0.3192 -0.4603  0.2330
 9506TIP3    H152713   0.357   3.557   1.464  1.9325 -0.1579 -1.4114
 9506TIP3    H252714   0.238   3.473   1.420  0.3229  1.1026  0.3798
 9507TIP3   OH252715   0.748   3.920   2.640 -0.1472  0.1680 -0.1357
 9507TIP3    H152716   0.812   3.990   2.623  1.2883 -1.2849 -1.0700
 9507TIP3    H252717   0.797   3.856   2.691 -1.0501 -0.7175 -0.3612
 9508TIP3   OH252718   5.631   5.409   3.207 -0.0366  0.0198  0.3022
 9508TIP3    H152719   5.712   5.393   3.160 -1.1694 -0.6156 -1.5441
 9508TIP3    H252720   5.643   5.363   3.290  0.8614 -1.5415 -0.6344
 9509TIP3   OH252721   1.475   0.264   1.259 -0.0073 -0.2587  0.2269
 9509TIP3    H152722   1.463   0.186   1.313 -2.0172  1.1411  1.9700
 9509TIP3    H252723   1.570   0.277   1.256  0.2441 -1.5164  1.7856
 9510TIP3   OH252724   5.059   0.481   3.470 -0.2005  0.5669  0.0139
 9510TIP3    H152725   5.027   0.494   3.559  0.0624  0.6665  0.0941
 9510TIP3    H252726   5.057   0.386   3.457 -2.6483  0.6718 -0.7589
 9511TIP3   OH252727   5.237   2.146   2.993  0.6034 -0.6030 -0.1726
 9511TIP3    H152728   5.286   2.199   2.931  0.4212 -0.3476 -0.1001
 9511TIP3    H252729   5.295   2.136   3.068  1.3038 -1.9152 -0.8469
 9512TIP3   OH252730   3.163   3.198   0.808  0.7025  0.0085  0.4495
 9512TIP3    H152731   3.250   3.215   0.843 -0.3963  1.2960  2.7846
 9512TIP3    H252732   3.103   3.239   0.871 -1.6706 -2.3361 -0.0776
 9513TIP3   OH252733   2.002   5.533   2.420  0.7050  0.3455  0.0964
 9513TIP3    H152734   2.084   5.545   2.469  1.7970  0.8455 -1.7633
 9513TIP3    H252735   1.934   5.535   2.487  2.1608  0.5176  1.6405
 9514TIP3   OH252736   0.326   0.249   0.872 -0.1741 -0.2863 -0.4629
 9514TIP3    H152737   0.340   0.167   0.919  0.9367  0.8283  1.2532
 9514TIP3    H252738   0.243   0.235   0.825  0.1579 -2.4857 -0.5227
 9515TIP3   OH252739   6.259   1.613   2.799 -0.1863 -1.0090 -0.3672
 9515TIP3    H152740   6.295   1.545   2.856 -0.2663 -1.1689 -0.5081
 9515TIP3    H252741   6.266   1.694   2.851  0.6771 -0.9779 -0.5141
 9516TIP3   OH252742   3.760   2.734   2.386  0.2473  0.0885  0.3479
 9516TIP3    H152743   3.814   2.711   2.310 -0.5501  1.0657 -0.5430
 9516TIP3    H252744   3.728   2.822   2.367  0.3758  0.5301  2.0335
 9517TIP3   OH252745   5.731   1.913   3.007 -0.1628 -0.0301  0.1180
 9517TIP3    H152746   5.733   1.973   2.932  0.8410 -1.7917 -1.3290
 9517TIP3    H252747   5.767   1.831   2.974 -3.2732 -2.1285  1.4755
 9518TIP3   OH252748   0.309   4.035   1.441 -0.3762 -0.6167  0.1002
 9518TIP3    H152749   0.402   4.052   1.427 -0.2687 -2.2163 -1.4079
 9518TIP3    H252750   0.290   4.075   1.526  1.9235 -1.1038  0.9170
 9519TIP3   OH252751   2.719   3.049   1.836 -0.4416  0.6120 -0.0479
 9519TIP3    H152752   2.637   3.087   1.805 -0.4505  0.1182 -0.6502
 9519TIP3    H252753   2.737   3.094   1.918 -1.5261  0.4465  0.2945
 9520TIP3   OH252754   1.389   2.416   0.762  0.1824 -0.6926  0.2362
 9520TIP3    H152755   1.361   2.450   0.677  0.7931 -0.8049 -0.0145
 9520TIP3    H252756   1.437   2.489   0.802 -0.1346 -0.6281  0.4978
 9521TIP3   OH252757   1.173   0.041   4.042  0.1418 -0.1790 -0.4124
 9521TIP3    H152758   1.150  -0.027   4.104  0.4248  1.5424  1.6815
 9521TIP3    H252759   1.089   0.067   4.002 -0.1606 -0.7201 -0.1311
 9522TIP3   OH252760   1.909   6.597   3.546  0.2344  0.5423 -0.4333
 9522TIP3    H152761   1.934   6.648   3.623 -0.2306  0.4690 -0.2320
 9522TIP3    H252762   1.976   6.529   3.540 -0.4572 -0.2567  0.6858
 9523TIP3   OH252763   0.035   0.756   1.743 -0.1418 -0.2194 -0.5012
 9523TIP3    H152764  -0.013   0.746   1.661  1.2014  1.7667 -1.6180
 9523TIP3    H252765   0.118   0.797   1.718  1.2530 -1.5040  1.6085
 9524TIP3   OH252766   6.427   6.254   3.418 -0.0347  0.4850 -0.9377
 9524TIP3    H152767   6.511   6.264   3.462  0.2968 -1.2494 -1.1071
 9524TIP3    H252768   6.440   6.297   3.333  0.0690  1.7922 -0.2958
 9525TIP3   OH252769   4.146   5.092   1.318  0.0944 -0.0672 -0.3177
 9525TIP3    H152770   4.190   5.173   1.344 -1.4159  0.9899 -0.9233
 9525TIP3    H252771   4.200   5.057   1.247 -0.9052  2.1305 -2.2643
 9526TIP3   OH252772   1.132   5.887   4.143  0.6994  0.3632 -0.2986
 9526TIP3    H152773   1.219   5.902   4.105 -0.1622  1.6294 -1.8976
 9526TIP3    H252774   1.076   5.951   4.100 -1.3288 -1.3471 -0.3400
 9527TIP3   OH252775   2.132   0.153   1.768 -0.1137 -0.6151  0.1448
 9527TIP3    H152776   2.126   0.077   1.826 -0.1362 -0.7276 -0.0036
 9527TIP3    H252777   2.226   0.164   1.753 -0.0392  0.0448  1.0252
 9528TIP3   OH252778   3.557   2.319   1.287  0.3203  0.4416 -0.2269
 9528TIP3    H152779   3.493   2.314   1.215 -1.9718  3.2107  1.4254
 9528TIP3    H252780   3.640   2.342   1.243 -0.3403 -0.6848 -2.2050
 9529TIP3   OH252781   4.970   0.944   2.840  0.2114  0.2628  0.5535
 9529TIP3    H152782   5.037   0.928   2.906  1.1753 -0.4286 -0.5436
 9529TIP3    H252783   4.976   0.868   2.782  0.0656  1.3043 -0.8741
 9530TIP3   OH252784   3.690   0.142   0.936 -0.3701  0.5931  0.3302
 9530TIP3    H152785   3.672   0.234   0.917 -0.5859  0.3334 -0.7850
 9530TIP3    H252786   3.605   0.098   0.929 -0.3607  0.3891  1.3899
 9531TIP3   OH252787   6.518   0.603   0.419  0.5906  0.1314  0.0561
 9531TIP3    H152788   6.528   0.544   0.494  1.6104  1.7306  1.2311
 9531TIP3    H252789   6.597   0.658   0.421  0.0704  0.9905 -1.4916
 9532TIP3   OH252790   2.318   4.981   1.042  0.0857 -0.2731  0.4849
 9532TIP3    H152791   2.351   4.995   1.131 -1.4993 -0.7489  1.1909
 9532TIP3    H252792   2.262   4.904   1.049  0.2311 -0.5449 -1.0240
 9533TIP3   OH252793   3.015   5.207   4.217  0.1496  0.6193 -0.1776
 9533TIP3    H152794   2.995   5.151   4.142 -1.5565 -0.4319  0.9982
 9533TIP3    H252795   3.089   5.163   4.260  0.3961  0.6165 -0.5930
 9534TIP3   OH252796   4.425   0.652   3.519 -0.2070  0.1289 -0.0007
 9534TIP3    H152797   4.488   0.636   3.590  0.0898 -0.6640 -0.4317
 9534TIP3    H252798   4.348   0.601   3.543 -0.7542  1.1839  0.5801
 9535TIP3   OH252799   2.406   4.583   1.742 -0.1702  0.3322 -0.2150
 9535TIP3    H152800   2.428   4.618   1.829 -0.6491  1.0559 -0.3771
 9535TIP3    H252801   2.409   4.488   1.753 -1.3158  0.3979  0.8828
 9536TIP3   OH252802   6.620   5.019   2.605 -0.5332  0.2671 -0.1212
 9536TIP3    H152803   6.693   4.958   2.615 -3.0176 -2.6615  1.8208
 9536TIP3    H252804   6.662   5.103   2.588  3.2610 -1.2809  0.5410
 9537TIP3   OH252805   4.169   3.539   1.190 -0.2674 -0.2938 -0.4081
 9537TIP3    H152806   4.195   3.629   1.171  0.2573 -0.2593  0.4322
 9537TIP3    H252807   4.251   3.494   1.209 -0.6537 -0.5991  0.5845
 9538TIP3   OH252808   3.062   6.583   3.035  0.7375  0.0065  0.6775
 9538TIP3    H152809   2.993   6.642   3.004  0.1678 -0.6579  0.6275
 9538TIP3    H252810   3.139   6.638   3.046 -0.1337  1.0309  1.9548
 9539TIP3   OH252811   2.340   4.403   2.124 -0.2517  0.0767 -0.4740
 9539TIP3    H152812   2.396   4.442   2.057 -0.8489 -0.1615 -1.1270
 9539TIP3    H252813   2.321   4.475   2.185  2.2327 -0.2309  0.8210
 9540TIP3   OH252814   0.538   6.062   3.278 -0.4995 -0.2478  0.3809
 9540TIP3    H152815   0.605   6.080   3.213  0.1068 -1.3551  0.6611
 9540TIP3    H252816   0.557   5.972   3.307 -0.1830  0.5077  2.7219
 9541TIP3   OH252817   2.956   3.485   3.532  0.2796  0.0214 -0.6113
 9541TIP3    H152818   3.028   3.450   3.584  1.5035  1.6320 -1.1398
 9541TIP3    H252819   2.993   3.562   3.489 -1.5728  0.4892 -1.4578
 9542TIP3   OH252820   5.694   5.627   2.974 -0.5488 -0.2097 -0.2823
 9542TIP3    H152821   5.739   5.679   2.907 -0.6953 -1.5774 -1.4949
 9542TIP3    H252822   5.698   5.537   2.941 -1.6481 -0.7585  0.9925
 9543TIP3   OH252823   3.494   0.140   3.819 -0.3050 -0.1410  0.5982
 9543TIP3    H152824   3.543   0.222   3.809 -0.0843 -0.4665 -1.3121
 9543TIP3    H252825   3.407   0.167   3.848  0.1933  0.6491  1.3987
 9544TIP3   OH252826   2.556   6.438   1.765 -0.0681 -0.5310 -0.2292
 9544TIP3    H152827   2.527   6.522   1.800 -1.9137 -0.8705 -0.8425
 9544TIP3    H252828   2.475   6.389   1.749  0.9125 -2.0011 -0.9364
 9545TIP3   OH252829   4.690   5.182   2.401  0.0446 -0.3308  0.1124
 9545TIP3    H152830   4.763   5.245   2.397  1.0501 -1.3333  1.7216
 9545TIP3    H252831   4.611   5.236   2.396  0.8672  1.1510  2.0489
 9546TIP3   OH252832   4.379   6.277   1.415 -0.1995  1.1302  0.0398
 9546TIP3    H152833   4.426   6.199   1.444  0.5299  2.1202  1.6544
 9546TIP3    H252834   4.441   6.324   1.361 -0.2550  1.1257 -0.0276
 9547TIP3   OH252835   0.291   1.673   3.826 -0.1436 -0.1140 -0.0935
 9547TIP3    H152836   0.326   1.587   3.804 -0.7040 -0.5483  0.6941
 9547TIP3    H252837   0.203   1.656   3.860  0.7060  0.5043  2.6180
 9548TIP3   OH252838   6.335   1.161   2.444  0.2227 -0.0916 -0.1398
 9548TIP3    H152839   6.345   1.202   2.530 -0.2839  0.3068 -0.2676
 9548TIP3    H252840   6.386   1.216   2.385 -0.2907  0.2461 -0.2757
 9549TIP3   OH252841   6.820   2.694   2.901  0.0700 -0.1767 -0.2747
 9549TIP3    H152842   6.870   2.767   2.936  0.8118 -0.4953 -0.6471
 9549TIP3    H252843   6.786   2.725   2.818 -1.6680  0.5702  0.6620
 9550TIP3   OH252844   3.132   5.517   1.452  0.5089  0.1203  0.0180
 9550TIP3    H152845   3.183   5.439   1.475 -0.7762 -0.5803  0.6184
 9550TIP3    H252846   3.181   5.590   1.490  1.2667 -0.4964  0.2397
 9551TIP3   OH252847   1.866   5.842   3.797 -0.0073 -0.5430 -0.4311
 9551TIP3    H152848   1.924   5.886   3.735  0.4357 -2.3040 -1.3387
 9551TIP3    H252849   1.896   5.870   3.883  1.0915 -0.1100 -0.9435
 9552TIP3   OH252850   0.674   2.198   3.334 -0.1809 -0.5872  0.3889
 9552TIP3    H152851   0.659   2.212   3.240 -0.4135 -1.0517  0.3531
 9552TIP3    H252852   0.587   2.190   3.372 -0.1092  0.3162  0.7694
 9553TIP3   OH252853   0.964   6.642   3.477 -0.6531 -0.8264  1.2432
 9553TIP3    H152854   0.972   6.615   3.386  0.9982 -1.5021  1.5425
 9553TIP3    H252855   0.938   6.562   3.523  0.3807 -0.9682  1.6037
 9554TIP3   OH252856   6.450   3.635   0.844  0.0745  0.1525  0.4445
 9554TIP3    H152857   6.411   3.557   0.804 -0.2477  1.2093 -1.4083
 9554TIP3    H252858   6.375   3.688   0.872  0.2867  0.0335  1.2834
 9555TIP3   OH252859   0.596   3.862   2.244  0.3071  0.3737 -0.6017
 9555TIP3    H152860   0.553   3.845   2.328 -1.2943 -0.4884 -1.5357
 9555TIP3    H252861   0.591   3.957   2.233  1.0736  0.5634  0.5268
 9556TIP3   OH252862   2.915   2.284   2.742 -0.5845 -0.6391 -0.1830
 9556TIP3    H152863   2.965   2.316   2.817 -0.2679 -2.1583  0.2936
 9556TIP3    H252864   2.980   2.241   2.686 -1.2561 -2.3192  0.2644
 9557TIP3   OH252865   1.955   3.348   0.874  1.0275 -0.1276 -0.7045
 9557TIP3    H152866   1.926   3.266   0.913  1.6317 -0.5240 -1.0646
 9557TIP3    H252867   1.998   3.322   0.792  2.4983  0.4017 -0.1365
 9558TIP3   OH252868   5.024   4.968   1.583  0.0671  0.2336 -0.0508
 9558TIP3    H152869   5.105   5.008   1.550 -0.1429  0.9739  0.3246
 9558TIP3    H252870   5.054   4.899   1.642  0.4337  1.0140  0.6951
 9559TIP3   OH252871   6.580   2.664   2.426 -0.6925  0.4975 -0.0574
 9559TIP3    H152872   6.641   2.646   2.355  0.5949  1.6945  0.6860
 9559TIP3    H252873   6.526   2.736   2.393 -0.7658  0.3772 -0.1995
 9560TIP3   OH252874   3.629   5.977   3.483 -0.1825 -0.1785 -0.0686
 9560TIP3    H152875   3.687   6.042   3.522 -0.2380  0.2793 -0.7127
 9560TIP3    H252876   3.661   5.893   3.514  0.3557  0.1185  0.1865
 9561TIP3   OH252877   6.768   6.161   1.290 -0.5662 -0.3886 -0.0780
 9561TIP3    H152878   6.720   6.177   1.371  0.8722  1.2601  0.5273
 9561TIP3    H252879   6.808   6.075   1.302  0.1233  0.0925  1.2599
 9562TIP3   OH252880   0.206   3.038   1.006 -0.3031  0.6678  0.2375
 9562TIP3    H152881   0.269   3.002   0.944  1.3065 -0.5964  2.4726
 9562TIP3    H252882   0.143   2.968   1.021 -0.1206  0.6049  0.7418
 9563TIP3   OH252883   4.713   1.294   1.094 -0.4683 -0.0735  0.1918
 9563TIP3    H152884   4.687   1.337   1.176  0.6807  0.3031  0.3878
 9563TIP3    H252885   4.774   1.356   1.054  0.6638 -1.1970  0.1224
 9564TIP3   OH252886   0.957   4.909   1.674 -0.3003  0.4224 -0.0355
 9564TIP3    H152887   0.942   4.932   1.766  2.4848  2.6756  0.0152
 9564TIP3    H252888   1.048   4.879   1.672  0.0948  1.5357 -2.1647
 9565TIP3   OH252889   1.154   5.266   2.432  0.0025  0.0408 -0.0780
 9565TIP3    H152890   1.094   5.315   2.377  0.0080  0.7023  0.4985
 9565TIP3    H252891   1.235   5.260   2.380 -0.3334 -0.2775 -0.5755
 9566TIP3   OH252892   2.884   4.554   1.684 -0.2080 -0.0596  0.0577
 9566TIP3    H152893   2.838   4.619   1.631  1.2143  1.4866  0.6133
 9566TIP3    H252894   2.957   4.526   1.628  0.4917  0.5464  0.6432
 9567TIP3   OH252895   3.391   1.697   3.232 -0.0494 -0.6477  0.0361
 9567TIP3    H152896   3.461   1.760   3.217  0.0449 -1.0744 -1.4193
 9567TIP3    H252897   3.417   1.652   3.312 -0.4052  1.5026  1.4642
 9568TIP3   OH252898   6.374   4.167   2.369 -0.4023 -0.4420  0.0953
 9568TIP3    H152899   6.324   4.248   2.364  1.3035  0.7441  1.1297
 9568TIP3    H252900   6.328   4.106   2.311 -0.8088  1.7552 -2.0022
 9569TIP3   OH252901   4.000   3.372   2.757  0.5040  0.1094  0.3650
 9569TIP3    H152902   3.908   3.353   2.775  0.5791  0.6359  1.4125
 9569TIP3    H252903   3.998   3.440   2.690  0.1586 -0.6119 -0.3725
 9570TIP3   OH252904   2.557   6.194   2.023  0.3922 -0.1270  0.8950
 9570TIP3    H152905   2.503   6.269   1.997  0.9635 -0.6150 -2.1124
 9570TIP3    H252906   2.636   6.202   1.969  0.3720 -2.9942  0.2727
 9571TIP3   OH252907   0.926   1.986   2.157  0.6062 -0.0049  0.6535
 9571TIP3    H152908   0.900   2.008   2.067  0.9758  0.3319  0.6264
 9571TIP3    H252909   0.847   2.002   2.209 -0.4324 -2.6172  0.0608
 9572TIP3   OH252910   5.642   4.505   0.975  0.0574  0.5639 -0.3455
 9572TIP3    H152911   5.690   4.481   1.054 -0.3609 -0.4442 -0.3690
 9572TIP3    H252912   5.626   4.599   0.983 -1.4836  0.1995  1.6434
 9573TIP3   OH252913   4.135   3.853   2.377  0.0825 -0.0145  0.0626
 9573TIP3    H152914   4.138   3.759   2.391  0.5553 -0.2790 -1.5905
 9573TIP3    H252915   4.076   3.865   2.302  1.7568  0.7737 -1.2011
 9574TIP3   OH252916   2.752   0.960   3.523  0.2641 -0.3546  0.1394
 9574TIP3    H152917   2.816   1.030   3.532  0.8196 -0.8620  0.2221
 9574TIP3    H252918   2.800   0.880   3.545 -0.0429 -0.8921 -1.0320
 9575TIP3   OH252919   1.735   4.771   1.152  0.0368 -0.3284  0.6098
 9575TIP3    H152920   1.655   4.725   1.127 -0.6135  1.6209 -1.2727
 9575TIP3    H252921   1.704   4.853   1.190  1.1129  0.3442  0.0871
 9576TIP3   OH252922   0.173   2.716   1.681  0.1402  0.2013  0.5405
 9576TIP3    H152923   0.192   2.653   1.612 -1.3755 -0.8959  1.0720
 9576TIP3    H252924   0.134   2.790   1.635 -0.1025 -0.1764  0.1345
 9577TIP3   OH252925   2.941   4.120   2.325  0.0005 -0.6729 -0.4296
 9577TIP3    H152926   2.962   4.210   2.350  1.6301 -1.0607 -0.2927
 9577TIP3    H252927   2.847   4.113   2.339  0.2593  0.1671  2.3258
 9578TIP3   OH252928   1.557   2.301   2.407 -0.2326 -0.3021  0.0219
 9578TIP3    H152929   1.601   2.350   2.337  0.0762 -3.5390 -2.2422
 9578TIP3    H252930   1.611   2.318   2.485 -0.4559  3.2227 -0.4184
 9579TIP3   OH252931   0.421   2.987   0.851  0.0093 -0.1342  0.2606
 9579TIP3    H152932   0.412   3.010   0.759 -0.1163  1.9110  0.7277
 9579TIP3    H252933   0.463   3.064   0.891  1.9300 -1.7549  1.5632
 9580TIP3   OH252934   4.662   0.987   3.620 -0.2113  0.3744  0.7704
 9580TIP3    H152935   4.618   0.952   3.698 -0.2898  0.4818  0.7752
 9580TIP3    H252936   4.731   1.044   3.654 -0.4138  0.6268  0.7612
 9581TIP3   OH252937   3.620   3.806   2.898 -0.3345  0.6054  0.0908
 9581TIP3    H152938   3.581   3.882   2.940  0.0906  0.3764  0.9280
 9581TIP3    H252939   3.698   3.787   2.950 -2.1504 -2.4191  2.1051
 9582TIP3   OH252940   5.125   5.834   2.603  0.1468  0.8635  0.0097
 9582TIP3    H152941   5.093   5.923   2.616 -0.6370  0.7274 -0.9190
 9582TIP3    H252942   5.061   5.793   2.546  0.8133 -0.1191 -0.0632
 9583TIP3   OH252943   0.535   2.507   3.056 -0.1797  0.1444 -0.1720
 9583TIP3    H152944   0.496   2.493   3.142 -0.9975  0.8641 -0.4183
 9583TIP3    H252945   0.582   2.590   3.064  0.9621 -0.4875 -0.0131
 9584TIP3   OH252946   4.955   5.638   3.146  0.5017 -1.0547  0.1136
 9584TIP3    H152947   4.890   5.610   3.211 -0.2198  0.0888 -0.0781
 9584TIP3    H252948   4.950   5.734   3.147 -0.4213 -0.9971 -2.4550
 9585TIP3   OH252949   1.292   6.732   1.187 -0.7047  0.0538  0.1507
 9585TIP3    H152950   1.235   6.656   1.181 -1.7923  0.7876  0.8383
 9585TIP3    H252951   1.372   6.706   1.139 -1.3419 -1.2195 -0.2728
 9586TIP3   OH252952   2.013   6.122   2.985 -0.1482  0.1640  0.0852
 9586TIP3    H152953   2.014   6.153   2.895  1.1745 -0.1066 -0.0076
 9586TIP3    H252954   1.966   6.038   2.981 -0.6646  0.4598 -0.2280
 9587TIP3   OH252955   6.484   3.372   2.282  0.2020 -0.1824 -0.5906
 9587TIP3    H152956   6.518   3.284   2.300  1.5247  0.1194 -1.4408
 9587TIP3    H252957   6.536   3.402   2.207 -1.1940  0.7824 -1.1988
 9588TIP3   OH252958   3.985   3.953   1.462  0.6866  0.2750 -0.1267
 9588TIP3    H152959   4.003   3.987   1.374  1.0312 -0.2973 -0.2852
 9588TIP3    H252960   3.986   3.857   1.451 -1.9619  0.1634 -0.0513
 9589TIP3   OH252961   1.335   0.395   4.177 -0.2145 -0.1511 -0.3256
 9589TIP3    H152962   1.355   0.391   4.083  0.3499 -1.1317 -0.1744
 9589TIP3    H252963   1.344   0.305   4.207 -2.1986 -0.1676  0.3291
 9590TIP3   OH252964   5.942   6.660   3.521 -0.3513  0.4382 -0.0006
 9590TIP3    H152965   5.880   6.588   3.536 -1.6256  1.2112 -1.2680
 9590TIP3    H252966   6.002   6.626   3.454 -0.6654  0.3784 -0.2560
 9591TIP3   OH252967   5.678   1.874   1.598 -0.6421  0.3015 -0.4855
 9591TIP3    H152968   5.671   1.916   1.512 -2.4659  2.5930  0.6638
 9591TIP3    H252969   5.591   1.837   1.613  0.1074 -1.4203 -0.2292
 9592TIP3   OH252970   6.100   5.176   2.813  0.3915  0.3444 -0.0818
 9592TIP3    H152971   6.184   5.130   2.810 -0.3443 -1.0763  0.0660
 9592TIP3    H252972   6.089   5.198   2.906  0.2501 -0.1598  0.0233
 9593TIP3   OH252973   3.287   5.136   2.371  0.3905 -0.2952  0.3256
 9593TIP3    H152974   3.330   5.140   2.285 -1.8872  0.6263 -0.8621
 9593TIP3    H252975   3.338   5.196   2.425  1.4493 -0.3432 -0.5683
 9594TIP3   OH252976   3.171   1.482   3.261  0.4552 -0.1934 -0.1762
 9594TIP3    H152977   3.129   1.548   3.315 -0.0142 -0.1184 -0.6283
 9594TIP3    H252978   3.257   1.468   3.302  0.4704  0.5302  0.0443
 9595TIP3   OH252979   6.562   6.134   0.916  0.6117 -0.3632 -0.0829
 9595TIP3    H152980   6.513   6.176   0.986 -1.4621 -1.0403 -1.0681
 9595TIP3    H252981   6.619   6.203   0.882  0.2186  0.4997  0.9573
 9596TIP3   OH252982   3.980   5.732   1.607  0.3403  0.0135 -0.0440
 9596TIP3    H152983   4.067   5.737   1.567  0.4180  0.5782  0.1906
 9596TIP3    H252984   3.952   5.641   1.593  0.9173 -0.1384 -0.2215
 9597TIP3   OH252985   1.465   4.649   0.640  0.4531  0.1527  0.3880
 9597TIP3    H152986   1.454   4.742   0.623 -0.1005 -0.0556 -0.4457
 9597TIP3    H252987   1.508   4.645   0.726  2.5649  1.2306 -0.5416
 9598TIP3   OH252988   1.619   5.423   2.156  0.5882  0.0832 -0.0639
 9598TIP3    H152989   1.609   5.348   2.215 -0.4555 -0.2892 -0.6751
 9598TIP3    H252990   1.668   5.488   2.207 -1.7389  0.4631  1.8784
 9599TIP3   OH252991   0.889   2.991   3.509 -0.2162  0.0874  0.0805
 9599TIP3    H152992   0.965   2.935   3.525  0.0643 -0.6972 -3.2775
 9599TIP3    H252993   0.927   3.072   3.473 -0.8928  0.3962  0.0544
 9600TIP3   OH252994   5.570   3.623   1.929  0.1034  0.1248  0.2980
 9600TIP3    H152995   5.634   3.631   2.000  0.7161  2.2269 -0.3913
 9600TIP3    H252996   5.545   3.714   1.910 -1.1685 -0.4903 -1.1728
 9601TIP3   OH252997   4.506   3.258   3.191  0.2312  0.4462 -0.0079
 9601TIP3    H152998   4.465   3.253   3.104  1.0072  1.6545 -0.4753
 9601TIP3    H252999   4.455   3.324   3.238 -0.0977 -0.1038  0.4287
 9602TIP3   OH253000   4.909   3.946   3.150  0.2084  0.1605 -0.3124
 9602TIP3    H153001   4.893   4.009   3.080  0.3773 -1.1619 -1.5959
 9602TIP3    H253002   5.005   3.941   3.157  0.2377  1.9443  1.6319
 9603TIP3   OH253003   5.373   5.021   0.964 -0.1508 -0.4315  0.8242
 9603TIP3    H153004   5.297   5.057   0.917 -0.0041 -0.8107  0.2913
 9603TIP3    H253005   5.448   5.043   0.908  0.1723  0.2371  1.5138
 9604TIP3   OH253006   5.241   2.789   2.405 -0.1287  0.2772 -0.6726
 9604TIP3    H153007   5.216   2.787   2.313 -1.2712 -0.7267 -0.3641
 9604TIP3    H253008   5.158   2.786   2.453  0.4869 -1.5277  0.3910
 9605TIP3   OH253009   5.097   1.535   1.221 -0.6257 -0.3047 -0.5957
 9605TIP3    H153010   5.109   1.449   1.181 -1.1643  0.0437 -1.5548
 9605TIP3    H253011   5.030   1.521   1.288 -0.3146 -0.7403 -0.3707
 9606TIP3   OH253012   6.706   2.791   2.658  0.1166 -0.2812  0.1617
 9606TIP3    H153013   6.745   2.855   2.599  0.1961 -0.2273  0.2746
 9606TIP3    H253014   6.664   2.727   2.599  0.7331 -0.5705  0.0291
 9607TIP3   OH253015   2.648   5.648   0.727  0.6611  0.0123 -0.4446
 9607TIP3    H153016   2.563   5.605   0.710  1.2864 -0.6434 -2.1242
 9607TIP3    H253017   2.675   5.613   0.812 -1.0565  0.7720  0.4614
 9608TIP3   OH253018   0.174   6.208   3.152 -0.2172  0.3216  0.2263
 9608TIP3    H153019   0.081   6.215   3.173 -0.1457  2.2987 -0.0126
 9608TIP3    H253020   0.176   6.187   3.059 -0.4094  0.5073  0.1799
 9609TIP3   OH253021   1.747   5.352   3.063 -0.6096 -0.2495  0.0734
 9609TIP3    H153022   1.798   5.350   3.144 -1.1244  0.0049  0.4150
 9609TIP3    H253023   1.750   5.443   3.036  0.9902 -0.6278 -1.1447
 9610TIP3   OH253024   3.415   1.736   2.673 -0.1042  0.1322 -1.0149
 9610TIP3    H153025   3.320   1.724   2.678 -0.1429 -0.0197 -2.0005
 9610TIP3    H253026   3.442   1.686   2.597  0.6119  1.0929 -1.4147
 9611TIP3   OH253027   6.589   5.240   0.703  0.1583  0.0478 -0.3559
 9611TIP3    H153028   6.684   5.255   0.697 -0.2933  2.6452 -2.7139
 9611TIP3    H253029   6.577   5.152   0.666  1.5594  0.1822 -1.2196
 9612TIP3   OH253030   1.429   1.498   1.746 -0.3742 -0.2580  0.1266
 9612TIP3    H153031   1.446   1.589   1.769  1.4288 -0.3175 -0.8532
 9612TIP3    H253032   1.485   1.447   1.805 -0.9037 -0.7247  0.2414
 9613TIP3   OH253033   3.743   1.728   2.701  0.2191  0.1218  0.4165
 9613TIP3    H153034   3.822   1.782   2.713  2.2349 -2.6936  0.7378
 9613TIP3    H253035   3.688   1.780   2.641  2.4315  2.0871 -0.0759
 9614TIP3   OH253036   6.213   4.227   0.734 -0.0922  0.3426 -0.4176
 9614TIP3    H153037   6.299   4.245   0.696 -1.0831  1.3576 -2.3526
 9614TIP3    H253038   6.211   4.281   0.814  1.1228  0.1226 -0.2119
 9615TIP3   OH253039   2.303   5.639   2.118 -0.0976 -0.3634  0.3763
 9615TIP3    H153040   2.268   5.551   2.110 -1.3233  0.0130  1.2333
 9615TIP3    H253041   2.230   5.691   2.154  0.4347  1.0941 -0.5322
 9616TIP3   OH253042   0.971   5.787   3.142  0.4811  0.5731 -0.3249
 9616TIP3    H153043   0.931   5.708   3.177  1.8030  0.4163  0.8926
 9616TIP3    H253044   0.916   5.859   3.174  0.1580  0.2566 -0.1741
 9617TIP3   OH253045   4.727   2.796   2.150 -0.0857  0.6610  0.4369
 9617TIP3    H153046   4.643   2.833   2.178 -0.4691 -0.1366  0.3762
 9617TIP3    H253047   4.741   2.722   2.209 -0.0717 -0.0076 -0.3814
 9618TIP3   OH253048   1.293   1.724   2.647 -0.2874  0.2239  0.1569
 9618TIP3    H153049   1.224   1.677   2.694 -2.0031 -0.8651 -3.1696
 9618TIP3    H253050   1.363   1.660   2.636 -0.3830  0.1194  0.1560
 9619TIP3   OH253051   3.709   3.082   2.029  0.3365 -0.0338  0.2331
 9619TIP3    H153052   3.673   3.168   2.010 -0.5684 -0.5920 -0.6986
 9619TIP3    H253053   3.650   3.043   2.093  0.5895 -0.0640  0.4503
 9620TIP3   OH253054   0.487   4.943   2.368  0.4866 -0.2562  0.0786
 9620TIP3    H153055   0.502   5.026   2.321  1.5312 -0.7130 -0.4302
 9620TIP3    H253056   0.431   4.893   2.309  0.1183 -0.0464  0.2440
 9621TIP3   OH253057   6.632   0.780   1.359  0.5296  0.2661 -0.0492
 9621TIP3    H153058   6.663   0.853   1.306  2.4329  0.8973  1.7992
 9621TIP3    H253059   6.624   0.816   1.448 -0.7088 -1.2098  0.4783
 9622TIP3   OH253060   1.530   4.491   1.737 -0.1354  0.3427  0.3115
 9622TIP3    H153061   1.568   4.470   1.651 -0.2096 -0.0270  0.3674
 9622TIP3    H253062   1.436   4.489   1.722 -0.1458  1.0991  0.2112
 9623TIP3   OH253063   6.740   3.871   2.808 -0.2765  0.2542 -0.2102
 9623TIP3    H153064   6.812   3.853   2.748 -1.0948 -2.3160 -0.5238
 9623TIP3    H253065   6.775   3.935   2.869  2.5113 -1.3857  0.0545
 9624TIP3   OH253066   3.438   1.852   1.469 -0.6274  0.3181 -0.0650
 9624TIP3    H153067   3.491   1.925   1.439  1.6388  0.2663  3.3289
 9624TIP3    H253068   3.464   1.779   1.412 -0.3369  1.3094 -1.2489
 9625TIP3   OH253069   4.011   2.051   3.707 -0.3288  0.2540 -0.2616
 9625TIP3    H153070   3.978   2.010   3.627 -0.0345 -1.2699  0.3748
 9625TIP3    H253071   4.057   1.981   3.753  0.8701  1.4882  0.4983
 9626TIP3   OH253072   2.278   1.666   0.926 -0.0196 -0.1329  0.2692
 9626TIP3    H153073   2.362   1.624   0.908  0.3471  0.5946  0.2592
 9626TIP3    H253074   2.218   1.627   0.863  0.0486 -1.4737  1.0066
 9627TIP3   OH253075   0.399   2.161   3.002  0.4369 -0.2449 -0.3583
 9627TIP3    H153076   0.395   2.069   3.029  1.5024 -1.0726 -2.7666
 9627TIP3    H253077   0.492   2.180   2.994  0.2099  0.5821 -1.2844
 9628TIP3   OH253078   1.310   1.614   3.618 -0.0112 -0.1682 -0.4900
 9628TIP3    H153079   1.251   1.684   3.643  0.2087  0.0019 -0.4418
 9628TIP3    H253080   1.268   1.572   3.542 -0.0810  0.0946 -0.5964
 9629TIP3   OH253081   0.840   2.130   1.384 -0.2914  0.5365 -0.0216
 9629TIP3    H153082   0.745   2.123   1.377 -0.2149  0.6113 -1.3719
 9629TIP3    H253083   0.855   2.173   1.468 -1.4430  0.3800  0.2745
 9630TIP3   OH253084   5.699   3.686   0.972  0.0082 -0.5015  0.1992
 9630TIP3    H153085   5.713   3.726   0.887 -1.4635 -0.8482 -0.2320
 9630TIP3    H253086   5.725   3.753   1.035 -0.5250  0.4103 -0.5218
 9631TIP3   OH253087   1.452   5.898   2.067  0.4538 -0.1162 -0.0645
 9631TIP3    H153088   1.547   5.892   2.056  0.4729  1.6594 -1.1228
 9631TIP3    H253089   1.416   5.842   1.999  0.7479  0.7981 -0.9987
 9632TIP3   OH253090   1.008   4.130   0.666  0.4089  0.8064 -0.7660
 9632TIP3    H153091   1.095   4.170   0.678  0.3699  0.4145  1.3105
 9632TIP3    H253092   1.011   4.051   0.720 -1.7962  1.7186  0.8548
 9633TIP3   OH253093   4.364   1.334   1.556  0.1605 -0.1860  0.2532
 9633TIP3    H153094   4.385   1.296   1.641 -0.3120  0.0745  0.4927
 9633TIP3    H253095   4.325   1.262   1.507  1.5751 -0.6666 -0.1914
 9634TIP3   OH253096   1.653   4.414   0.626 -0.6134 -0.1623  0.4338
 9634TIP3    H153097   1.589   4.485   0.618  0.6681  1.2669  2.1158
 9634TIP3    H253098   1.728   4.445   0.575 -0.5496 -0.9669  0.0286
 9635TIP3   OH253099   1.452   4.361   2.948 -0.0137  0.0351 -0.0817
 9635TIP3    H153100   1.447   4.456   2.936 -0.3348  0.1674  1.0680
 9635TIP3    H253101   1.479   4.349   3.039 -3.0446 -0.9868  0.8001
 9636TIP3   OH253102   4.347   3.260   0.893  0.4126 -0.0516  0.0826
 9636TIP3    H153103   4.356   3.182   0.948 -0.9963  1.2797  2.3785
 9636TIP3    H253104   4.289   3.233   0.822 -0.0357 -1.1257  0.8239
 9637TIP3   OH253105   4.195   6.050   1.033 -0.0261  0.7191  0.1781
 9637TIP3    H153106   4.115   6.094   1.005 -1.5992 -1.0796  1.6396
 9637TIP3    H253107   4.224   6.001   0.956 -0.9614  0.5029 -0.0429
 9638TIP3   OH253108   0.961   4.649   2.631 -0.2039  0.0930 -0.3553
 9638TIP3    H153109   0.876   4.624   2.594 -1.0263  0.7407  1.0528
 9638TIP3    H253110   1.006   4.566   2.645 -1.7626 -0.4866  1.5681
 9639TIP3   OH253111   2.419   5.047   1.276  0.3517 -0.3528 -0.0239
 9639TIP3    H153112   2.462   5.036   1.361  1.8806  0.0644 -0.7195
 9639TIP3    H253113   2.361   5.122   1.288 -0.9117 -1.4427  1.1733
 9640TIP3   OH253114   4.317   3.270   1.833  0.2982  0.1741  0.0892
 9640TIP3    H153115   4.235   3.291   1.788 -0.1103 -0.0265  0.7213
 9640TIP3    H253116   4.385   3.315   1.783 -0.2685  0.8482 -0.0805
 9641TIP3   OH253117   4.062   4.686   1.336 -0.3836 -0.9585  0.2202
 9641TIP3    H153118   4.073   4.615   1.399 -0.8912 -0.6437  0.6710
 9641TIP3    H253119   4.150   4.718   1.319 -0.2369 -1.1154  0.6855
 9642TIP3   OH253120   6.005   3.797   0.829 -0.7077  0.4106 -0.0887
 9642TIP3    H153121   5.980   3.846   0.908  0.7739  0.3419  0.4631
 9642TIP3    H253122   6.065   3.855   0.783 -0.7592  0.0350 -0.6365
 9643TIP3   OH253123   2.855   5.601   3.552 -0.6087 -0.0605  0.0671
 9643TIP3    H153124   2.777   5.599   3.496 -1.4929 -0.1921  1.2572
 9643TIP3    H253125   2.906   5.675   3.520 -1.7507  0.6945 -0.0603
 9644TIP3   OH253126   2.921   6.177   0.840  0.3206 -0.1879 -0.5760
 9644TIP3    H153127   3.001   6.138   0.805  1.1300  1.0865 -0.2034
 9644TIP3    H253128   2.947   6.214   0.924 -1.1868 -1.6122  0.5733
 9645TIP3   OH253129   0.977   1.599   1.933  0.5572 -0.3365 -0.7206
 9645TIP3    H153130   0.891   1.626   1.963  1.4171  0.8927  0.7465
 9645TIP3    H253131   0.979   1.504   1.947 -0.1424 -0.2057  0.3336
 9646TIP3   OH253132   3.953   5.790   2.541 -0.4033  0.3588  0.5053
 9646TIP3    H153133   3.950   5.886   2.533 -1.4571  0.1810 -2.4205
 9646TIP3    H253134   3.872   5.760   2.500  0.0075 -1.8309  1.1677
 9647TIP3   OH253135   5.303   0.766   2.072  0.6866  0.4379 -0.3093
 9647TIP3    H153136   5.262   0.845   2.106 -0.9964 -0.4763 -0.0767
 9647TIP3    H253137   5.335   0.790   1.985 -0.1314  1.2716 -0.3905
 9648TIP3   OH253138   0.879   0.956   0.467 -0.0109 -0.3071 -0.0544
 9648TIP3    H153139   0.915   0.957   0.556 -0.9448 -2.5941  0.4180
 9648TIP3    H253140   0.954   0.935   0.411  0.5708  1.0829  0.1484
 9649TIP3   OH253141   3.372   5.774   2.905  0.3688 -0.1680  0.2528
 9649TIP3    H153142   3.297   5.768   2.963 -1.6799  0.5169 -2.1604
 9649TIP3    H253143   3.413   5.858   2.926 -0.3928  0.1158  0.6102
 9650TIP3   OH253144   1.250   1.897   1.454 -0.4124 -0.9804  0.0128
 9650TIP3    H153145   1.328   1.877   1.402  0.4439 -0.7470  1.1807
 9650TIP3    H253146   1.178   1.854   1.407  0.2814 -0.5157 -1.5233
 9651TIP3   OH253147   3.983   3.367   2.178 -1.3286 -0.2116 -0.0515
 9651TIP3    H153148   4.018   3.427   2.244 -0.3033 -0.4915 -0.3268
 9651TIP3    H253149   3.921   3.312   2.226 -3.0585  1.6680  0.0286
 9652TIP3   OH253150   1.334   2.492   3.441  0.5906  0.3917 -0.1365
 9652TIP3    H153151   1.421   2.470   3.474  0.3416  1.4026  1.2667
 9652TIP3    H253152   1.327   2.445   3.357  1.9214 -0.8531  0.4150
 9653TIP3   OH253153   2.735   1.492   1.630  0.4275  0.2129 -0.1595
 9653TIP3    H153154   2.651   1.470   1.589  1.1460 -0.4152 -1.3418
 9653TIP3    H253155   2.766   1.408   1.665  0.0655  0.6448  1.2876
 9654TIP3   OH253156   0.998   4.609   0.631  0.0687 -0.7351 -0.0322
 9654TIP3    H153157   0.916   4.596   0.679  0.0398 -0.2202  0.0676
 9654TIP3    H253158   0.981   4.574   0.544 -0.1765 -0.8596  0.0651
 9655TIP3   OH253159   3.320   2.581   2.059 -0.0713  0.3281  0.0008
 9655TIP3    H153160   3.415   2.578   2.047  0.1255 -0.2267  1.5417
 9655TIP3    H253161   3.306   2.564   2.152 -1.7324 -0.5738 -0.3624
 9656TIP3   OH253162   1.283   4.102   0.942  0.1972  0.2101  0.0804
 9656TIP3    H153163   1.301   4.021   0.894  0.7675  0.1428  0.4021
 9656TIP3    H253164   1.292   4.171   0.877  0.8365  0.1073  0.0558
 9657TIP3   OH253165   1.786   1.986   1.375 -0.2132  0.2323 -0.1234
 9657TIP3    H153166   1.848   1.938   1.431  0.2642 -0.4730 -1.2179
 9657TIP3    H253167   1.815   2.077   1.381  0.8946 -0.0735 -0.5419
 9658TIP3   OH253168   4.394   0.478   2.592  0.3397 -0.5063 -0.8901
 9658TIP3    H153169   4.398   0.453   2.500 -1.2666  1.4263 -1.5421
 9658TIP3    H253170   4.337   0.413   2.632  1.0357 -1.3481 -1.2365
 9659TIP3   OH253171   4.090   2.069   2.923 -0.4113  0.2473 -0.1695
 9659TIP3    H153172   4.136   2.126   2.861  0.3900 -0.4388 -0.2185
 9659TIP3    H253173   4.160   2.018   2.965 -0.9881  0.3121  0.9030
 9660TIP3   OH253174   1.806   6.531   2.148  0.4897 -0.8439  0.4431
 9660TIP3    H153175   1.719   6.521   2.186  1.3037 -0.6409  2.4415
 9660TIP3    H253176   1.818   6.625   2.141  0.2722 -0.8727 -0.6047
 9661TIP3   OH253177   3.836   5.179   2.293 -0.2231 -0.2966  0.1406
 9661TIP3    H153178   3.927   5.207   2.284 -0.6822  1.0778 -0.4315
 9661TIP3    H253179   3.790   5.255   2.329 -1.6390 -0.0071 -2.0708
 9662TIP3   OH253180   4.642   3.824   2.368  0.7211 -0.3120 -0.5587
 9662TIP3    H153181   4.681   3.775   2.295 -0.2720 -0.8821 -0.7310
 9662TIP3    H253182   4.555   3.849   2.335  1.0515  1.2092 -0.3127
 9663TIP3   OH253183   5.993   2.835   2.793  0.1234  0.2989  0.5348
 9663TIP3    H153184   5.994   2.858   2.886  1.1915  0.7252  0.4376
 9663TIP3    H253185   5.940   2.903   2.752  0.7928  0.9189  0.6616
 9664TIP3   OH253186   5.302   0.036   1.167 -0.6485  0.0035  0.3929
 9664TIP3    H153187   5.308   0.073   1.255 -0.2429  2.2519 -0.5216
 9664TIP3    H253188   5.235  -0.032   1.175  1.1161 -1.6362  2.9707
 9665TIP3   OH253189   0.178   1.595   2.023  0.5259  0.1670  0.1458
 9665TIP3    H153190   0.215   1.548   2.097  0.4598 -0.1670 -0.0264
 9665TIP3    H253191   0.083   1.586   2.034  0.3302 -4.0780 -2.4351
 9666TIP3   OH253192   1.862   1.534   4.416 -0.4599 -0.2469 -0.4425
 9666TIP3    H153193   1.800   1.605   4.401 -0.3269 -0.3720 -1.7155
 9666TIP3    H253194   1.939   1.577   4.453 -0.1203  0.3998 -1.8386
 9667TIP3   OH253195   2.734   4.114   2.785  0.2983  0.3919  0.1385
 9667TIP3    H153196   2.669   4.156   2.841 -0.1283  0.3650 -0.3321
 9667TIP3    H253197   2.791   4.186   2.756  1.8728  0.1271  2.3394
 9668TIP3   OH253198   4.700   2.556   3.010 -0.0876 -0.1503  0.2403
 9668TIP3    H153199   4.762   2.488   2.986 -1.7122 -1.1616 -1.4283
 9668TIP3    H253200   4.694   2.611   2.932 -0.1655  0.8218  0.9206
 9669TIP3   OH253201   5.387   0.019   0.623  0.3717 -0.0978 -0.3390
 9669TIP3    H153202   5.401  -0.035   0.545 -1.5630 -0.4302 -0.5001
 9669TIP3    H253203   5.351  -0.042   0.688  0.9976  0.3924  0.4858
 9670TIP3   OH253204   1.196   6.030   2.812 -0.2414  0.5612 -0.2815
 9670TIP3    H153205   1.208   5.963   2.879 -0.0423  0.3609 -0.5140
 9670TIP3    H253206   1.222   6.111   2.854  0.7766  0.3038 -0.4044
 9671TIP3   OH253207   0.359   3.836   2.810 -0.2728  0.6181 -0.9850
 9671TIP3    H153208   0.284   3.885   2.776 -0.9753 -0.6280 -1.2984
 9671TIP3    H253209   0.404   3.804   2.732  0.9274  1.7845 -0.8200
 9672TIP3   OH253210   0.523   0.304   2.092 -0.0130 -0.5385  0.2169
 9672TIP3    H153211   0.452   0.264   2.042 -1.0071  0.9553  0.3672
 9672TIP3    H253212   0.599   0.298   2.034 -0.6418 -0.7190 -0.6203
 9673TIP3   OH253213   2.361   5.249   3.399  0.5092 -0.0260  0.5646
 9673TIP3    H153214   2.411   5.255   3.481  1.4932  0.8006 -0.0653
 9673TIP3    H253215   2.380   5.161   3.366 -0.3934 -0.5868  1.5286
 9674TIP3   OH253216   1.600   3.261   2.092  0.4088  0.1886 -0.7090
 9674TIP3    H153217   1.533   3.308   2.042  0.1458 -0.0985 -0.6314
 9674TIP3    H253218   1.551   3.199   2.145  0.7943 -0.8179 -1.4914
 9675TIP3   OH253219   0.567   2.007   1.206 -0.1241  0.1767 -0.0425
 9675TIP3    H153220   0.565   2.083   1.148  1.9147 -0.1654 -0.6284
 9675TIP3    H253221   0.513   1.942   1.162 -1.5606  1.1061  0.2708
 9676TIP3   OH253222   6.210   2.762   0.681  0.2107  0.6108 -0.4443
 9676TIP3    H153223   6.234   2.848   0.716  0.1432  0.4149  0.1030
 9676TIP3    H253224   6.119   2.771   0.654  0.0890  0.6112 -0.0407
 9677TIP3   OH253225   0.337   5.699   0.843  0.1828  0.2656  0.0005
 9677TIP3    H153226   0.284   5.667   0.771 -0.3156  1.1818 -0.0466
 9677TIP3    H253227   0.285   5.768   0.884  0.1644 -0.6630  1.6525
 9678TIP3   OH253228   1.360   3.517   4.267 -0.6645  0.0045 -0.2917
 9678TIP3    H153229   1.401   3.589   4.220  0.3141 -0.4763 -0.1977
 9678TIP3    H253230   1.302   3.476   4.203  2.7738 -2.4450 -2.1192
 9679TIP3   OH253231   4.634   6.146   0.807  0.6129  0.5188 -0.3584
 9679TIP3    H153232   4.709   6.126   0.863  1.8192  2.1396 -1.3322
 9679TIP3    H253233   4.594   6.223   0.847  1.3966  1.6008 -1.6114
 9680TIP3   OH253234   4.785   3.320   0.584 -0.6889 -0.6042 -0.5348
 9680TIP3    H153235   4.704   3.340   0.630  0.5627  0.9055  1.1559
 9680TIP3    H253236   4.824   3.248   0.634 -1.3752 -1.9425 -1.8741
 9681TIP3   OH253237   1.181   6.123   3.253  0.2283  0.1687 -0.4791
 9681TIP3    H153238   1.232   6.042   3.260  1.9458  1.1089 -1.3257
 9681TIP3    H253239   1.185   6.161   3.340  0.6172  0.0081 -0.4225
 9682TIP3   OH253240   4.109   5.623   1.832 -0.2825 -0.4871  0.1721
 9682TIP3    H153241   4.108   5.529   1.814  0.0103 -0.5959  0.7261
 9682TIP3    H253242   4.023   5.653   1.803 -0.6136 -1.0373  0.5534
 9683TIP3   OH253243   0.658   5.720   0.984  0.1576  0.1465  0.3757
 9683TIP3    H153244   0.633   5.756   1.070 -0.1879 -0.2508  0.4469
 9683TIP3    H253245   0.687   5.631   1.003  0.4352  0.1819  0.1240
 9684TIP3   OH253246   6.011   3.960   1.975 -0.2528 -0.0302  0.1235
 9684TIP3    H153247   5.969   4.046   1.969  0.0001  0.1332  0.6391
 9684TIP3    H253248   5.998   3.921   1.888  1.2383  1.2839 -0.7595
 9685TIP3   OH253249   5.761   4.354   1.811  0.1239 -0.2709  0.2279
 9685TIP3    H153250   5.799   4.417   1.872  0.2485 -1.3290  1.2800
 9685TIP3    H253251   5.833   4.333   1.751  0.8974 -1.3463  1.4730
 9686TIP3   OH253252   0.828   5.013   2.748 -0.2216  0.8684 -0.1976
 9686TIP3    H153253   0.810   4.935   2.801  2.4472 -1.0503 -1.8522
 9686TIP3    H253254   0.899   5.057   2.795  1.5565 -0.3729 -1.6123
 9687TIP3   OH253255   0.764   1.626   3.529 -0.2396 -0.0755 -0.1097
 9687TIP3    H153256   0.698   1.584   3.584 -1.4566 -0.7724 -2.0297
 9687TIP3    H253257   0.804   1.692   3.586 -1.5424 -0.6533  1.5454
 9688TIP3   OH253258   1.083   4.445   0.883 -0.2068 -0.1335  0.2633
 9688TIP3    H153259   1.016   4.406   0.939  1.1562 -4.0155 -0.4739
 9688TIP3    H253260   1.035   4.496   0.819 -2.1236  0.3120  1.9554
 9689TIP3   OH253261   0.778   0.848   1.694 -0.1041  0.0564  0.5737
 9689TIP3    H153262   0.806   0.767   1.651 -0.4561 -0.0201  0.4824
 9689TIP3    H253263   0.838   0.914   1.660 -1.0808  0.2202 -0.9674
 9690TIP3   OH253264   0.502   4.589   2.113  0.2321  0.0968  0.2452
 9690TIP3    H153265   0.514   4.605   2.020  0.4478 -0.4535  0.1740
 9690TIP3    H253266   0.565   4.520   2.134 -0.1924 -0.1711  0.6735
 9691TIP3   OH253267   0.993   5.583   3.994 -0.3068 -0.5755  0.5659
 9691TIP3    H153268   0.925   5.558   4.057  0.7158  2.8384  3.3531
 9691TIP3    H253269   1.074   5.547   4.031 -0.1004 -1.6675 -0.8706
 9692TIP3   OH253270   2.433   2.637   2.988 -0.2918 -0.2454 -0.0350
 9692TIP3    H153271   2.345   2.606   3.012 -0.0896 -0.0627  1.0188
 9692TIP3    H253272   2.476   2.654   3.072  0.8062 -0.4661 -0.5313
 9693TIP3   OH253273   0.155   5.175   1.165  0.3924  0.3199 -0.5051
 9693TIP3    H153274   0.198   5.260   1.157 -0.4855  0.7826 -0.4430
 9693TIP3    H253275   0.069   5.195   1.202  0.6784 -0.7367  0.7951
 9694TIP3   OH253276   3.905   6.395   1.137 -0.0712 -0.4133  0.8351
 9694TIP3    H153277   3.961   6.334   1.090 -0.0287 -0.1496  0.5367
 9694TIP3    H253278   3.865   6.343   1.206  1.2303 -0.4154  1.6152
 9695TIP3   OH253279   4.816   6.746   1.670  0.4039  0.0377 -0.0184
 9695TIP3    H153280   4.871   6.738   1.592  0.9100 -3.1998  0.5408
 9695TIP3    H253281   4.857   6.816   1.721  0.6922  1.4722 -2.0872
 9696TIP3   OH253282   4.546   0.823   2.889 -0.1511  0.5068  0.7572
 9696TIP3    H153283   4.632   0.788   2.913 -0.3704 -1.1749 -0.6783
 9696TIP3    H253284   4.541   0.907   2.934  2.4485  0.8894  0.5017
 9697TIP3   OH253285   2.847   2.644   2.492 -0.1800  0.1471  0.1825
 9697TIP3    H153286   2.906   2.575   2.461  0.2864  0.9536 -0.7851
 9697TIP3    H253287   2.780   2.597   2.541 -0.5857 -1.1531 -1.4898
 9698TIP3   OH253288   6.618   2.311   2.598  0.2908  0.0192 -0.0041
 9698TIP3    H153289   6.550   2.259   2.641  0.0377  0.7999  0.5694
 9698TIP3    H253290   6.665   2.354   2.670  2.4996 -1.7738 -0.2613
 9699TIP3   OH253291   2.393   5.997   3.715  0.0658 -0.0596 -0.1267
 9699TIP3    H153292   2.476   5.951   3.723  0.4588  0.3818 -1.4181
 9699TIP3    H253293   2.377   6.002   3.621 -1.2138  0.2433  0.0858
 9700TIP3   OH253294   0.914   5.822   1.165 -0.2408 -0.0901  0.1827
 9700TIP3    H153295   0.950   5.910   1.157 -0.0502 -0.3003 -2.3033
 9700TIP3    H253296   0.824   5.836   1.194 -0.0187  0.8802  0.4447
 9701TIP3   OH253297   1.611   0.926   1.261 -0.1265  0.2653  0.1882
 9701TIP3    H153298   1.624   0.872   1.339 -0.8409  0.5814  0.5330
 9701TIP3    H253299   1.678   0.994   1.268  0.5038 -0.3216 -0.0320
 9702TIP3   OH253300   3.264   2.407   1.841 -0.1829 -0.2650 -0.4970
 9702TIP3    H153301   3.181   2.394   1.794 -0.3671 -1.2660  0.0708
 9702TIP3    H253302   3.248   2.479   1.901 -0.5253 -0.2042 -0.6636
 9703TIP3   OH253303   0.914   4.666   4.033  0.0494 -0.3415  0.0558
 9703TIP3    H153304   0.977   4.606   4.073 -1.0882 -1.2876  0.4885
 9703TIP3    H253305   0.940   4.671   3.941  1.7165  0.5752  0.5435
 9704TIP3   OH253306   3.114   0.880   3.886  0.0518 -0.1056  0.8090
 9704TIP3    H153307   3.136   0.787   3.883  1.7689  0.2867  0.3690
 9704TIP3    H253308   3.019   0.882   3.869 -0.2612 -1.8272  2.0759
 9705TIP3   OH253309   0.688   1.977   4.241 -0.5721  0.6890  0.4029
 9705TIP3    H153310   0.731   2.018   4.316 -1.7834  1.3674  0.7574
 9705TIP3    H253311   0.760   1.955   4.181  0.4125  0.1575  1.7401
 9706TIP3   OH253312   2.037   6.673   4.058 -0.2179  0.5318 -0.3729
 9706TIP3    H153313   2.031   6.769   4.054  0.5651  0.6226  0.3318
 9706TIP3    H253314   2.123   6.656   4.098 -1.2569 -0.4275  1.5988
 9707TIP3   OH253315   0.224   4.360   2.186  0.3033  0.0658 -1.1332
 9707TIP3    H153316   0.140   4.404   2.179 -0.9566 -1.9178  0.5753
 9707TIP3    H253317   0.237   4.319   2.100 -0.6338  0.0982 -1.2964
 9708TIP3   OH253318   1.925   2.259   0.787 -0.3011  0.6824 -0.0176
 9708TIP3    H153319   1.839   2.254   0.827  0.2619  0.8465  1.2765
 9708TIP3    H253320   1.941   2.171   0.752 -0.6516  0.4098  0.4912
 9709TIP3   OH253321   1.695   5.831   1.352  0.3959  0.2405 -0.5154
 9709TIP3    H153322   1.697   5.885   1.273 -3.6905  0.1559 -0.8986
 9709TIP3    H253323   1.676   5.893   1.423  3.9591  0.3039  0.5629
 9710TIP3   OH253324   6.198   1.579   3.726 -0.2444  0.5247 -0.1650
 9710TIP3    H153325   6.224   1.520   3.796  1.8489  1.4547 -0.0746
 9710TIP3    H253326   6.175   1.521   3.653  0.5680 -0.4204  0.3111
 9711TIP3   OH253327   3.546   2.048   3.364 -0.0291 -0.3093  0.3237
 9711TIP3    H153328   3.516   1.988   3.295  1.1500 -1.8293  1.0633
 9711TIP3    H253329   3.617   2.000   3.407  1.1767  1.7757  0.7576
 9712TIP3   OH253330   0.110   0.504   3.320 -0.3099 -0.1134 -0.3860
 9712TIP3    H153331   0.119   0.418   3.278  0.0726 -0.5484  0.5476
 9712TIP3    H253332   0.192   0.548   3.301 -0.4496 -0.0031 -0.7460
 9713TIP3   OH253333   5.772   1.042   3.393  0.0694 -0.4840  0.2890
 9713TIP3    H153334   5.734   0.972   3.340  0.6221  0.1366 -0.9658
 9713TIP3    H253335   5.866   1.030   3.386  0.1663  0.2754  0.2100
 9714TIP3   OH253336   5.219   5.309   3.622 -0.1360 -0.4490  0.2043
 9714TIP3    H153337   5.259   5.343   3.702  0.6758  0.8404 -0.7082
 9714TIP3    H253338   5.125   5.323   3.634  0.1326  1.8914  0.0257
 9715TIP3   OH253339   2.047   3.539   2.017  0.1875 -0.6376 -0.0501
 9715TIP3    H153340   1.991   3.471   1.979 -0.2758 -0.2611 -0.0428
 9715TIP3    H253341   2.057   3.513   2.108  1.7127 -1.8201 -0.5075
 9716TIP3   OH253342   3.008   0.198   1.471 -0.2650  0.0429  0.3602
 9716TIP3    H153343   3.053   0.118   1.443  1.0108  0.7566  0.2953
 9716TIP3    H253344   3.032   0.207   1.563 -0.9453  0.0076  0.5453
 9717TIP3   OH253345   5.123   6.164   3.450 -0.0516 -0.0587 -0.1863
 9717TIP3    H153346   5.212   6.197   3.461  0.4333 -1.1076 -0.8309
 9717TIP3    H253347   5.095   6.139   3.538  0.0553  0.8321  0.1088
 9718TIP3   OH253348   4.579   2.294   2.152  0.1619 -0.5328 -0.2889
 9718TIP3    H153349   4.500   2.348   2.159  0.0766 -0.7336  0.3330
 9718TIP3    H253350   4.569   2.248   2.069  1.1216  1.7931 -1.7874
 9719TIP3   OH253351   2.411   2.644   1.893  0.1032 -0.5353 -0.3387
 9719TIP3    H153352   2.334   2.698   1.910  0.2156 -0.5287  0.1793
 9719TIP3    H253353   2.450   2.630   1.980 -1.2450 -3.4831 -0.0856
 9720TIP3   OH253354   4.110   0.062   2.372  0.4753  0.5650 -0.0503
 9720TIP3    H153355   4.186   0.073   2.315  1.0559  1.6979  0.9025
 9720TIP3    H253356   4.147   0.060   2.461 -0.3924 -1.2919  0.3134
 9721TIP3   OH253357   3.721   4.124   2.660  0.0186 -0.2925  0.5585
 9721TIP3    H153358   3.709   4.128   2.755 -1.6976 -0.6557  0.3966
 9721TIP3    H253359   3.810   4.092   2.649  0.4336  0.2557  2.0376
 9722TIP3   OH253360   2.651   0.455   2.012 -0.4461 -0.1007 -0.0048
 9722TIP3    H153361   2.677   0.404   2.089 -0.0615 -2.1733 -1.4252
 9722TIP3    H253362   2.558   0.432   1.999 -0.3467 -0.2255 -0.4914
 9723TIP3   OH253363   2.158   0.549   0.836  0.1787  0.0191  0.2967
 9723TIP3    H153364   2.066   0.523   0.831  0.6384 -2.0400  1.5389
 9723TIP3    H253365   2.206   0.467   0.827  1.8342  0.7618  1.8169
 9724TIP3   OH253366   0.596   1.222   2.548 -0.6931 -0.0553 -0.2869
 9724TIP3    H153367   0.615   1.137   2.508  0.7831  0.1300 -0.0286
 9724TIP3    H253368   0.587   1.282   2.473 -3.3727 -0.6993 -0.5571
 9725TIP3   OH253369   0.077   0.838   3.901 -0.7429  0.3695 -0.2210
 9725TIP3    H153370   0.072   0.765   3.838 -1.0614  0.8781 -0.7972
 9725TIP3    H253371   0.104   0.913   3.848 -1.7158  0.9700  0.1185
 9726TIP3   OH253372   0.935   3.998   1.218  0.2316  0.1949 -0.0730
 9726TIP3    H153373   0.855   3.990   1.167 -0.4004 -0.4349  1.0022
 9726TIP3    H253374   0.974   3.911   1.217 -0.6755 -0.2668  1.9363
 9727TIP3   OH253375   6.376   2.227   2.812 -0.1170 -0.0933 -0.2861
 9727TIP3    H153376   6.379   2.319   2.838  2.2120 -0.7930  2.4248
 9727TIP3    H253377   6.286   2.214   2.781 -0.8871  2.7588  0.4459
 9728TIP3   OH253378   6.521   3.386   3.459  0.0470  0.2195  0.2023
 9728TIP3    H153379   6.580   3.320   3.496 -0.2168 -1.0877 -1.5718
 9728TIP3    H253380   6.564   3.470   3.476  1.8315 -0.6257 -0.0095
 9729TIP3   OH253381   1.981   6.369   2.791  0.0653 -0.5789  0.1374
 9729TIP3    H153382   2.073   6.351   2.776 -0.2747 -1.3843 -1.2077
 9729TIP3    H253383   1.978   6.420   2.872  1.9059  1.6600 -1.1019
 9730TIP3   OH253384   1.871   5.830   3.052 -0.2234 -0.3285  0.8023
 9730TIP3    H153385   1.825   5.892   2.995  0.3132  0.4976  1.2419
 9730TIP3    H253386   1.897   5.759   2.994  0.2144  0.4434  0.0291
 9731TIP3   OH253387   5.621   3.586   1.457 -0.2689  0.0801 -0.2298
 9731TIP3    H153388   5.666   3.606   1.375 -1.2630  0.1464 -0.7849
 9731TIP3    H253389   5.542   3.640   1.455  0.6294  1.5681  1.7028
 9732TIP3   OH253390   0.219   1.941   3.786 -0.1050  0.0408 -0.1454
 9732TIP3    H153391   0.186   1.982   3.866  0.8856  0.8758 -0.1375
 9732TIP3    H253392   0.208   1.847   3.801 -0.1346  0.1904  0.8818
 9733TIP3   OH253393   1.399   0.867   2.305 -0.1001 -0.7186  0.4425
 9733TIP3    H153394   1.484   0.879   2.262  0.0493 -1.5563  0.4767
 9733TIP3    H253395   1.385   0.948   2.353  0.9206 -0.7577  0.8480
 9734TIP3   OH253396   2.438   5.039   3.263  0.8726  0.4884  0.1328
 9734TIP3    H153397   2.482   4.959   3.233  2.0840  1.0210  0.4017
 9734TIP3    H253398   2.370   5.055   3.198 -0.9003 -1.9443  1.2221
 9735TIP3   OH253399   6.396   0.787   1.179  0.1503 -0.3420 -0.1561
 9735TIP3    H153400   6.426   0.851   1.115  0.0528  1.0870  1.1682
 9735TIP3    H253401   6.475   0.760   1.226 -0.0015 -0.0323  0.2897
 9736TIP3   OH253402   6.219   4.757   0.650  0.0779  0.1030  0.0789
 9736TIP3    H153403   6.308   4.757   0.685  0.2816 -0.2298 -0.4196
 9736TIP3    H253404   6.184   4.671   0.675 -0.2854  0.4372  0.7217
 9737TIP3   OH253405   5.568   4.847   1.392  0.0713  0.1825  0.1180
 9737TIP3    H153406   5.592   4.755   1.404  0.7476  0.3957  0.4565
 9737TIP3    H253407   5.617   4.874   1.314 -0.7877  0.0330 -0.4884
 9738TIP3   OH253408   5.005   4.694   1.465  0.0188 -0.1406  0.2588
 9738TIP3    H153409   4.997   4.789   1.470 -3.8183 -0.0379 -2.5738
 9738TIP3    H253410   4.969   4.663   1.548 -1.0746  0.9375  0.2269
 9739TIP3   OH253411   6.774   2.360   3.561 -0.1767  0.1047 -0.7758
 9739TIP3    H153412   6.835   2.433   3.572  2.6427 -2.2805  1.0839
 9739TIP3    H253413   6.735   2.349   3.648 -1.4681  0.0831 -1.3417
 9740TIP3   OH253414   2.478   4.171   2.162 -0.1305  0.6199 -0.2860
 9740TIP3    H153415   2.531   4.225   2.220  1.6699  0.1084 -1.3714
 9740TIP3    H253416   2.405   4.227   2.136  0.0660  1.4775  0.9645
 9741TIP3   OH253417   6.139   2.591   1.928 -0.2784  0.4227  0.0029
 9741TIP3    H153418   6.138   2.503   1.966 -0.9548  0.6226  0.4774
 9741TIP3    H253419   6.148   2.649   2.004 -0.2769  0.7751 -0.2655
 9742TIP3   OH253420   2.916   3.440   1.769  0.3617  0.3620 -0.1362
 9742TIP3    H153421   2.920   3.347   1.792  1.4814  0.4020 -0.1262
 9742TIP3    H253422   2.920   3.441   1.673 -3.3478  0.2463 -0.4527
 9743TIP3   OH253423   5.642   5.733   1.617 -0.4481 -0.0966 -0.1920
 9743TIP3    H153424   5.672   5.800   1.557  0.2895 -0.2547 -0.0175
 9743TIP3    H253425   5.600   5.667   1.562 -0.0017 -0.1196 -0.5044
 9744TIP3   OH253426   3.964   3.120   1.954  0.4789  0.5305 -1.1764
 9744TIP3    H153427   3.871   3.105   1.970  0.5416  1.6648  0.4266
 9744TIP3    H253428   3.972   3.214   1.944  1.7286  0.6672  0.7502
 9745TIP3   OH253429   5.259   0.461   1.106  0.0930 -0.0330  0.2512
 9745TIP3    H153430   5.217   0.477   1.190 -0.0195  2.2230 -0.1672
 9745TIP3    H253431   5.187   0.436   1.047  0.0049 -0.4434  0.5273
 9746TIP3   OH253432   1.031   3.460   1.334  0.3200 -0.1775 -0.9313
 9746TIP3    H153433   1.001   3.505   1.413 -0.6752  0.6051 -1.7311
 9746TIP3    H253434   0.959   3.401   1.311  0.6691 -0.5141 -1.1854
 9747TIP3   OH253435   1.948   4.698   3.469  0.6244 -0.1450  0.8666
 9747TIP3    H153436   1.912   4.784   3.492  0.5313 -0.0413  0.3642
 9747TIP3    H253437   1.962   4.654   3.552  0.9111  0.4573  1.1436
 9748TIP3   OH253438   0.965   1.714   2.255  0.2593 -0.1549 -0.3260
 9748TIP3    H153439   0.989   1.745   2.343  0.8539 -0.9586 -0.1835
 9748TIP3    H253440   0.942   1.793   2.206  0.1346  0.3261  0.4904
 9749TIP3   OH253441   3.475   5.004   1.284 -0.0976 -0.1623 -0.0011
 9749TIP3    H153442   3.483   4.921   1.238  1.2528 -0.4304  0.6941
 9749TIP3    H253443   3.496   4.984   1.375  0.0100  0.8991  0.2207
 9750TIP3   OH253444   0.154   3.250   1.524 -0.2317 -0.3906  0.1730
 9750TIP3    H153445   0.213   3.250   1.599 -0.2594  1.1970  0.2194
 9750TIP3    H253446   0.201   3.201   1.456  0.5246 -0.3432  0.6588
 9751TIP3   OH253447   5.989   0.388   1.394  0.5486  0.5176  0.6949
 9751TIP3    H153448   6.033   0.433   1.467 -0.7707  0.9286  1.2687
 9751TIP3    H253449   5.954   0.308   1.433  0.8912  0.1285  0.2155
 9752TIP3   OH253450   4.112   2.990   2.179  0.5056  0.2962 -0.4564
 9752TIP3    H153451   4.190   2.951   2.141  1.3765  2.5265 -1.1231
 9752TIP3    H253452   4.084   3.056   2.115 -0.8405  0.8239  0.6100
 9753TIP3   OH253453   4.458   0.351   2.346  0.3891 -0.0159 -0.1405
 9753TIP3    H153454   4.533   0.298   2.372 -0.0250 -0.1168  0.9374
 9753TIP3    H253455   4.392   0.287   2.320 -0.3657 -0.1354  1.8514
 9754TIP3   OH253456   1.481   5.305   3.085 -0.1091 -0.1554 -0.4152
 9754TIP3    H153457   1.576   5.299   3.070  0.3439  1.3004  1.4761
 9754TIP3    H253458   1.458   5.222   3.126  0.5314 -0.1667 -0.0637
 9755TIP3   OH253459   0.632   6.831   1.508 -0.3176  0.0712 -0.1937
 9755TIP3    H153460   0.638   6.749   1.558 -2.3890 -0.4631 -0.7095
 9755TIP3    H253461   0.670   6.810   1.423 -1.1372 -0.4942 -0.4396
 9756TIP3   OH253462   1.980   1.923   3.910  0.1048 -0.6052  0.4686
 9756TIP3    H153463   2.029   1.841   3.911 -1.0725 -1.4195 -1.3088
 9756TIP3    H253464   2.034   1.983   3.859  0.0557 -0.9538 -0.0035
 9757TIP3   OH253465   3.451   6.504   0.732  1.2785  0.3342  0.0435
 9757TIP3    H153466   3.474   6.538   0.818  0.1205  1.2090  0.0219
 9757TIP3    H253467   3.515   6.434   0.716  1.0405 -0.3859  1.9497
 9758TIP3   OH253468   1.750   6.347   1.030 -0.1729 -0.1568 -0.1104
 9758TIP3    H153469   1.753   6.421   0.968 -0.0671  0.6662  0.8462
 9758TIP3    H253470   1.669   6.301   1.008 -0.8039  0.8710 -0.0346
 9759TIP3   OH253471   6.408   3.052   0.971 -0.2837  0.0447  0.3419
 9759TIP3    H153472   6.328   3.036   1.021  0.2495  0.2509  1.2786
 9759TIP3    H253473   6.476   3.002   1.017  0.3480  0.7834  0.2370
 9760TIP3   OH253474   1.848   1.253   3.611  0.0848 -0.4202 -0.1989
 9760TIP3    H153475   1.789   1.252   3.686  0.4335 -0.1225  0.0858
 9760TIP3    H253476   1.793   1.231   3.537 -0.4536  0.1694  0.0125
 9761TIP3   OH253477   5.618   0.588   1.600 -0.3339  0.3826 -0.0189
 9761TIP3    H153478   5.704   0.583   1.641 -0.8921  0.1257  1.1947
 9761TIP3    H253479   5.629   0.549   1.513  0.3838 -1.3841  0.8221
 9762TIP3   OH253480   4.944   5.636   2.842 -0.0130  0.5540  0.4003
 9762TIP3    H153481   4.949   5.571   2.913 -0.1607  0.1338  0.0332
 9762TIP3    H253482   5.027   5.683   2.847  0.9361 -0.9237 -0.5146
 9763TIP3   OH253483   6.601   1.296   3.315 -0.3128  0.3217 -0.1699
 9763TIP3    H153484   6.649   1.343   3.383  0.3825 -0.8977  0.2092
 9763TIP3    H253485   6.525   1.260   3.360 -0.4778  0.4886 -0.3108
 9764TIP3   OH253486   5.495   0.351   0.984  0.1140 -0.0538 -0.4781
 9764TIP3    H153487   5.474   0.336   0.892 -0.4412  0.2803 -0.4134
 9764TIP3    H253488   5.420   0.401   1.018 -0.2499 -1.1792  0.4467
 9765TIP3   OH253489   6.432   0.670   3.324 -0.1197 -0.2583  0.5779
 9765TIP3    H153490   6.443   0.587   3.369 -2.2865 -0.2703  1.1726
 9765TIP3    H253491   6.428   0.647   3.231  0.1164 -0.7009  0.6750
 9766TIP3   OH253492   5.171   0.714   2.710  0.0374  0.4838 -0.0362
 9766TIP3    H153493   5.191   0.623   2.732  0.8226  0.4258 -0.9264
 9766TIP3    H253494   5.084   0.710   2.671 -0.5093  0.3183  1.1431
 9767TIP3   OH253495   6.820   5.702   3.418  0.1383  0.3484 -0.2136
 9767TIP3    H153496   6.827   5.671   3.508  3.8298  1.2115 -0.0374
 9767TIP3    H253497   6.732   5.740   3.412  0.3620  1.9170  3.6190
 9768TIP3   OH253498   2.062   4.129   2.139  0.5752  0.1423 -0.5671
 9768TIP3    H153499   2.068   4.220   2.109 -0.3600  0.2715 -0.4010
 9768TIP3    H253500   2.122   4.124   2.214 -0.9544  1.2296  0.8079
 9769TIP3   OH253501   0.661   5.164   1.817 -0.5739  0.0543  0.0714
 9769TIP3    H153502   0.640   5.107   1.744  0.1004 -0.8639  0.5717
 9769TIP3    H253503   0.739   5.213   1.788  1.4634 -2.3194  1.1236
 9770TIP3   OH253504   2.141   2.581   2.218  0.0468 -0.2610  0.2562
 9770TIP3    H153505   2.047   2.597   2.219  0.1298  0.2411  0.3241
 9770TIP3    H253506   2.176   2.638   2.286  0.5020  0.2248 -0.3723
 9771TIP3   OH253507   1.461   0.985   0.692 -0.2831 -0.4039 -0.1930
 9771TIP3    H153508   1.455   0.987   0.787  0.7193  0.1846 -0.1321
 9771TIP3    H253509   1.487   0.895   0.671 -0.0736 -0.4163  0.1154
 9772TIP3   OH253510   6.764   4.169   2.195 -0.1564 -0.2514  0.1725
 9772TIP3    H153511   6.689   4.201   2.144  0.0225  1.8319  1.1300
 9772TIP3    H253512   6.829   4.145   2.129 -0.5730  0.7560 -0.6378
 9773TIP3   OH253513   0.793   3.593   1.887  0.0192 -0.5864  0.3116
 9773TIP3    H153514   0.715   3.587   1.833 -1.2869 -1.8402  2.2183
 9773TIP3    H253515   0.853   3.528   1.851 -1.5719 -2.7842  1.4293
 9774TIP3   OH253516   0.830   4.322   0.710  0.4261  0.0707  0.2419
 9774TIP3    H153517   0.899   4.259   0.689  0.2880  0.3125 -1.0162
 9774TIP3    H253518   0.749   4.274   0.694  0.3196  0.4078 -0.2607
 9775TIP3   OH253519   4.320   6.339   2.078 -0.1940 -0.3220 -0.2175
 9775TIP3    H153520   4.403   6.300   2.051 -0.6252 -0.2489 -1.8107
 9775TIP3    H253521   4.296   6.396   2.005  0.0755  2.4692  1.7320
 9776TIP3   OH253522   2.129   2.819   1.531 -0.0176  0.5207 -0.1009
 9776TIP3    H153523   2.040   2.786   1.519 -0.2094  1.2478 -0.7674
 9776TIP3    H253524   2.117   2.910   1.557  0.5370  1.0503 -1.5963
 9777TIP3   OH253525   4.308   1.979   2.234  0.0612  0.1273 -0.3627
 9777TIP3    H153526   4.224   2.000   2.192 -1.3181 -1.4864  1.3930
 9777TIP3    H253527   4.364   1.952   2.161 -1.1860  0.4933 -1.5190
 9778TIP3   OH253528   1.148   2.246   1.124 -0.0550 -0.2645  0.3379
 9778TIP3    H153529   1.187   2.333   1.111  0.4102 -0.7492 -1.9262
 9778TIP3    H253530   1.150   2.234   1.218  0.5044  1.9042  0.6779
 9779TIP3   OH253531   0.201   1.967   3.133 -0.0149  0.0160 -0.7061
 9779TIP3    H153532   0.152   1.886   3.121 -0.2098 -0.3383  1.9005
 9779TIP3    H253533   0.293   1.940   3.134  0.0256  0.1060 -1.6667
 9780TIP3   OH253534   0.050   1.731   3.084  0.0369 -0.3624 -0.1343
 9780TIP3    H153535   0.022   1.646   3.051  0.1380 -0.3257 -0.3183
 9780TIP3    H253536   0.014   1.736   3.172  0.9557 -1.0449  0.2845
 9781TIP3   OH253537   4.886   4.978   2.397  0.1247  0.1977 -0.5469
 9781TIP3    H153538   4.806   5.017   2.364 -0.2192 -0.4992 -0.5654
 9781TIP3    H253539   4.884   4.887   2.366  1.1704  0.3045 -0.9802
 9782TIP3   OH253540   0.449   0.993   1.068  0.1607 -0.0348 -0.6178
 9782TIP3    H153541   0.370   0.942   1.080  0.2307 -0.1934 -0.8263
 9782TIP3    H253542   0.516   0.947   1.119  0.3399 -0.4299 -1.2002
 9783TIP3   OH253543   6.683   2.876   0.810 -0.6458 -0.4029  0.0457
 9783TIP3    H153544   6.708   2.887   0.718 -2.7578 -0.2231 -0.5465
 9783TIP3    H253545   6.672   2.965   0.842 -2.5613 -0.4495 -0.3471
 9784TIP3   OH253546   0.704   3.045   4.142  0.2497  0.1389 -0.2780
 9784TIP3    H153547   0.636   3.078   4.201 -0.4585  0.1420 -1.0787
 9784TIP3    H253548   0.680   2.953   4.127  1.1228 -0.2183  0.4007
 9785TIP3   OH253549   6.793   2.457   3.142 -0.0940  0.3462 -0.2127
 9785TIP3    H153550   6.798   2.509   3.062  0.3088 -1.7722 -1.6341
 9785TIP3    H253551   6.872   2.403   3.141 -0.7457 -0.6857  0.9383
 9786TIP3   OH253552   5.408   3.713   1.351 -0.0701 -0.0680  0.0962
 9786TIP3    H153553   5.316   3.713   1.377 -0.2423 -1.6919 -0.3548
 9786TIP3    H253554   5.411   3.767   1.272 -0.6371  0.0312  0.1394
 9787TIP3   OH253555   3.931   0.643   1.316  0.8136  0.1323 -0.2025
 9787TIP3    H153556   4.002   0.626   1.254  2.0994 -0.0761  1.2892
 9787TIP3    H253557   3.973   0.685   1.390 -0.5702 -0.3242  0.8822
 9788TIP3   OH253558   2.649   0.335   2.652 -0.0045 -0.3140 -0.4177
 9788TIP3    H153559   2.625   0.314   2.562 -0.1117  0.1886 -0.5115
 9788TIP3    H253560   2.730   0.286   2.668  1.6852  1.8295 -1.7813
 9789TIP3   OH253561   0.945   2.068   2.968  0.4807  0.6462  0.3557
 9789TIP3    H153562   0.926   2.001   3.034  0.5583  0.0671 -0.1973
 9789TIP3    H253563   1.004   2.025   2.906 -0.5056  0.7844 -0.7309
 9790TIP3   OH253564   1.721   5.803   2.063  0.0187  0.5446 -0.1562
 9790TIP3    H153565   1.765   5.886   2.081 -1.1808  1.1837 -0.0296
 9790TIP3    H253566   1.791   5.744   2.035  1.0106  1.3663  0.5054
 9791TIP3   OH253567   2.028   0.436   2.238  0.0475  0.3758 -0.4117
 9791TIP3    H153568   2.052   0.525   2.213 -0.9912  0.5628 -0.8158
 9791TIP3    H253569   1.959   0.448   2.303  1.4768 -0.1282  1.2527
 9792TIP3   OH253570   2.395   3.809   1.335  0.0728  0.5564 -0.3705
 9792TIP3    H153571   2.413   3.880   1.274 -0.8216 -0.2910 -1.6501
 9792TIP3    H253572   2.479   3.763   1.343  0.0288  0.2682 -1.4978
 9793TIP3   OH253573   2.458   2.206   3.164 -0.4016 -0.7001  0.3338
 9793TIP3    H153574   2.438   2.113   3.150 -0.1703 -1.0732  2.2730
 9793TIP3    H253575   2.516   2.228   3.090  0.1694 -2.3107  0.2451
 9794TIP3   OH253576   4.635   4.411   2.462 -0.1070 -0.0248  0.0682
 9794TIP3    H153577   4.593   4.394   2.378 -0.8896  0.3945  0.3642
 9794TIP3    H253578   4.646   4.325   2.502  2.5649 -0.5165 -1.5010
 9795TIP3   OH253579   2.533   3.184   1.385  0.1189 -0.1302 -0.3252
 9795TIP3    H153580   2.609   3.233   1.416 -0.3385  0.8174 -0.6458
 9795TIP3    H253581   2.506   3.131   1.459  1.1295 -0.5250 -0.2297
 9796TIP3   OH253582   3.164   2.878   1.640 -0.0069 -1.0581 -0.1054
 9796TIP3    H153583   3.157   2.907   1.549 -0.7394 -0.5130  0.1162
 9796TIP3    H253584   3.126   2.790   1.640 -2.1264 -0.1834  0.0793
 9797TIP3   OH253585   0.578   6.002   0.425  0.3764  0.3751  0.0142
 9797TIP3    H153586   0.541   6.070   0.368  0.8111 -2.3097 -3.8577
 9797TIP3    H253587   0.503   5.945   0.446  0.3332  1.0234  1.8359
 9798TIP3   OH253588   6.626   2.119   2.290  0.6105 -0.4844  0.0199
 9798TIP3    H153589   6.697   2.059   2.266  1.6871  0.3155  1.0895
 9798TIP3    H253590   6.669   2.188   2.339 -0.5121  1.4887 -1.6239
 9799TIP3   OH253591   6.263   6.227   0.788  0.4936 -0.4965  0.3296
 9799TIP3    H153592   6.323   6.302   0.792  1.4382 -1.2519  0.9318
 9799TIP3    H253593   6.284   6.185   0.705  2.6536 -2.1732  1.5911
 9800TIP3   OH253594   6.423   4.811   3.585 -0.4974 -0.1602 -0.1450
 9800TIP3    H153595   6.412   4.758   3.664 -1.7528  1.8208  1.1021
 9800TIP3    H253596   6.469   4.889   3.615  1.3578 -0.4783 -1.9315
 9801TIP3   OH253597   0.702   4.852   2.147 -0.2235  0.5583  0.0701
 9801TIP3    H153598   0.620   4.811   2.173  0.1817 -0.3345 -0.0177
 9801TIP3    H253599   0.736   4.796   2.077  1.5769 -0.4291  1.6444
 9802TIP3   OH253600   6.086   3.284   1.659  0.2087 -0.1116  0.0014
 9802TIP3    H153601   6.078   3.189   1.654  0.8851 -0.1726  0.0160
 9802TIP3    H253602   6.055   3.315   1.574 -0.1769 -0.3318  0.0604
 9803TIP3   OH253603   2.349   1.266   3.434 -0.5598  0.5743  0.1735
 9803TIP3    H153604   2.294   1.194   3.404 -0.9015  0.8340  0.1739
 9803TIP3    H253605   2.415   1.277   3.365  0.0419 -0.3230  0.5925
 9804TIP3   OH253606   4.772   1.754   3.459 -0.4570  0.1731  0.9903
 9804TIP3    H153607   4.738   1.773   3.546  1.4110 -0.4537  1.9183
 9804TIP3    H253608   4.822   1.832   3.435 -0.0081 -0.1078  0.9959
 9805TIP3   OH253609   5.437   3.383   2.004 -0.3955  0.0062 -0.1550
 9805TIP3    H153610   5.363   3.393   1.944  0.7907 -0.3016 -1.7525
 9805TIP3    H253611   5.488   3.464   1.993  0.0847 -0.2575  0.0905
 9806TIP3   OH253612   5.761   2.432   1.410  0.2875  0.3452 -0.2869
 9806TIP3    H153613   5.695   2.477   1.463  0.4319  0.2328 -0.0062
 9806TIP3    H253614   5.711   2.383   1.346  0.0303 -0.6191  0.6167
 9807TIP3   OH253615   5.247   2.709   2.957  0.2774  0.7661 -0.1824
 9807TIP3    H153616   5.226   2.622   2.991  0.8494  0.8222  0.3406
 9807TIP3    H253617   5.163   2.744   2.928 -0.2746  0.7420  1.2888
 9808TIP3   OH253618   1.940   4.393   0.833 -0.2422  0.0568 -0.4895
 9808TIP3    H153619   1.897   4.460   0.779  0.9010  0.5711 -0.7780
 9808TIP3    H253620   1.905   4.310   0.800 -1.7158  0.4861 -0.0876
 9809TIP3   OH253621   1.057   6.475   2.813 -0.2702 -0.1393  0.0611
 9809TIP3    H153622   1.023   6.493   2.901 -0.2814  1.5739 -0.2642
 9809TIP3    H253623   1.009   6.397   2.784  0.5721 -1.4673  2.0014
 9810TIP3   OH253624   0.845   5.586   0.729 -0.1156 -0.6850 -0.0448
 9810TIP3    H153625   0.894   5.615   0.652 -0.4743  0.1763  0.0310
 9810TIP3    H253626   0.891   5.625   0.803 -0.1248 -1.0046  0.1306
 9811TIP3   OH253627   0.654   2.748   4.047 -0.8438 -0.3508 -0.7996
 9811TIP3    H153628   0.745   2.722   4.034 -0.9103 -0.3982 -1.1873
 9811TIP3    H253629   0.604   2.667   4.036 -0.8310 -0.6069  0.7861
 9812TIP3   OH253630   4.281   4.621   1.765  0.3711  0.0175 -0.2763
 9812TIP3    H153631   4.343   4.631   1.693  0.0118 -2.2616 -1.0006
 9812TIP3    H253632   4.335   4.595   1.840  0.3301 -2.7041 -1.0899
 9813TIP3   OH253633   4.137   4.185   1.325  0.7181  0.1996 -0.0713
 9813TIP3    H153634   4.128   4.127   1.250 -0.8727 -0.4247  0.5410
 9813TIP3    H253635   4.199   4.141   1.383 -0.3922 -0.9029  0.3380
 9814TIP3   OH253636   3.705   3.939   2.426 -0.6844  0.6137 -0.4240
 9814TIP3    H153637   3.711   3.855   2.470  2.7653  0.7479 -0.3932
 9814TIP3    H253638   3.699   4.003   2.497 -3.8492  0.4823 -0.4533
 9815TIP3   OH253639   4.810   0.251   2.300  0.2816  0.1581 -0.1191
 9815TIP3    H153640   4.834   0.343   2.313 -1.0248  0.4205  0.6186
 9815TIP3    H253641   4.742   0.234   2.366 -0.5268 -0.9318 -1.1826
 9816TIP3   OH253642   4.001   3.682   1.462 -0.2158 -0.1834 -0.6107
 9816TIP3    H153643   3.950   3.617   1.413  0.7392 -2.3097  1.0766
 9816TIP3    H253644   4.077   3.634   1.494 -0.0245  1.4888  1.6839
 9817TIP3   OH253645   1.036   4.240   1.599 -0.3199 -0.0046 -0.4052
 9817TIP3    H153646   1.063   4.166   1.654 -0.4836 -0.6494 -1.1561
 9817TIP3    H253647   1.112   4.256   1.542  0.0147  0.9488  0.3009
 9818TIP3   OH253648   2.836   0.694   3.652 -0.4690  0.3843 -0.2904
 9818TIP3    H153649   2.845   0.767   3.713 -0.8473  0.4676 -0.3296
 9818TIP3    H253650   2.861   0.617   3.703  0.4695  0.5974 -0.4101
 9819TIP3   OH253651   5.291   3.518   1.099  0.3211 -0.0627 -1.1928
 9819TIP3    H153652   5.373   3.567   1.109 -0.0361  0.5270 -1.0883
 9819TIP3    H253653   5.250   3.557   1.021 -1.1537  1.5649  0.3037
 9820TIP3   OH253654   3.766   1.302   2.228 -0.7286  0.3335 -0.2212
 9820TIP3    H153655   3.788   1.274   2.139  1.9144 -0.5327  0.6262
 9820TIP3    H253656   3.756   1.220   2.277  0.1281  0.7878  0.7545
 9821TIP3   OH253657   4.045   1.200   2.429  0.3166  0.5410 -0.0178
 9821TIP3    H153658   4.004   1.188   2.515  1.5002 -2.2697  0.2521
 9821TIP3    H253659   4.064   1.294   2.425 -0.7052  0.9372  2.3198
 9822TIP3   OH253660   1.855   4.353   1.781 -0.1001 -0.5107  0.2326
 9822TIP3    H153661   1.911   4.283   1.747  0.1758 -0.6822  1.0271
 9822TIP3    H253662   1.907   4.432   1.770  0.3127 -0.6720  0.9815
 9823TIP3   OH253663   3.283   5.296   3.640 -0.1393  0.4370  0.7073
 9823TIP3    H153664   3.290   5.266   3.549 -2.1524 -1.0573  0.9640
 9823TIP3    H253665   3.242   5.382   3.634  0.7513  0.8378  0.1700
 9824TIP3   OH253666   6.458   6.271   1.113 -0.3462  0.2934 -0.6033
 9824TIP3    H153667   6.508   6.288   1.193  1.0876 -0.7202 -1.2450
 9824TIP3    H253668   6.366   6.281   1.140  0.0932 -0.1793  1.1977
 9825TIP3   OH253669   5.016   2.395   3.815 -0.2303 -0.7142  0.0771
 9825TIP3    H153670   4.934   2.377   3.771 -0.6597  0.9490  0.1227
 9825TIP3    H253671   5.073   2.322   3.792 -1.0187 -0.8016 -1.7355
 9826TIP3   OH253672   0.189   3.930   3.114 -0.2962  0.5859  0.2340
 9826TIP3    H153673   0.120   3.912   3.051  1.0738 -2.3847 -0.6046
 9826TIP3    H253674   0.228   4.013   3.085 -1.6023  0.8071 -0.9934
 9827TIP3   OH253675   4.228   3.786   1.055  0.0012  0.5742  0.2976
 9827TIP3    H153676   4.228   3.849   1.128 -1.7813  1.5938 -0.5181
 9827TIP3    H253677   4.253   3.838   0.979  0.7337 -0.2286 -0.0158
 9828TIP3   OH253678   1.117   2.907   3.895  0.6335 -0.1676  0.5505
 9828TIP3    H153679   1.103   2.908   3.801 -1.2807  0.4360  0.7932
 9828TIP3    H253680   1.198   2.956   3.908  0.4261  0.5454 -0.7164
 9829TIP3   OH253681   6.445   2.804   3.297 -0.2769  0.1923  0.1848
 9829TIP3    H153682   6.526   2.754   3.304 -1.8752 -2.3035  2.3101
 9829TIP3    H253683   6.454   2.874   3.362  0.5512  0.6126 -0.3582
 9830TIP3   OH253684   1.322   6.677   3.515  0.3643 -0.5027 -0.5273
 9830TIP3    H153685   1.391   6.662   3.580 -0.0594 -1.7985 -0.3632
 9830TIP3    H253686   1.289   6.765   3.536  0.6666 -0.6389  0.5900
 9831TIP3   OH253687   2.909   3.648   4.114  0.5395 -0.5119  0.0464
 9831TIP3    H153688   2.895   3.568   4.063 -1.6639  1.6196 -3.0850
 9831TIP3    H253689   2.962   3.703   4.057 -0.5983  1.3555  0.7198
 9832TIP3   OH253690   4.979   1.745   2.055  0.2026 -0.2941 -0.1801
 9832TIP3    H153691   4.961   1.739   1.961  0.8915 -1.3924 -0.2665
 9832TIP3    H253692   5.072   1.768   2.060  0.1689 -0.2440  0.2319
 9833TIP3   OH253693   6.772   6.765   1.764 -0.8558  0.7709  0.3704
 9833TIP3    H153694   6.838   6.699   1.783 -1.1978  0.6622  1.2436
 9833TIP3    H253695   6.806   6.812   1.688  0.1701  0.6507  0.7352
 9834TIP3   OH253696   0.739   1.538   1.013  0.1770 -0.5294 -0.2415
 9834TIP3    H153697   0.724   1.620   0.965  0.8521 -0.9565 -1.2087
 9834TIP3    H253698   0.784   1.481   0.951  0.6988 -1.2589  0.7654
 9835TIP3   OH253699   5.851   6.642   2.361 -0.1538  0.4313  0.8217
 9835TIP3    H153700   5.830   6.560   2.406 -1.1315  0.3689  0.2852
 9835TIP3    H253701   5.831   6.624   2.269  2.3570  0.3763  0.2265
 9836TIP3   OH253702   0.174   3.681   1.170 -0.2795  0.2951 -0.2860
 9836TIP3    H153703   0.260   3.646   1.145 -0.3549 -1.1201  1.2367
 9836TIP3    H253704   0.132   3.704   1.088 -0.1905 -3.2359 -1.4782
 9837TIP3   OH253705   3.284   5.463   2.072 -0.1931 -0.5942  0.2176
 9837TIP3    H153706   3.339   5.514   2.013 -0.9226 -0.5097 -0.4100
 9837TIP3    H253707   3.318   5.374   2.066 -1.0158 -0.8473 -1.3122
 9838TIP3   OH253708   6.145   0.635   2.585 -0.0992 -0.1387  0.3481
 9838TIP3    H153709   6.105   0.559   2.544  1.0968 -0.2683 -0.6202
 9838TIP3    H253710   6.145   0.615   2.679  1.1482 -1.8195  0.0307
 9839TIP3   OH253711   4.300   4.958   1.134  0.4893 -0.5214 -0.1193
 9839TIP3    H153712   4.301   5.043   1.090 -0.2365 -0.6749 -0.4466
 9839TIP3    H253713   4.344   4.899   1.072 -1.3855 -0.9445 -1.1089
 9840TIP3   OH253714   6.730   0.828   2.917  0.5107  0.2643  0.3879
 9840TIP3    H153715   6.771   0.908   2.884 -0.0589  0.4459  0.1192
 9840TIP3    H253716   6.697   0.784   2.839 -0.6715  0.6002  0.6890
 9841TIP3   OH253717   1.689   4.381   2.447  0.3687  0.0466  0.0143
 9841TIP3    H153718   1.665   4.291   2.470  0.9023  0.1914  1.2351
 9841TIP3    H253719   1.733   4.373   2.362 -0.0912 -0.7670 -0.1552
 9842TIP3   OH253720   3.150   0.670   1.613 -0.1272 -0.1091  0.1288
 9842TIP3    H153721   3.102   0.605   1.562 -1.5338  0.3728  0.7848
 9842TIP3    H253722   3.223   0.696   1.557  0.3921 -2.1202 -0.1990
 9843TIP3   OH253723   5.174   5.821   1.736  0.2731 -0.3971 -0.3699
 9843TIP3    H153724   5.085   5.823   1.771 -0.0483 -3.7378 -0.7232
 9843TIP3    H253725   5.165   5.855   1.647 -0.3496  0.6054  0.0511
 9844TIP3   OH253726   1.149   5.189   1.528 -0.2819 -0.7823  0.8114
 9844TIP3    H153727   1.190   5.162   1.610  0.3221 -0.3240  0.6644
 9844TIP3    H253728   1.120   5.279   1.543  0.5185 -0.4268  0.2761
 9845TIP3   OH253729   1.762   2.047   2.648  0.0542  0.1011  0.2409
 9845TIP3    H153730   1.697   2.115   2.663  0.5355  0.8608 -1.0519
 9845TIP3    H253731   1.838   2.074   2.700  0.6650  1.1929 -1.1673
 9846TIP3   OH253732   1.464   4.542   2.509 -0.2745  0.1421 -0.7192
 9846TIP3    H153733   1.512   4.495   2.441 -1.8212  0.3071 -1.9873
 9846TIP3    H253734   1.438   4.475   2.572  0.0806 -0.2248 -0.9637
 9847TIP3   OH253735   4.137   5.441   0.954  0.4817  0.0529  0.1229
 9847TIP3    H153736   4.056   5.471   0.913  1.0602  1.7844  0.1548
 9847TIP3    H253737   4.109   5.378   1.019 -0.8700  0.7182  0.2226
 9848TIP3   OH253738   1.109   6.154   3.838  0.5696 -0.0394 -0.2696
 9848TIP3    H153739   1.199   6.185   3.849  0.5341 -0.3091  0.8137
 9848TIP3    H253740   1.076   6.141   3.927 -0.6495  0.3557 -0.6330
 9849TIP3   OH253741   1.233   3.077   1.921  0.3583  0.1561  0.0897
 9849TIP3    H153742   1.280   3.118   1.849  0.2127  1.4341  0.6916
 9849TIP3    H253743   1.300   3.060   1.988  0.4029 -0.5297 -0.1203
 9850TIP3   OH253744   0.054   2.215   2.147  0.4394 -0.2446  0.0990
 9850TIP3    H153745   0.109   2.274   2.095  1.2763  0.1191  1.3377
 9850TIP3    H253746   0.043   2.260   2.230 -0.5498 -0.9770  0.3785
 9851TIP3   OH253747   6.412   1.324   3.758  0.1296 -0.1294  0.2822
 9851TIP3    H153748   6.348   1.363   3.818  0.1694 -0.8381  0.7970
 9851TIP3    H253749   6.486   1.302   3.815  0.6001  0.1606 -0.2144
 9852TIP3   OH253750   6.490   0.747   2.251  0.1559  0.8031  0.3695
 9852TIP3    H153751   6.520   0.733   2.161 -0.4697 -1.2495  0.4278
 9852TIP3    H253752   6.500   0.841   2.265  1.5802  0.9637 -1.3585
 9853TIP3   OH253753   1.949   4.104   0.823 -0.2879 -0.2434 -0.1131
 9853TIP3    H153754   2.041   4.090   0.803  0.1992  2.4577 -0.0934
 9853TIP3    H253755   1.948   4.131   0.915 -0.8839  1.1346 -0.4867
 9854TIP3   OH253756   6.742   0.162   2.206  0.1687  0.2669 -0.7040
 9854TIP3    H153757   6.726   0.191   2.116  0.7066  0.0718 -0.8673
 9854TIP3    H253758   6.837   0.151   2.211  0.4430  2.5282  0.5689
 9855TIP3   OH253759   5.045   0.026   3.209 -0.2860  0.4160 -0.0115
 9855TIP3    H153760   5.011  -0.060   3.182 -0.5355  1.4375 -3.3571
 9855TIP3    H253761   5.140   0.015   3.210 -0.3287  0.0096 -0.0569
 9856TIP3   OH253762   4.611   0.204   2.528  0.1497 -0.4384 -0.1176
 9856TIP3    H153763   4.634   0.114   2.549 -2.4935 -1.3551 -0.7403
 9856TIP3    H253764   4.596   0.246   2.613 -0.4939 -1.1644  0.1361
 9857TIP3   OH253765   0.524   2.706   1.877  0.5053  0.2109  0.4001
 9857TIP3    H153766   0.460   2.775   1.894 -0.2116 -0.7177  1.6005
 9857TIP3    H253767   0.475   2.638   1.831  1.4239  0.8255 -1.6526
 9858TIP3   OH253768   0.349   3.219   1.701  0.2651 -0.1013 -0.1217
 9858TIP3    H153769   0.367   3.124   1.703  1.5325  0.0992  2.0544
 9858TIP3    H253770   0.434   3.259   1.716 -0.0341  1.4982 -2.2778
 9859TIP3   OH253771   6.412   0.493   2.438  0.0823  0.2735  0.2877
 9859TIP3    H153772   6.379   0.580   2.416 -0.1604 -0.0755 -0.7606
 9859TIP3    H253773   6.456   0.463   2.359 -0.2235 -0.7478  0.4907
 9860TIP3   OH253774   5.701   4.571   1.600  0.9576  0.5789 -0.3477
 9860TIP3    H153775   5.628   4.578   1.538 -0.3557  0.6270  1.1335
 9860TIP3    H253776   5.671   4.509   1.666  3.0940 -0.9609 -0.7291
 9861TIP3   OH253777   3.334   6.298   1.357  0.3414 -0.1394 -0.2568
 9861TIP3    H153778   3.419   6.313   1.399  0.6022 -1.4316 -0.2744
 9861TIP3    H253779   3.272   6.346   1.411  0.6424 -1.8766  1.7496
 9862TIP3   OH253780   4.220   0.011   2.621 -0.6517  0.2496  0.3938
 9862TIP3    H153781   4.237   0.096   2.662 -0.6128  0.3036  0.2633
 9862TIP3    H253782   4.127  -0.005   2.638 -0.9556  0.8813 -0.6418
 9863TIP3   OH253783   6.293   1.789   2.998 -0.3128 -0.2292 -0.9293
 9863TIP3    H153784   6.352   1.744   3.058 -0.8974 -0.9827 -0.9041
 9863TIP3    H253785   6.294   1.880   3.026  2.0398  0.1065 -1.8844
 9864TIP3   OH253786   2.541   0.584   3.576  0.3931 -0.3712 -0.5123
 9864TIP3    H153787   2.583   0.592   3.490  1.7846  1.9093  0.2739
 9864TIP3    H253788   2.490   0.665   3.585 -0.0077 -0.7311  0.6501
 9865TIP3   OH253789   4.062   1.871   1.548  0.1000 -0.4233 -0.4031
 9865TIP3    H153790   3.995   1.812   1.582 -1.1194  1.0975 -0.0370
 9865TIP3    H253791   4.036   1.886   1.457  0.0825 -0.0366 -0.3365
 9866TIP3   OH253792   1.057   3.888   2.539 -0.4173 -0.2564  0.3921
 9866TIP3    H153793   1.010   3.971   2.536 -1.0707 -0.5501  1.8532
 9866TIP3    H253794   1.027   3.841   2.461 -0.9670  0.3765  0.2121
 9867TIP3   OH253795   5.210   4.147   2.671 -0.1804  0.1304 -0.2433
 9867TIP3    H153796   5.175   4.089   2.604 -0.0168  0.0667 -0.2745
 9867TIP3    H253797   5.292   4.106   2.699 -1.0374 -0.7202  1.1768
 9868TIP3   OH253798   0.991   5.174   2.903 -0.4296  0.4247 -0.1322
 9868TIP3    H153799   1.054   5.133   2.963 -1.2411  1.1381  1.2438
 9868TIP3    H253800   1.045   5.223   2.841  0.4437 -0.7306 -0.3125
 9869TIP3   OH253801   5.497   6.567   2.819  0.1814 -0.6087 -0.0887
 9869TIP3    H153802   5.517   6.589   2.727 -2.0447 -0.4289 -0.5838
 9869TIP3    H253803   5.401   6.565   2.823  0.1352  1.2293  2.6502
 9870TIP3   OH253804   3.052   2.899   2.355  0.1013 -0.0134  0.0884
 9870TIP3    H153805   3.036   2.808   2.331 -0.8048  0.6530 -2.1127
 9870TIP3    H253806   3.014   2.908   2.443  0.2263 -1.7376  0.3460
 9871TIP3   OH253807   4.812   6.461   4.364  0.3802 -0.4474  0.3589
 9871TIP3    H153808   4.900   6.463   4.326 -0.1860  0.8014 -0.9744
 9871TIP3    H253809   4.754   6.448   4.288 -0.6188 -0.7586  1.1566
 9872TIP3   OH253810   1.024   3.527   0.924 -0.0789  0.6679  0.1274
 9872TIP3    H153811   1.100   3.470   0.916 -0.2643  0.4204  0.1345
 9872TIP3    H253812   1.053   3.598   0.982 -0.6531 -0.7821  2.2899
 9873TIP3   OH253813   2.969   6.537   0.664  0.3140  0.2958 -0.2912
 9873TIP3    H153814   3.060   6.509   0.675  0.0588 -0.5940 -0.4004
 9873TIP3    H253815   2.945   6.508   0.576  0.5609  2.3671 -1.1020
 9874TIP3   OH253816   1.395   6.101   1.708  0.2376 -0.4403  0.1616
 9874TIP3    H153817   1.423   6.183   1.668 -0.7264 -0.7005 -1.1191
 9874TIP3    H253818   1.416   6.111   1.801  0.5655  1.0613 -0.0447
 9875TIP3   OH253819   1.894   3.781   2.037 -0.2324 -0.1454 -0.1550
 9875TIP3    H153820   1.906   3.733   1.955  1.5113  1.4162 -0.8921
 9875TIP3    H253821   1.983   3.797   2.069 -0.8363  0.4816  1.3126
 9876TIP3   OH253822   1.555   3.503   2.721 -0.6231 -0.0558  0.3924
 9876TIP3    H153823   1.465   3.505   2.754 -0.5002  0.1976  0.7186
 9876TIP3    H253824   1.550   3.451   2.641 -1.4158  1.5962 -0.6856
 9877TIP3   OH253825   2.095   4.479   1.789  1.0696 -0.3970 -0.1200
 9877TIP3    H153826   2.069   4.534   1.715  0.7123  0.7307  0.8206
 9877TIP3    H253827   2.187   4.502   1.805  0.6753  0.6231  0.8305
 9878TIP3   OH253828   5.520   2.512   3.319 -0.4931 -0.0610  0.7445
 9878TIP3    H153829   5.589   2.468   3.369 -0.9245  1.1071  2.4857
 9878TIP3    H253830   5.472   2.563   3.385 -0.6421  2.1811 -0.9673
 9879TIP3   OH253831   5.007   1.374   2.479  0.0891  0.0743  0.4546
 9879TIP3    H153832   4.932   1.325   2.511 -1.1639  2.0785  0.7389
 9879TIP3    H253833   4.979   1.465   2.482  1.3809  0.6624 -2.5163
 9880TIP3   OH253834   1.334   4.007   1.872 -0.0632  0.3236 -0.3737
 9880TIP3    H153835   1.312   4.097   1.897  2.0285  0.9110 -0.4383
 9880TIP3    H253836   1.370   4.015   1.784  0.1599 -0.5759 -0.3747
 9881TIP3   OH253837   5.412   2.116   0.738 -0.1180  0.2284 -0.5177
 9881TIP3    H153838   5.461   2.036   0.756 -0.3436  0.1901 -0.0447
 9881TIP3    H253839   5.343   2.089   0.678 -0.5862 -0.0723  0.1424
 9882TIP3   OH253840   3.973   2.906   1.469  0.1823  0.2966  0.4031
 9882TIP3    H153841   3.940   2.956   1.543  0.0362  0.4242  0.2520
 9882TIP3    H253842   4.056   2.868   1.500  0.6795  1.2477  0.2699
 9883TIP3   OH253843   2.661   1.791   2.322 -0.5910  0.2905  0.0579
 9883TIP3    H153844   2.736   1.833   2.365 -1.2596  1.3945  0.1800
 9883TIP3    H253845   2.636   1.720   2.382 -1.0505  1.3485  1.1447
 9884TIP3   OH253846   4.813   3.737   2.583  0.8352  0.0643 -0.1142
 9884TIP3    H153847   4.730   3.771   2.548  0.6581  0.0139  0.2496
 9884TIP3    H253848   4.877   3.754   2.514  0.2388 -1.2623 -1.0406
 9885TIP3   OH253849   5.876   2.841   1.990  0.3277 -0.0287 -0.5431
 9885TIP3    H153850   5.855   2.753   2.021  0.9411  0.3313  0.9643
 9885TIP3    H253851   5.876   2.833   1.894  0.0270 -1.5769 -0.4388
 9886TIP3   OH253852   5.049   6.805   2.415  0.9052  0.1010 -0.4155
 9886TIP3    H153853   4.955   6.790   2.419  1.0549 -1.0398 -0.7446
 9886TIP3    H253854   5.058   6.899   2.403 -0.2886  0.0104 -2.7194
 9887TIP3   OH253855   3.494   2.906   2.995 -0.4002 -0.3466  0.7399
 9887TIP3    H153856   3.556   2.978   3.004 -1.1763  0.1888  2.0878
 9887TIP3    H253857   3.543   2.829   3.025 -0.0529 -0.1162  0.7746
 9888TIP3   OH253858   6.739   5.653   1.128  0.0198 -0.4216 -0.3022
 9888TIP3    H153859   6.724   5.747   1.115  0.9799 -0.4038 -1.4357
 9888TIP3    H253860   6.659   5.621   1.170 -0.9181  0.6353 -1.2341
 9889TIP3   OH253861   0.682   3.032   1.685  0.5613 -0.2329  0.1081
 9889TIP3    H153862   0.756   3.055   1.629 -0.6714  0.8554 -1.1543
 9889TIP3    H253863   0.655   3.114   1.724  0.0734 -0.6304  0.6225
 9890TIP3   OH253864   5.662   0.840   2.289 -0.7081 -0.1103  0.3228
 9890TIP3    H153865   5.700   0.754   2.306  2.1401  1.4800  2.9622
 9890TIP3    H253866   5.576   0.837   2.331  0.6120 -0.7849  3.2011
 9891TIP3   OH253867   3.293   3.886   2.631 -0.0832  0.2752  0.1099
 9891TIP3    H153868   3.311   3.969   2.673 -1.0245  1.1588 -1.1609
 9891TIP3    H253869   3.205   3.896   2.593  0.2004 -0.9147 -0.9507
 9892TIP3   OH253870   5.450   4.335   2.847 -0.2833  0.3886 -0.4058
 9892TIP3    H153871   5.520   4.297   2.900 -0.2766 -0.4887 -1.0193
 9892TIP3    H253872   5.410   4.260   2.802 -1.6430  0.8640 -0.0397
 9893TIP3   OH253873   2.353   0.859   3.925 -0.4855 -0.3050 -0.2128
 9893TIP3    H153874   2.332   0.950   3.947 -1.0007 -0.2646 -0.8807
 9893TIP3    H253875   2.447   0.861   3.905  0.0899 -0.3700  2.0894
 9894TIP3   OH253876   3.812   3.948   3.106 -0.3634  0.2180  0.2786
 9894TIP3    H153877   3.894   3.960   3.155  0.2535  0.2457 -0.7215
 9894TIP3    H253878   3.811   3.856   3.083  0.5992  0.6477 -1.7145
 9895TIP3   OH253879   5.310   6.186   0.859  0.3115 -0.4543 -0.6445
 9895TIP3    H153880   5.298   6.103   0.905  1.6138  0.0455  0.6854
 9895TIP3    H253881   5.291   6.166   0.767  0.5830 -2.2115 -0.3447
 9896TIP3   OH253882   1.153   0.223   0.723 -0.4431 -0.4203 -0.2900
 9896TIP3    H153883   1.075   0.256   0.678 -1.0409  0.0508  1.0286
 9896TIP3    H253884   1.130   0.134   0.749 -0.0825 -0.7077 -0.9288
 9897TIP3   OH253885   2.038   6.391   2.202 -0.0353  0.0395 -0.1845
 9897TIP3    H153886   2.004   6.305   2.178  1.9528 -1.1931  1.1188
 9897TIP3    H253887   1.959   6.445   2.215 -1.5049 -2.3520  1.6483
 9898TIP3   OH253888   6.152   2.654   3.133 -0.3165  0.4382  0.1220
 9898TIP3    H153889   6.243   2.677   3.113 -0.8645  2.0478 -0.7464
 9898TIP3    H253890   6.104   2.736   3.121 -2.0164 -0.5788 -0.3386
 9899TIP3   OH253891   3.962   4.326   0.992 -0.6464 -0.3429  0.1559
 9899TIP3    H153892   3.951   4.337   1.086  0.4628  1.1482  0.1553
 9899TIP3    H253893   4.057   4.327   0.978 -0.8000  0.3053 -1.0317
 9900TIP3   OH253894   6.443   5.495   0.723 -0.3478  0.2076  0.1961
 9900TIP3    H153895   6.466   5.404   0.745 -0.1046  0.4459  0.9420
 9900TIP3    H253896   6.479   5.508   0.635  1.0280  0.0936  0.7249
 9901TIP3   OH253897   6.785   2.990   1.217  0.5737 -0.7436 -0.2543
 9901TIP3    H153898   6.703   3.033   1.242 -0.0430 -1.3612 -1.1372
 9901TIP3    H253899   6.845   3.062   1.196  0.0340 -0.2922 -0.2577
 9902TIP3   OH253900   1.678   2.930   0.940 -0.3973  0.1863 -0.1209
 9902TIP3    H153901   1.599   2.960   0.985  0.1178  0.9354  0.3024
 9902TIP3    H253902   1.660   2.839   0.919 -1.0658  0.1208  0.6758
 9903TIP3   OH253903   5.689   6.843   2.349 -0.1360  0.4036 -0.2764
 9903TIP3    H153904   5.736   6.926   2.354 -0.7408  0.8299 -1.3230
 9903TIP3    H253905   5.757   6.776   2.354  0.4003  0.9645  0.0867
 9904TIP3   OH253906   3.528   1.073   0.944  0.1516  0.4455  0.9445
 9904TIP3    H153907   3.622   1.055   0.941  0.5003  2.1974 -0.0398
 9904TIP3    H253908   3.518   1.136   1.015 -0.0536  1.3242  0.1539
 9905TIP3   OH253909   5.828   6.565   0.373  0.6905  0.4638 -0.4348
 9905TIP3    H153910   5.889   6.588   0.304  1.1869  2.9905  0.7399
 9905TIP3    H253911   5.782   6.646   0.393 -0.3946 -0.4997  1.2667
 9906TIP3   OH253912   4.206   3.567   0.725  0.1558 -0.5079  0.3780
 9906TIP3    H153913   4.202   3.532   0.813  0.6999  1.2145  1.1324
 9906TIP3    H253914   4.252   3.651   0.734 -0.1769 -0.0713 -1.4583
 9907TIP3   OH253915   3.963   3.752   2.659 -0.4920 -0.3869  0.5566
 9907TIP3    H153916   4.018   3.746   2.737 -0.0050  0.7964  0.3241
 9907TIP3    H253917   4.001   3.688   2.598 -0.1389 -0.4726  0.8629
 9908TIP3   OH253918   1.343   3.164   1.658  0.8801 -0.2304 -0.0290
 9908TIP3    H153919   1.322   3.257   1.648  0.0185 -0.4660 -0.5593
 9908TIP3    H253920   1.398   3.143   1.583  0.4558 -0.3107 -0.3243
 9909TIP3   OH253921   0.086   0.242   0.752 -0.0572  0.0431 -0.3678
 9909TIP3    H153922   0.058   0.190   0.677  0.1165  0.8659 -1.0217
 9909TIP3    H253923   0.032   0.321   0.748 -1.0072 -0.4958  1.1755
 9910TIP3   OH253924   3.740   5.608   1.977 -0.1102 -0.0729  1.6554
 9910TIP3    H153925   3.759   5.533   1.920  0.2540  1.7484 -0.7885
 9910TIP3    H253926   3.786   5.588   2.058  2.1837 -1.3284  0.1717
 9911TIP3   OH253927   4.773   5.725   0.945 -0.2063  0.5170  0.4337
 9911TIP3    H153928   4.727   5.801   0.908  0.4772  0.7623  0.0784
 9911TIP3    H253929   4.735   5.650   0.899 -0.5537  0.6750  0.4537
 9912TIP3   OH253930   3.715   2.814   1.996  0.0749  0.4153  0.0153
 9912TIP3    H153931   3.699   2.903   2.026  0.7519  0.4680  0.2526
 9912TIP3    H253932   3.643   2.795   1.936 -1.4425  0.2229  1.7989
 9913TIP3   OH253933   5.631   6.243   3.783 -0.3294  1.0588  0.1493
 9913TIP3    H153934   5.657   6.259   3.692  1.2866  0.3665  0.4675
 9913TIP3    H253935   5.554   6.186   3.775 -0.5223  1.4242 -0.7818
 9914TIP3   OH253936   2.226   6.009   2.441 -0.3320  0.1686 -0.1755
 9914TIP3    H153937   2.292   6.079   2.440 -0.7646  0.5805 -1.0701
 9914TIP3    H253938   2.187   6.011   2.353 -2.5134  0.8885  0.7336
 9915TIP3   OH253939   4.226   2.506   2.514  0.0396 -0.5648  0.1694
 9915TIP3    H153940   4.174   2.586   2.517 -1.0584 -1.1662 -1.3980
 9915TIP3    H253941   4.298   2.521   2.575 -3.7103 -1.0102  5.2923
 9916TIP3   OH253942   2.893   3.778   2.077  0.1620  0.7291 -0.2161
 9916TIP3    H153943   2.815   3.789   2.131 -0.7417 -0.7025 -1.1656
 9916TIP3    H253944   2.922   3.867   2.058 -1.7560  1.3184 -0.5689
 9917TIP3   OH253945   4.012   1.629   1.373 -0.4837  0.1721  0.6234
 9917TIP3    H153946   3.936   1.687   1.374 -3.7940 -3.7625  1.9164
 9917TIP3    H253947   4.057   1.648   1.455 -1.7589  0.6183  1.2519
 9918TIP3   OH253948   1.019   0.561   2.474  0.4581 -0.1844  0.4615
 9918TIP3    H153949   1.040   0.474   2.440 -2.7106 -0.1610 -2.0169
 9918TIP3    H253950   1.004   0.614   2.396  0.2792  2.0605  1.9258
 9919TIP3   OH253951   3.894   3.492   1.291  0.1020  0.7373 -0.3531
 9919TIP3    H153952   3.823   3.525   1.237  0.2296 -0.8695 -1.5623
 9919TIP3    H253953   3.974   3.511   1.242  0.2228 -0.7039 -0.7544
 9920TIP3   OH253954   4.663   4.028   0.725 -0.5464  0.0714 -0.0417
 9920TIP3    H153955   4.613   4.108   0.708 -0.6426 -0.0681 -0.4171
 9920TIP3    H253956   4.633   3.999   0.811 -0.7848  0.2307 -0.0701
 9921TIP3   OH253957   0.165   2.315   3.081 -0.6538 -0.1487 -0.2789
 9921TIP3    H153958   0.241   2.293   3.028  1.2964  0.6539  1.9728
 9921TIP3    H253959   0.110   2.237   3.078 -0.1944 -0.4551 -2.6417
 9922TIP3   OH253960   5.323   1.331   1.548 -0.0507  0.2093  0.0639
 9922TIP3    H153961   5.400   1.378   1.516 -1.0791  1.1894 -1.0930
 9922TIP3    H253962   5.267   1.399   1.584  0.7747 -0.7831  3.5848
 9923TIP3   OH253963   6.001   1.932   3.206 -0.6280 -0.2286 -0.6953
 9923TIP3    H153964   6.021   2.000   3.142 -0.0896  0.2176 -0.0685
 9923TIP3    H253965   6.001   1.851   3.155  2.8075 -0.2891 -0.8374
 9924TIP3   OH253966   0.703   4.008   3.474 -0.0643 -0.4259 -0.3115
 9924TIP3    H153967   0.640   4.069   3.436  0.3037 -0.1617 -0.5025
 9924TIP3    H253968   0.666   3.986   3.560  0.1123  0.5797  0.0409
 9925TIP3   OH253969   1.701   0.799   3.765  0.2827 -0.0628 -0.3868
 9925TIP3    H153970   1.760   0.874   3.767  1.2624 -0.8127 -0.6595
 9925TIP3    H253971   1.754   0.724   3.792 -1.0780 -0.4384  1.4776
 9926TIP3   OH253972   0.662   4.070   1.802 -0.0086  0.1366  0.1119
 9926TIP3    H153973   0.738   4.012   1.804  0.0687  0.2480  1.3214
 9926TIP3    H253974   0.627   4.061   1.714 -0.4047 -2.3104  0.4372
 9927TIP3   OH253975   2.418   1.301   1.724  0.2511 -0.7958  0.4660
 9927TIP3    H153976   2.367   1.228   1.689 -2.0327  0.9190  0.0606
 9927TIP3    H253977   2.494   1.306   1.665 -0.7506 -1.3902 -0.9478
 9928TIP3   OH253978   4.494   6.303   2.594 -0.1995  0.1357  0.7027
 9928TIP3    H153979   4.446   6.229   2.555  1.1430  0.0153 -0.8165
 9928TIP3    H253980   4.432   6.341   2.656 -0.9935 -2.1407  1.4051
 9929TIP3   OH253981   5.919   1.427   1.456 -0.2605 -0.3142  0.5620
 9929TIP3    H153982   5.939   1.458   1.544 -0.6985  0.1818  0.4901
 9929TIP3    H253983   5.998   1.448   1.405 -0.8284  1.4209  0.3367
 9930TIP3   OH253984   5.483   5.435   1.138 -0.2410 -0.9834  0.4627
 9930TIP3    H153985   5.578   5.434   1.123 -0.0751  0.5348  1.1597
 9930TIP3    H253986   5.450   5.497   1.074 -0.4876 -0.0696  1.4412
 9931TIP3   OH253987   6.724   4.796   0.691  0.2877 -0.3348  0.1121
 9931TIP3    H153988   6.723   4.784   0.786  0.2145  1.3713  0.3615
 9931TIP3    H253989   6.806   4.843   0.673 -1.4804  2.9576 -0.0975
 9932TIP3   OH253990   1.305   1.312   3.228  0.4041 -0.0018  0.3189
 9932TIP3    H153991   1.297   1.383   3.165  1.8351  0.2606  0.3874
 9932TIP3    H253992   1.397   1.315   3.255 -0.1218 -0.2235  2.2714
 9933TIP3   OH253993   0.289   0.634   4.651 -0.1267  0.7092  0.0561
 9933TIP3    H153994   0.228   0.679   4.592  0.6682  1.6527 -0.0736
 9933TIP3    H253995   0.319   0.558   4.600 -0.0022  1.1099 -0.4843
 9934TIP3   OH253996   6.116   2.520   2.812  0.0950 -0.0578 -0.1769
 9934TIP3    H153997   6.206   2.546   2.833 -0.0251  1.5212 -1.4789
 9934TIP3    H253998   6.077   2.596   2.770 -2.3942 -0.1119  1.7702
 9935TIP3   OH253999   1.763   6.747   1.212  0.1350  0.2609  0.2767
 9935TIP3    H154000   1.736   6.776   1.299  0.0632  0.3811  0.2155
 9935TIP3    H254001   1.829   6.680   1.228 -1.0886 -0.9338  0.4473
 9936TIP3   OH254002   5.757   3.353   2.709  0.3657  0.1718 -0.1801
 9936TIP3    H154003   5.667   3.329   2.688 -0.2081  1.2847  0.8561
 9936TIP3    H254004   5.798   3.370   2.624  0.9945 -4.6212 -1.1023
 9937TIP3   OH254005   0.059   0.881   0.760  0.2683  0.7961  0.2182
 9937TIP3    H154006   0.061   0.827   0.839  2.2822  1.5995  0.7762
 9937TIP3    H254007   0.003   0.955   0.783 -1.5939 -0.3927 -0.1816
 9938TIP3   OH254008   2.071   6.495   3.303  0.3851  0.2047 -0.7215
 9938TIP3    H154009   2.114   6.467   3.384  1.6573 -0.4309 -1.5919
 9938TIP3    H254010   2.084   6.590   3.300 -1.7830  0.6576  0.9848
 9939TIP3   OH254011   6.618   5.214   2.245 -0.5272 -0.2238 -0.2315
 9939TIP3    H154012   6.674   5.140   2.221  0.1622 -0.5974  2.2718
 9939TIP3    H254013   6.644   5.284   2.186  0.6667 -1.2033 -0.9075
 9940TIP3   OH254014   4.055   0.019   3.226  0.0369  0.0801  0.1267
 9940TIP3    H154015   3.991  -0.034   3.272 -0.6247  1.5068  0.8904
 9940TIP3    H254016   4.135  -0.033   3.228 -0.7845 -1.2137  0.1762
 9941TIP3   OH254017   5.562   2.993   3.651 -0.2686  0.2411  0.7606
 9941TIP3    H154018   5.542   3.082   3.622  0.0948  0.3193  0.7548
 9941TIP3    H254019   5.496   2.939   3.608  0.2887  0.3454 -0.2512
 9942TIP3   OH254020   2.452   4.689   2.042  0.2562 -0.3308  0.0489
 9942TIP3    H154021   2.487   4.776   2.022 -1.3473  0.4934  0.5732
 9942TIP3    H254022   2.360   4.706   2.065  0.0878 -2.0937  0.8043
 9943TIP3   OH254023   3.117   5.529   1.169  0.3708  0.2109 -0.3076
 9943TIP3    H154024   3.035   5.578   1.170  0.6996  0.7638  0.5935
 9943TIP3    H254025   3.132   5.506   1.261  0.9578 -0.3431 -0.5384
 9944TIP3   OH254026   4.031   2.202   1.283  0.6427 -0.7461  0.4509
 9944TIP3    H154027   4.012   2.244   1.367 -1.5484 -1.8272  0.5678
 9944TIP3    H254028   4.126   2.212   1.272  0.4677  3.2067  0.9747
 9945TIP3   OH254029   3.334   4.152   2.803  0.0519 -0.4465  0.2494
 9945TIP3    H154030   3.334   4.177   2.711  1.2874  0.3653  0.4452
 9945TIP3    H254031   3.367   4.230   2.849  0.5127 -1.2152  1.2602
 9946TIP3   OH254032   2.913   6.160   3.343 -0.3378 -0.2635 -0.7354
 9946TIP3    H154033   2.934   6.247   3.307  0.4729 -0.5710 -1.0248
 9946TIP3    H254034   2.823   6.169   3.375  0.2075  1.1094  0.5464
 9947TIP3   OH254035   4.794   0.725   1.729 -0.0810  0.1048 -0.2655
 9947TIP3    H154036   4.769   0.816   1.714 -0.9001 -0.1103 -0.2455
 9947TIP3    H254037   4.889   0.728   1.739  0.0053  0.8269 -1.1805
 9948TIP3   OH254038   3.204   1.057   3.684  0.3550  0.3047  1.0541
 9948TIP3    H154039   3.154   1.109   3.747 -0.9921 -0.1586  0.4283
 9948TIP3    H254040   3.207   0.969   3.722 -1.7675 -0.3617 -0.1067
 9949TIP3   OH254041   1.224   1.831   0.906  0.2986 -0.2322  0.0960
 9949TIP3    H154042   1.193   1.911   0.950 -1.8485 -1.3206  0.7182
 9949TIP3    H254043   1.299   1.803   0.958  0.8299  1.1549  0.1119
 9950TIP3   OH254044   0.294   5.772   1.873  0.0886  0.2221  0.0566
 9950TIP3    H154045   0.228   5.717   1.914 -1.4805  0.2693 -2.2467
 9950TIP3    H254046   0.244   5.838   1.823  1.7996  0.0294 -2.0724
 9951TIP3   OH254047   5.271   2.179   1.798 -0.6990  0.6301 -0.0702
 9951TIP3    H154048   5.307   2.093   1.777  0.9875  1.7471 -2.0820
 9951TIP3    H254049   5.234   2.169   1.886 -1.7040 -2.4462 -0.7369
 9952TIP3   OH254050   0.263   2.629   2.823  0.2710 -0.3100 -0.4599
 9952TIP3    H154051   0.343   2.672   2.851 -0.4082  1.0596 -0.5365
 9952TIP3    H254052   0.194   2.668   2.877 -0.2698 -2.0423  0.1817
 9953TIP3   OH254053   6.758   1.501   3.012  0.2566  0.1987 -0.0529
 9953TIP3    H154054   6.692   1.532   2.950  0.7341  0.5479 -0.3995
 9953TIP3    H254055   6.732   1.411   3.031  0.1906  0.0234 -0.9057
 9954TIP3   OH254056   5.594   1.752   2.403 -0.3622 -0.2224 -0.7382
 9954TIP3    H154057   5.568   1.661   2.412 -0.6006  0.0099  1.4955
 9954TIP3    H254058   5.511   1.800   2.400 -0.2299  0.0318 -0.3553
 9955TIP3   OH254059   3.153   1.706   1.930  0.1623  0.7545  0.5804
 9955TIP3    H154060   3.166   1.620   1.968  0.2132  0.1664 -0.7176
 9955TIP3    H254061   3.220   1.713   1.862 -1.1229  0.9779 -0.7192
 9956TIP3   OH254062   4.949   0.736   1.420  0.2006  0.2025  0.1665
 9956TIP3    H154063   4.911   0.818   1.451 -1.7299 -0.3384 -0.6244
 9956TIP3    H254064   5.030   0.726   1.470  0.4942  2.5803  0.2588
 9957TIP3   OH254065   3.318   6.733   3.069 -0.1942  0.3904 -0.1632
 9957TIP3    H154066   3.358   6.776   3.144 -0.8348 -0.6798  0.8358
 9957TIP3    H254067   3.364   6.768   2.993  1.0808  0.8444  0.7865
 9958TIP3   OH254068   1.269   4.981   2.537  0.2124 -0.0141  0.2582
 9958TIP3    H154069   1.270   5.077   2.545 -1.8631  0.0354  0.6291
 9958TIP3    H254070   1.182   4.961   2.502  1.0812 -1.7150 -1.0902
 9959TIP3   OH254071   4.990   2.228   2.230  0.5097  0.3643 -0.4342
 9959TIP3    H154072   5.005   2.232   2.324 -0.9997 -0.0242 -0.1471
 9959TIP3    H254073   4.933   2.152   2.218 -0.8279  1.4731 -1.4372
 9960TIP3   OH254074   4.708   3.719   1.073 -0.3335  0.5454 -0.5096
 9960TIP3    H154075   4.632   3.670   1.040 -2.6605  2.4867  1.4706
 9960TIP3    H254076   4.752   3.658   1.132 -1.9244  0.0728  0.2662
 9961TIP3   OH254077   6.479   0.153   0.639 -0.2743 -0.0474  0.4765
 9961TIP3    H154078   6.531   0.074   0.624  1.0216  0.7512  0.6133
 9961TIP3    H254079   6.391   0.131   0.608  0.1520 -1.4214  0.2098
 9962TIP3   OH254080   5.698   4.126   0.718  0.1199  0.1804  0.1442
 9962TIP3    H154081   5.776   4.145   0.770 -0.7372  1.8083  0.9171
 9962TIP3    H254082   5.695   4.030   0.713  1.3003  0.0478  1.4271
 9963TIP3   OH254083   1.626   5.552   1.331  0.0522 -0.5282 -0.3857
 9963TIP3    H154084   1.681   5.631   1.326 -0.8783  0.1171 -0.7045
 9963TIP3    H254085   1.538   5.584   1.315 -0.6395 -1.3094  1.6286
 9964TIP3   OH254086   1.457   3.253   2.936  0.0371  0.1054 -0.2073
 9964TIP3    H154087   1.400   3.247   2.860 -0.7586 -0.9288  0.4450
 9964TIP3    H254088   1.458   3.346   2.958 -1.3033  0.1716 -0.3286
 9965TIP3   OH254089   5.162   5.792   2.887  0.1310  0.4174 -0.3944
 9965TIP3    H154090   5.196   5.877   2.916  0.6040  0.9440 -2.3036
 9965TIP3    H254091   5.169   5.796   2.791  2.3315 -2.6428 -0.5163
 9966TIP3   OH254092   1.379   6.000   4.393 -0.1244  1.0211 -0.2202
 9966TIP3    H154093   1.431   6.038   4.463 -1.3337  1.4774  0.4477
 9966TIP3    H254094   1.441   5.947   4.343  0.9206  1.3602  0.6935
 9967TIP3   OH254095   2.716   5.532   0.967  0.3795  0.1456 -0.1327
 9967TIP3    H154096   2.794   5.580   0.993  0.6810 -0.3288 -0.1678
 9967TIP3    H254097   2.736   5.441   0.984  0.7384 -0.2509 -2.3682
 9968TIP3   OH254098   6.568   5.702   2.310  0.0121  0.0435  0.2289
 9968TIP3    H154099   6.540   5.785   2.271  0.3516  0.2613  0.4424
 9968TIP3    H254100   6.508   5.689   2.383 -1.4958 -1.0424 -1.1429
 9969TIP3   OH254101   2.784   1.304   0.893  0.3071  0.1405  0.4742
 9969TIP3    H154102   2.806   1.262   0.810 -1.6419 -2.3129  1.0565
 9969TIP3    H254103   2.855   1.366   0.909  0.6515  0.8832 -3.0773
 9970TIP3   OH254104   2.870   0.969   3.165  0.0389 -0.3160  0.3944
 9970TIP3    H154105   2.916   1.036   3.215  1.6402  0.9606 -2.5721
 9970TIP3    H254106   2.929   0.893   3.169 -0.2174 -0.4885  1.0511
 9971TIP3   OH254107   0.673   5.178   0.809 -0.0624 -0.2230  0.6781
 9971TIP3    H154108   0.640   5.100   0.854 -1.1207  0.4504  1.0854
 9971TIP3    H254109   0.611   5.247   0.831  0.7294  0.6875  0.1188
 9972TIP3   OH254110   5.500   0.512   0.716 -0.6028 -0.0886 -0.0450
 9972TIP3    H154111   5.458   0.427   0.701  1.0801 -0.7625 -1.3159
 9972TIP3    H254112   5.594   0.494   0.710 -0.1316  1.5788  1.3791
 9973TIP3   OH254113   0.605   2.794   0.925  0.2166  0.0007  0.2492
 9973TIP3    H154114   0.529   2.847   0.903  0.1302 -0.2934 -0.1852
 9973TIP3    H254115   0.629   2.752   0.842  1.6042  1.0297  0.1039
 9974TIP3   OH254116   5.750   0.900   2.569 -0.0193  0.2699  0.2246
 9974TIP3    H154117   5.841   0.921   2.547  1.3408 -3.3755  1.5602
 9974TIP3    H254118   5.715   0.859   2.490  0.3786 -0.5865  0.4778
 9975TIP3   OH254119   4.310   5.176   0.554 -0.2404  0.1185  0.9778
 9975TIP3    H154120   4.284   5.267   0.538 -1.1000 -0.1581  0.6923
 9975TIP3    H254121   4.227   5.129   0.559  0.0899 -0.3473  3.1744
 9976TIP3   OH254122   6.576   3.195   2.577  0.5988 -0.3030  0.6969
 9976TIP3    H154123   6.578   3.186   2.482  2.3441 -0.6667  0.7463
 9976TIP3    H254124   6.483   3.188   2.600  0.1452 -0.0719 -0.9767
 9977TIP3   OH254125   3.019   4.572   1.359 -0.2759  0.1205 -0.1293
 9977TIP3    H154126   3.027   4.502   1.424 -1.0941 -0.3065 -0.4702
 9977TIP3    H254127   2.925   4.580   1.345 -0.1435  0.7399 -0.6954
 9978TIP3   OH254128   5.978   1.464   2.944  0.3764  0.1523 -0.5838
 9978TIP3    H154129   6.024   1.406   3.006  2.1525  2.3488  0.2954
 9978TIP3    H254130   5.974   1.414   2.863  1.7366 -1.2301  0.1488
 9979TIP3   OH254131   2.140   3.449   3.792 -1.1128 -0.2785  0.0899
 9979TIP3    H154132   2.118   3.379   3.854 -0.0054  0.1965  1.0551
 9979TIP3    H254133   2.196   3.508   3.842  1.5684 -0.9314 -1.8940
 9980TIP3   OH254134   0.420   0.882   4.639 -0.2158  0.1741 -0.1433
 9980TIP3    H154135   0.398   0.793   4.665 -0.8215 -0.0575 -1.3505
 9980TIP3    H254136   0.491   0.872   4.575 -0.7247  0.4943 -0.7758
 9981TIP3   OH254137   2.337   3.169   2.093  0.2606  0.0698 -0.9424
 9981TIP3    H154138   2.254   3.143   2.132  1.3463  0.5925  1.9994
 9981TIP3    H254139   2.400   3.105   2.128  1.4668  1.1506 -1.0859
 9982TIP3   OH254140   1.866   6.464   4.173  0.0240  0.0493 -0.2202
 9982TIP3    H154141   1.957   6.436   4.180  0.5232  1.5417 -0.3918
 9982TIP3    H254142   1.871   6.557   4.153 -1.5487  0.3358  0.5633
 9983TIP3   OH254143   4.169   6.465   1.488  0.0335  0.0864  0.7178
 9983TIP3    H154144   4.156   6.524   1.414 -0.8052  0.2420  0.9795
 9983TIP3    H254145   4.232   6.401   1.456  0.5382  0.8025  0.2457
 9984TIP3   OH254146   1.978   6.753   3.758 -0.0293 -0.1005 -0.1009
 9984TIP3    H154147   2.065   6.792   3.755 -0.0846  0.0346  0.1099
 9984TIP3    H254148   1.918   6.827   3.755 -0.1324 -0.0944  1.4311
 9985TIP3   OH254149   1.591   1.451   2.761 -0.3035  0.6633  0.4063
 9985TIP3    H154150   1.594   1.363   2.801 -1.3327  0.1396 -0.5994
 9985TIP3    H254151   1.497   1.467   2.747  0.0131  0.3244 -2.8099
 9986TIP3   OH254152   4.783   2.902   2.868  0.0902 -0.1541 -0.2389
 9986TIP3    H154153   4.730   2.860   2.800  0.8755 -2.0713  0.2627
 9986TIP3    H254154   4.735   2.983   2.889 -1.4130 -0.6890 -1.3809
 9987TIP3   OH254155   6.464   6.761   1.018 -0.2797  0.2838  0.2209
 9987TIP3    H154156   6.377   6.731   0.994 -0.3265 -1.0136  1.8274
 9987TIP3    H254157   6.450   6.850   1.052 -0.8924  0.2712  0.0129
 9988TIP3   OH254158   1.846   4.996   3.278  0.4220  0.0942 -0.1552
 9988TIP3    H154159   1.921   5.051   3.256 -0.9217  1.4848 -1.5252
 9988TIP3    H254160   1.816   4.962   3.194 -0.1530 -0.8890  0.4356
 9989TIP3   OH254161   1.579   2.435   3.254  0.0429  0.1385  0.7095
 9989TIP3    H154162   1.592   2.389   3.170 -0.3739  0.7908  0.2786
 9989TIP3    H254163   1.665   2.432   3.296 -0.4956 -3.3520  1.9318
 9990TIP3   OH254164   1.674   2.439   1.816  0.5172  0.0635  0.4001
 9990TIP3    H154165   1.585   2.428   1.782  1.2428 -1.6523 -1.0910
 9990TIP3    H254166   1.720   2.489   1.748  1.6251 -2.2261 -0.6241
 9991TIP3   OH254167   4.668   2.386   0.650  0.7353  0.9079 -0.1783
 9991TIP3    H154168   4.686   2.351   0.563 -0.1688 -0.1131  0.0297
 9991TIP3    H254169   4.585   2.346   0.675 -0.6185  3.5422 -0.1156
 9992TIP3   OH254170   1.602   5.119   0.732  0.6738 -0.1630  0.5699
 9992TIP3    H154171   1.683   5.073   0.709 -0.8862 -2.2636 -1.1919
 9992TIP3    H254172   1.536   5.049   0.738 -1.1277  1.5161  1.3914
 9993TIP3   OH254173   3.576   1.189   2.517  0.9540  0.9140 -0.1190
 9993TIP3    H154174   3.651   1.154   2.469  0.9265  2.6496 -1.5332
 9993TIP3    H254175   3.501   1.172   2.460  0.6684  1.4878  0.0753
 9994TIP3   OH254176   4.651   5.991   1.153  0.3287  0.3649 -0.0010
 9994TIP3    H154177   4.593   5.916   1.150 -1.9348  2.0290 -0.8190
 9994TIP3    H254178   4.685   6.000   1.064 -0.4169  0.9855 -0.2431
 9995TIP3   OH254179   2.858   5.439   2.150  0.4571 -0.1628  0.1478
 9995TIP3    H154180   2.931   5.418   2.208  0.8281  3.0802  1.0909
 9995TIP3    H254181   2.893   5.430   2.062 -0.0450 -4.9412  0.1999
 9996TIP3   OH254182   6.050   3.917   3.330  0.1342  0.6658  0.3678
 9996TIP3    H154183   6.145   3.926   3.317  0.0987 -0.8282 -1.2247
 9996TIP3    H254184   6.040   3.831   3.371 -0.5891  0.1825 -0.7621
 9997TIP3   OH254185   2.418   1.934   3.122 -0.1498  0.0331  0.5818
 9997TIP3    H154186   2.460   1.914   3.039  0.9707  0.8415  0.9241
 9997TIP3    H254187   2.340   1.879   3.124 -0.2574  0.0907 -1.0435
 9998TIP3   OH254188   6.189   1.933   1.903  0.2239 -0.1736 -0.2860
 9998TIP3    H154189   6.134   1.925   1.825 -0.8431  0.3154  0.4050
 9998TIP3    H254190   6.133   1.974   1.968  0.9119 -1.1282  0.9472
 9999TIP3   OH254191   1.415   6.320   0.839  0.2262 -0.1636 -0.0121
 9999TIP3    H154192   1.383   6.230   0.829  0.1457 -0.1055 -0.3078
 9999TIP3    H254193   1.337   6.374   0.825  0.0649 -0.0708  1.1547
10000TIP3   OH254194   4.710   2.298   0.929  0.0827  0.3760  0.4508
10000TIP3    H154195   4.729   2.328   0.840 -1.0865 -0.3209 -0.0600
10000TIP3    H254196   4.724   2.204   0.926 -2.5574 -0.0886  0.2192
10001TIP3   OH254197   1.047   4.451   1.280  0.3189 -0.2613  0.8554
10001TIP3    H154198   1.069   4.381   1.220 -1.0661 -0.8371  0.9823
10001TIP3    H254199   1.099   4.434   1.358  0.6469 -0.6418  0.5511
10002TIP3   OH254200   4.933   3.387   1.941 -0.1771 -0.3162  0.3237
10002TIP3    H154201   4.966   3.364   1.854 -0.4657  0.1645  0.0792
10002TIP3    H254202   4.987   3.461   1.968 -1.8767  1.4091 -0.6794
10003TIP3   OH254203   0.376   3.300   3.018 -0.2252 -0.2346 -0.1619
10003TIP3    H154204   0.417   3.267   2.938  0.0580 -2.2631  0.7826
10003TIP3    H254205   0.449   3.334   3.070 -0.3000  0.2393 -0.3611
10004TIP3   OH254206   6.820   2.440   1.655 -0.1805  0.1181  0.0042
10004TIP3    H154207   6.772   2.480   1.728  1.2798  1.0336  0.4977
10004TIP3    H254208   6.773   2.471   1.577  0.3982  2.1909  0.4030
10005TIP3   OH254209   0.833   0.161   2.339  0.6157  0.0821  0.3421
10005TIP3    H154210   0.766   0.202   2.394  0.5304 -2.2383  2.1247
10005TIP3    H254211   0.792   0.080   2.308  1.9334 -0.4096 -0.1861
10006TIP3   OH254212   6.667   5.079   1.986  0.2295 -0.0193  0.0914
10006TIP3    H154213   6.578   5.050   2.003  0.6228 -1.2807  0.1085
10006TIP3    H254214   6.689   5.042   1.901 -0.1753  2.5484 -1.2284
10007TIP3   OH254215   1.089   3.663   4.371  0.3524  1.1192  0.2213
10007TIP3    H154216   1.029   3.625   4.306  0.0264 -0.5399  1.4240
10007TIP3    H254217   1.153   3.594   4.387  0.8875  1.7963  1.0968
10008TIP3   OH254218   1.896   4.211   1.379  1.1502  0.5540  0.5699
10008TIP3    H154219   1.847   4.294   1.377 -0.0788 -0.1434  0.6092
10008TIP3    H254220   1.982   4.233   1.344  0.9062  1.8880  0.7442
10009TIP3   OH254221   4.351   1.212   2.586 -0.6579  0.8347  0.3144
10009TIP3    H154222   4.343   1.287   2.527  0.5240  1.8528  1.3882
10009TIP3    H254223   4.327   1.136   2.533  2.6312  1.3687 -2.2025
10010TIP3   OH254224   1.745   5.531   2.563 -0.2761  0.0579 -0.4752
10010TIP3    H154225   1.696   5.556   2.485 -0.9788  0.3495  0.0506
10010TIP3    H254226   1.690   5.468   2.608 -0.8796  1.4685  0.8759
10011TIP3   OH254227   6.206   6.168   3.046 -0.2692 -0.1595 -0.2217
10011TIP3    H154228   6.154   6.093   3.076 -0.1815  0.1965  0.8784
10011TIP3    H254229   6.227   6.148   2.955 -1.4836 -0.7842 -0.3883
10012TIP3   OH254230   0.120   1.812   0.664  0.6264 -0.1310  0.4585
10012TIP3    H154231   0.188   1.869   0.698  1.2160 -0.1734 -0.6230
10012TIP3    H254232   0.045   1.870   0.648  0.4200 -0.0706  1.5593
10013TIP3   OH254233   3.236   4.669   3.528 -0.6461  0.0577 -0.1481
10013TIP3    H154234   3.311   4.632   3.575 -0.9518 -0.2678  0.0921
10013TIP3    H254235   3.188   4.592   3.497  0.3637  0.2497 -2.3309
10014TIP3   OH254236   1.198   1.151   4.071 -0.3099  0.4253  0.2545
10014TIP3    H154237   1.278   1.129   4.118  0.4284  0.2777 -1.0139
10014TIP3    H254238   1.154   1.215   4.126  0.1897 -0.2319  1.4424
10015TIP3   OH254239   5.786   6.114   2.250 -0.0780 -0.3941 -0.0430
10015TIP3    H154240   5.715   6.168   2.217  0.0221 -0.1873  0.0784
10015TIP3    H254241   5.757   6.024   2.236  0.0688 -0.3102 -0.9364
10016TIP3   OH254242   3.127   6.327   3.057  0.0585  0.5178  1.0841
10016TIP3    H154243   3.094   6.417   3.065  0.5920  0.6977  1.2962
10016TIP3    H254244   3.064   6.284   2.998 -0.0351  1.1116  0.7371
10017TIP3   OH254245   4.334   3.681   2.129 -0.2094  0.7776  0.3164
10017TIP3    H154246   4.318   3.628   2.051  1.4056 -1.6129  1.5062
10017TIP3    H254247   4.270   3.649   2.193  0.4393  0.6050  0.8854
10018TIP3   OH254248   1.703   4.323   1.096  0.1410  0.1061  0.3924
10018TIP3    H154249   1.729   4.241   1.139  1.1070 -0.0576 -0.4635
10018TIP3    H254250   1.701   4.301   1.003  2.6439  1.5731 -0.0913
10019TIP3   OH254251   0.278   4.030   0.641  0.6064 -0.1063 -0.0329
10019TIP3    H154252   0.332   3.966   0.594  0.7952  1.4087 -2.0379
10019TIP3    H254253   0.188   3.998   0.629  0.6172  0.3875 -1.7852
10020TIP3   OH254254   0.597   0.639   2.851 -0.1919 -0.4161  0.6221
10020TIP3    H154255   0.652   0.561   2.856  0.1703 -0.2034  0.0577
10020TIP3    H254256   0.540   0.624   2.775  1.2793  0.7391 -0.7663
10021TIP3   OH254257   0.637   1.634   3.145  0.4257 -0.0630  0.0073
10021TIP3    H154258   0.621   1.540   3.153  0.4193 -0.2280 -1.5187
10021TIP3    H254259   0.717   1.650   3.193 -1.1331 -0.2737  2.8772
10022TIP3   OH254260   1.555   0.656   1.748 -0.3874  0.0378  0.3834
10022TIP3    H154261   1.510   0.651   1.832 -1.5941  0.3641 -0.2223
10022TIP3    H254262   1.648   0.645   1.769 -0.8254 -1.6073  1.5478
10023TIP3   OH254263   6.060   2.987   1.682  0.5771  0.5703 -0.7342
10023TIP3    H154264   6.025   2.972   1.594 -0.5802  1.8543 -0.5145
10023TIP3    H254265   6.022   2.917   1.735 -1.1536  1.5327 -0.6467
10024TIP3   OH254266   6.597   1.095   1.765  0.3222 -0.1714  0.4768
10024TIP3    H154267   6.672   1.154   1.760 -1.1979  1.7377 -1.0539
10024TIP3    H254268   6.532   1.141   1.818 -0.0409 -1.5468  1.3010
10025TIP3   OH254269   5.832   6.468   3.894 -0.3610 -0.1310 -0.4089
10025TIP3    H154270   5.883   6.521   3.955 -0.5868 -0.5584  0.1602
10025TIP3    H254271   5.850   6.378   3.920 -1.6914 -0.2894  0.0531
10026TIP3   OH254272   0.920   2.359   0.776 -0.0774  0.4156  0.4075
10026TIP3    H154273   0.962   2.340   0.692 -0.2230  1.5852  0.0591
10026TIP3    H254274   0.828   2.336   0.764 -0.5183  2.4775 -0.4291
10027TIP3   OH254275   1.669   3.136   3.320  0.6220  0.0170 -0.3113
10027TIP3    H154276   1.745   3.140   3.261  0.6255  1.3218 -0.2577
10027TIP3    H254277   1.593   3.145   3.262  0.4649 -1.5149 -0.3895
10028TIP3   OH254278   2.373   1.404   0.784  0.0820  0.3545 -0.1306
10028TIP3    H154279   2.321   1.388   0.705  1.4422  0.6686 -1.1188
10028TIP3    H254280   2.377   1.318   0.827  0.2184 -0.0594 -0.9526
10029TIP3   OH254281   3.260   3.479   1.262  0.2766  0.1872  1.1384
10029TIP3    H154282   3.326   3.410   1.262  0.9399  0.8111  1.4524
10029TIP3    H254283   3.270   3.522   1.177 -1.5553 -1.3911  0.0177
10030TIP3   OH254284   5.200   4.149   2.271  0.1808  0.0869  0.4010
10030TIP3    H154285   5.236   4.071   2.230  1.3214  0.1427  1.2428
10030TIP3    H254286   5.276   4.195   2.306 -0.3747  1.9484 -0.6798
10031TIP3   OH254287   1.318   2.765   1.142 -0.4824  0.0626  0.1542
10031TIP3    H154288   1.391   2.734   1.195 -1.2372 -3.0140 -0.4302
10031TIP3    H254289   1.263   2.813   1.204  1.0790  0.8714  0.9877
10032TIP3   OH254290   1.222   5.855   3.099  0.1425  0.1104 -0.0915
10032TIP3    H154291   1.285   5.789   3.130  0.6372  0.1037 -1.1050
10032TIP3    H254292   1.139   5.828   3.140  0.6144 -0.3440  0.6041
10033TIP3   OH254293   2.913   2.305   0.860  0.6382  0.5666  0.2153
10033TIP3    H154294   2.924   2.396   0.831  2.9323 -0.0293 -1.1023
10033TIP3    H254295   2.973   2.255   0.803 -1.7347 -2.0153 -0.2144
10034TIP3   OH254296   3.816   3.977   3.423 -0.2845  0.1081 -0.1438
10034TIP3    H154297   3.819   3.930   3.506 -3.3686 -0.8032 -0.4019
10034TIP3    H254298   3.782   4.063   3.445 -0.5683  0.0573 -0.3686
10035TIP3   OH254299   1.755   5.950   1.623 -0.0122 -0.0613 -0.6805
10035TIP3    H154300   1.827   5.936   1.561 -0.7414  0.7623 -1.7655
10035TIP3    H254301   1.744   6.045   1.626  0.1326 -0.0732  0.8999
10036TIP3   OH254302   3.362   6.831   1.957  0.5018 -0.6061  0.2273
10036TIP3    H154303   3.427   6.868   2.017 -0.8109  2.4231 -0.0600
10036TIP3    H254304   3.287   6.810   2.014 -0.5506  1.7930 -0.1684
10037TIP3   OH254305   2.578   5.647   2.190  0.2057 -0.4278 -0.5441
10037TIP3    H154306   2.601   5.732   2.152 -0.4649  0.4773  0.9425
10037TIP3    H254307   2.491   5.628   2.154 -0.2968  0.2775  0.2406
10038TIP3   OH254308   6.570   2.932   1.465 -0.3323  0.1445 -0.5274
10038TIP3    H154309   6.547   2.893   1.381 -2.3054 -0.3295  0.1795
10038TIP3    H254310   6.487   2.965   1.499  0.3912  0.1528  1.3199
10039TIP3   OH254311   3.626   1.917   2.483 -0.3752  0.4306 -0.3867
10039TIP3    H154312   3.541   1.944   2.516  0.4199 -0.2891  2.5446
10039TIP3    H254313   3.613   1.828   2.451 -0.6689  0.1451  0.4890
10040TIP3   OH254314   2.573   2.989   3.498  0.3034 -0.1004  0.7237
10040TIP3    H154315   2.535   2.902   3.508 -0.0975 -0.0593 -0.3223
10040TIP3    H254316   2.505   3.048   3.529 -0.4733 -0.0369 -0.9851
10041TIP3   OH254317   3.866   3.069   2.392  0.2976  0.3564  0.6274
10041TIP3    H154318   3.908   3.073   2.306  2.4422  1.9211  1.6359
10041TIP3    H254319   3.843   3.160   2.412 -0.0606  0.0405  1.7344
10042TIP3   OH254320   5.782   0.232   1.567  0.2317 -0.1266 -0.6740
10042TIP3    H154321   5.698   0.275   1.556  1.1138  1.5764 -1.1758
10042TIP3    H254322   5.761   0.140   1.582 -1.6683  0.1337 -1.5340
10043TIP3   OH254323   3.423   5.021   1.882 -0.4785  0.0450 -0.2114
10043TIP3    H154324   3.400   4.966   1.807 -0.1104 -0.0319 -0.2690
10043TIP3    H254325   3.519   5.017   1.886 -0.5097 -0.1759  0.4273
10044TIP3   OH254326   2.330   2.364   3.412 -1.0419 -0.1649  1.2155
10044TIP3    H154327   2.373   2.348   3.495  0.5670 -2.0008  0.1030
10044TIP3    H254328   2.393   2.337   3.346 -2.1766  1.4118 -0.6441
10045TIP3   OH254329   5.122   2.018   1.315 -0.4766 -0.2959 -0.3116
10045TIP3    H154330   5.124   1.932   1.357 -2.2824  0.4140  1.4430
10045TIP3    H254331   5.155   2.078   1.382  0.0441  0.4760 -1.2397
10046TIP3   OH254332   2.917   0.909   2.613  0.0563 -0.6197 -0.2325
10046TIP3    H154333   3.010   0.918   2.593 -0.0246  0.4806 -0.1699
10046TIP3    H254334   2.905   0.816   2.632  1.1585 -0.7552 -0.1618
10047TIP3   OH254335   2.212   5.866   3.957  0.0179 -0.0397  0.0790
10047TIP3    H154336   2.281   5.897   3.898  1.9803 -0.2273  2.1526
10047TIP3    H254337   2.196   5.775   3.930  0.5640  0.0161 -0.4370
10048TIP3   OH254338   2.199   1.781   3.083  0.1665 -0.1074 -0.3384
10048TIP3    H154339   2.212   1.744   2.996 -1.0062 -0.2795 -0.4550
10048TIP3    H254340   2.129   1.729   3.122  0.9569 -0.3094  0.8901
10049TIP3   OH254341   4.050   3.464   0.950 -0.4364  0.5947 -0.2267
10049TIP3    H154342   4.093   3.494   1.031 -1.1175  1.1580 -0.0610
10049TIP3    H254343   4.067   3.370   0.948 -1.0984  0.4209  1.0150
10050TIP3   OH254344   0.346   6.277   0.622  0.6483 -0.3464  0.0387
10050TIP3    H154345   0.341   6.220   0.699  1.3848  0.0815  0.4129
10050TIP3    H254346   0.292   6.353   0.644 -0.3579 -0.8900 -0.4719
10051TIP3   OH254347   6.484   6.830   1.741 -0.5281  0.3048 -0.1026
10051TIP3    H154348   6.569   6.787   1.739 -0.6566 -0.0808  1.4316
10051TIP3    H254349   6.442   6.805   1.658  1.6330  2.2750 -1.9268
10052TIP3   OH254350   2.667   2.819   2.305 -0.5283  0.5712  0.2464
10052TIP3    H154351   2.737   2.755   2.320 -0.5283  0.3936 -0.4829
10052TIP3    H254352   2.706   2.903   2.330 -1.3189  0.0802  3.7514
10053TIP3   OH254353   6.058   3.595   2.959  0.0718  0.1353  0.6203
10053TIP3    H154354   6.005   3.625   3.033 -0.0337  1.1155  0.1679
10053TIP3    H254355   6.103   3.673   2.929  0.2943 -0.2984 -0.2028
10054TIP3   OH254356   1.423   3.973   1.612 -0.2436  0.5582  0.2631
10054TIP3    H154357   1.382   3.901   1.564  2.0093  0.6885 -2.0967
10054TIP3    H254358   1.365   4.048   1.600 -0.0251  0.4376 -1.9258
10055TIP3   OH254359   3.398   2.900   2.583  0.1921  0.0591 -1.1503
10055TIP3    H154360   3.406   2.858   2.498  0.4822 -1.1464 -0.5495
10055TIP3    H254361   3.318   2.863   2.620  1.1272 -0.9678 -0.0852
10056TIP3   OH254362   4.268   6.415   1.162  0.0672  0.3394  0.4274
10056TIP3    H154363   4.209   6.455   1.098 -0.3689  0.1061  0.6822
10056TIP3    H254364   4.315   6.490   1.200  0.9078  0.4277 -0.7095
10057TIP3   OH254365   3.317   2.507   2.322 -0.0687 -0.3723  0.1787
10057TIP3    H154366   3.273   2.423   2.330 -0.0771 -0.5581 -1.5305
10057TIP3    H254367   3.393   2.500   2.380 -0.0128 -1.5911 -0.0263
10058TIP3   OH254368   4.825   1.099   2.269 -0.4363  0.1278 -0.0085
10058TIP3    H154369   4.780   1.043   2.206  0.3266  0.1803 -0.6143
10058TIP3    H254370   4.896   1.045   2.302 -0.0366  0.5458 -0.1772
10059TIP3   OH254371   1.678   4.169   1.741 -0.6204 -0.3899 -1.0361
10059TIP3    H154372   1.754   4.227   1.752  0.4220 -1.9044  0.4433
10059TIP3    H254373   1.660   4.137   1.830 -0.9669 -2.4803 -1.8035
10060TIP3   OH254374   5.590   2.178   1.611  0.0703 -0.0390  0.1500
10060TIP3    H154375   5.547   2.263   1.615  0.7389  0.2734  1.1169
10060TIP3    H254376   5.553   2.129   1.684 -3.6069 -2.2684 -2.8535
10061TIP3   OH254377   0.117   4.249   3.351 -0.5477 -0.0021 -0.1682
10061TIP3    H154378   0.209   4.231   3.332 -0.5313 -0.1888  0.0791
10061TIP3    H254379   0.117   4.281   3.442 -0.7111  0.1181 -0.2103
10062TIP3   OH254380   3.607   3.471   2.397  0.2211  0.1938 -0.1050
10062TIP3    H154381   3.580   3.474   2.305 -2.0381  1.0999  0.5395
10062TIP3    H254382   3.553   3.537   2.440  1.6769  0.2286  1.7925
10063TIP3   OH254383   5.338   0.826   4.294 -0.1963 -0.1752  0.1202
10063TIP3    H154384   5.348   0.794   4.204  2.1184  1.3704 -0.2765
10063TIP3    H254385   5.292   0.756   4.340 -1.1664 -1.1383 -2.1769
10064TIP3   OH254386   4.175   4.553   2.286  0.0955  0.2165  0.1046
10064TIP3    H154387   4.259   4.564   2.241  1.6739  0.1036  2.8147
10064TIP3    H254388   4.139   4.642   2.291  0.1857  0.3132 -0.7658
10065TIP3   OH254389   5.088   6.390   2.499 -0.4294 -0.1250 -0.6074
10065TIP3    H154390   5.173   6.347   2.488  0.5389  1.6821 -0.5078
10065TIP3    H254391   5.027   6.335   2.450  0.6034 -1.9653  0.0692
10066TIP3   OH254392   4.790   3.111   3.172  0.0844  0.3469 -0.4617
10066TIP3    H154393   4.877   3.078   3.192  0.5081  1.5457 -0.2477
10066TIP3    H254394   4.760   3.151   3.254 -1.1268 -0.9696 -0.2062
10067TIP3   OH254395   2.529   6.451   2.815  0.1839  0.1145  0.0301
10067TIP3    H154396   2.536   6.356   2.804 -0.9811  0.0666 -0.4823
10067TIP3    H254397   2.503   6.462   2.906 -2.6842 -0.2863 -0.6388
10068TIP3   OH254398   2.611   0.611   1.153 -0.7712 -0.2633 -0.7065
10068TIP3    H154399   2.707   0.615   1.144 -0.6391  0.6551  0.7948
10068TIP3    H254400   2.596   0.530   1.202 -0.7897 -0.4869 -1.0741
10069TIP3   OH254401   1.009   0.792   1.965  0.1525 -0.5533 -0.0504
10069TIP3    H154402   1.104   0.787   1.974  0.2206 -1.0859 -0.9302
10069TIP3    H254403   0.989   0.886   1.967  0.4978 -0.4717  1.8085
10070TIP3   OH254404   2.068   0.822   1.908  0.0568 -0.0024  0.0964
10070TIP3    H154405   2.080   0.774   1.990 -0.6708  0.3200  0.3991
10070TIP3    H254406   2.135   0.891   1.912 -0.4655  0.4785  0.7812
10071TIP3   OH254407   5.858   5.706   3.522  0.2555 -0.2403  0.2276
10071TIP3    H154408   5.915   5.764   3.472  1.7120 -0.8348  1.1147
10071TIP3    H254409   5.902   5.698   3.607 -2.1036  0.7084  1.6206
10072TIP3   OH254410   3.377   6.382   1.709  0.0338 -0.4137 -0.4363
10072TIP3    H154411   3.400   6.470   1.739  1.2257 -0.9773  0.3640
10072TIP3    H254412   3.288   6.369   1.742  0.1366  0.1895  0.1061
10073TIP3   OH254413   0.287   3.697   3.250 -0.2490 -0.0433 -0.1084
10073TIP3    H154414   0.361   3.735   3.297  0.5815 -0.8779 -0.6871
10073TIP3    H254415   0.261   3.764   3.187 -0.6705  0.6596  0.7909
10074TIP3   OH254416   2.511   2.381   2.932  0.2001 -0.1698 -0.0658
10074TIP3    H154417   2.589   2.387   2.988  0.5733  0.0242 -0.6037
10074TIP3    H254418   2.472   2.468   2.936 -0.9972 -0.7265  1.6203
10075TIP3   OH254419   3.147   0.847   2.211  0.0304  0.3734  0.1151
10075TIP3    H154420   3.054   0.846   2.235 -0.3505  1.8714 -1.1485
10075TIP3    H254421   3.161   0.762   2.169 -0.2000 -0.7405  2.1646
10076TIP3   OH254422   0.661   5.665   1.923 -0.6026 -0.5175  0.3117
10076TIP3    H154423   0.647   5.759   1.935 -1.2543 -0.5581 -0.0947
10076TIP3    H254424   0.579   5.625   1.953  0.0278 -1.0333  1.4186
10077TIP3   OH254425   5.584   6.299   2.395  0.1532 -0.4665 -0.0917
10077TIP3    H154426   5.632   6.223   2.429 -2.1831 -2.0392 -0.1103
10077TIP3    H254427   5.641   6.373   2.414  1.4771 -1.9256  2.1055
10078TIP3   OH254428   0.522   3.825   2.505  0.8039  0.1564 -0.2214
10078TIP3    H154429   0.528   3.737   2.540  0.4784  0.3536  0.3389
10078TIP3    H254430   0.584   3.876   2.556  1.8694  0.0117 -1.3373
10079TIP3   OH254431   3.211   6.364   0.853  0.2389 -0.0165 -0.4523
10079TIP3    H154432   3.260   6.315   0.918 -0.6731 -0.9035 -0.4030
10079TIP3    H254433   3.272   6.377   0.781  0.9519  0.1082  0.1653
10080TIP3   OH254434   0.996   2.229   3.471  0.0088  0.3498  0.1173
10080TIP3    H154435   0.973   2.321   3.484  1.1417  0.9947 -1.9614
10080TIP3    H254436   1.062   2.211   3.538  0.4679  1.3605 -0.0448
10081TIP3   OH254437   3.879   5.801   0.847 -0.2637  0.2568 -0.1529
10081TIP3    H154438   3.908   5.806   0.938  0.7929 -0.8741 -0.4019
10081TIP3    H254439   3.784   5.792   0.852 -0.1667 -0.2402  0.8504
10082TIP3   OH254440   4.249   0.100   3.037  0.1067 -0.0224 -0.1275
10082TIP3    H154441   4.168   0.107   3.088 -0.0155  1.3981 -0.4934
10082TIP3    H254442   4.289   0.186   3.041  1.8947 -0.8239  0.4530
10083TIP3   OH254443   1.673   0.826   3.488  0.1024 -0.0159  0.5455
10083TIP3    H154444   1.700   0.800   3.576 -2.2174 -1.3554  0.9641
10083TIP3    H254445   1.719   0.766   3.430 -0.3968 -0.9346  1.0719
10084TIP3   OH254446   0.101   3.353   2.313 -0.3636  0.6378  0.2010
10084TIP3    H154447   0.186   3.360   2.357 -1.0375 -0.3687  1.7624
10084TIP3    H254448   0.075   3.444   2.297  0.6898  0.9787  0.3124
10085TIP3   OH254449   6.002   4.570   2.352 -0.4057 -0.3318 -0.2643
10085TIP3    H154450   5.956   4.641   2.308 -0.8856  0.7399  1.8142
10085TIP3    H254451   5.993   4.589   2.445 -1.5515 -3.7413  0.4837
10086TIP3   OH254452   5.792   2.376   1.702  0.0942 -0.1118 -0.4471
10086TIP3    H154453   5.870   2.321   1.689 -2.0973 -3.6132 -0.1536
10086TIP3    H254454   5.756   2.386   1.615 -0.6444 -1.0868 -0.2770
10087TIP3   OH254455   4.731   6.611   3.511 -0.3393 -0.3527 -0.2148
10087TIP3    H154456   4.821   6.613   3.544  0.2898  0.8052 -1.8438
10087TIP3    H254457   4.680   6.655   3.580  1.1753  3.4663 -1.2426
10088TIP3   OH254458   5.095   4.405   2.665  0.1659  0.2575  0.3586
10088TIP3    H154459   5.156   4.332   2.678 -0.4541 -0.4029 -0.3928
10088TIP3    H254460   5.012   4.363   2.643 -0.0951  1.2028 -0.5118
10089TIP3   OH254461   4.820   4.440   2.255  0.1838  0.1695  0.2271
10089TIP3    H154462   4.907   4.403   2.268  0.2130  0.3280  0.4852
10089TIP3    H254463   4.787   4.396   2.177  0.2204 -0.4121  0.5296
10090TIP3   OH254464   4.719   0.168   1.555 -0.1045  0.6634 -0.1236
10090TIP3    H154465   4.807   0.138   1.576 -0.0395 -0.3349 -1.6948
10090TIP3    H254466   4.693   0.116   1.479 -2.1860  0.6875  0.4978
10091TIP3   OH254467   3.947   4.782   2.706 -0.1189 -0.4732  0.6475
10091TIP3    H154468   3.952   4.878   2.711  1.5644 -0.5864  2.1686
10091TIP3    H254469   3.935   4.764   2.612 -0.9417  1.2207  0.3887
10092TIP3   OH254470   3.981   3.539   3.481  0.3684 -0.3039  0.1001
10092TIP3    H154471   4.070   3.540   3.515  0.3943 -1.4487  0.1086
10092TIP3    H254472   3.950   3.450   3.498 -0.1138 -0.4956 -1.6234
10093TIP3   OH254473   5.594   2.044   1.368 -0.1223 -0.4596  0.0869
10093TIP3    H154474   5.584   2.093   1.450  2.2908  0.2194  0.0609
10093TIP3    H254475   5.653   2.098   1.315 -0.2263 -1.7299 -1.3896
10094TIP3   OH254476   5.861   6.604   2.080  0.6012 -0.4059  0.0976
10094TIP3    H154477   5.907   6.675   2.036  3.1137 -1.5653  0.6199
10094TIP3    H254478   5.769   6.617   2.058  1.1210  2.1369 -0.9839
10095TIP3   OH254479   3.059   2.379   2.135 -0.3430 -0.7563  0.0481
10095TIP3    H154480   3.071   2.305   2.075  0.6786 -0.8912  0.4111
10095TIP3    H254481   3.033   2.452   2.078 -1.7069 -1.4582 -0.2803
10096TIP3   OH254482   4.562   1.753   0.905  0.0864 -0.0823  0.2350
10096TIP3    H154483   4.593   1.765   0.994 -0.9135 -0.8853  0.7072
10096TIP3    H254484   4.532   1.662   0.902 -1.2207  0.3509 -0.4932
10097TIP3   OH254485   5.550   5.937   0.883 -0.4716 -0.3251 -0.4350
10097TIP3    H154486   5.600   6.012   0.913  1.3950 -1.9752  0.8220
10097TIP3    H254487   5.509   5.966   0.801  2.0322  1.3441 -1.2044
10098TIP3   OH254488   2.389   1.249   2.001  0.5289  0.2659  0.1501
10098TIP3    H154489   2.395   1.260   1.906  1.4171 -0.1398  0.1530
10098TIP3    H254490   2.384   1.339   2.035  1.2228  0.4506 -0.2224
10099TIP3   OH254491   6.599   5.655   3.116  0.6835  0.4007  0.5843
10099TIP3    H154492   6.649   5.707   3.179 -1.2991 -0.3745  2.9758
10099TIP3    H254493   6.522   5.708   3.096  0.8086  0.2156 -0.4254
10100TIP3   OH254494   5.372   0.290   0.740 -0.1711 -0.3864 -0.1281
10100TIP3    H154495   5.375   0.223   0.671  0.8180  1.1557 -1.6678
10100TIP3    H254496   5.292   0.271   0.789 -0.9307 -1.5083 -1.7224
10101TIP3   OH254497   0.206   2.265   1.301 -0.1138 -0.0460  0.3012
10101TIP3    H154498   0.247   2.196   1.354 -1.0928 -1.1066 -0.2834
10101TIP3    H254499   0.277   2.299   1.248  1.0857  1.5595  2.7445
10102TIP3   OH254500   0.490   5.621   3.693  0.7007 -0.3387 -0.1849
10102TIP3    H154501   0.416   5.609   3.633 -0.2453  2.3970  0.2803
10102TIP3    H254502   0.556   5.666   3.640  0.7071  0.1586  0.2381
10103TIP3   OH254503   0.230   3.039   1.299 -0.2683  0.1347  0.0407
10103TIP3    H154504   0.246   3.048   1.205 -0.8025  0.4975 -0.0232
10103TIP3    H254505   0.294   2.974   1.328 -0.2076 -0.1074 -0.6053
10104TIP3   OH254506   4.365   2.964   3.874 -0.2127 -0.0910 -0.0513
10104TIP3    H154507   4.412   2.911   3.938  0.7152 -0.1633 -0.7660
10104TIP3    H254508   4.319   3.030   3.925 -2.2566 -2.1808  0.9677
10105TIP3   OH254509   0.069   1.096   1.606 -0.1035  0.5943 -0.3624
10105TIP3    H154510   0.117   1.177   1.587  0.7887  0.0929 -0.3176
10105TIP3    H254511   0.092   1.075   1.696  0.5292 -0.2631 -0.7077
10106TIP3   OH254512   1.778   0.269   2.091  0.2820 -0.0619  0.7645
10106TIP3    H154513   1.707   0.316   2.048 -0.0940  1.0139  2.4954
10106TIP3    H254514   1.854   0.284   2.035 -1.0931 -2.7416 -2.1480
10107TIP3   OH254515   1.735   2.411   3.017 -0.2926  0.3331  0.2461
10107TIP3    H154516   1.643   2.422   2.995 -0.1565 -1.5897 -1.6319
10107TIP3    H254517   1.782   2.455   2.946  0.2282  0.0781  0.4245
10108TIP3   OH254518   5.862   1.530   2.434 -0.5206 -0.1624  0.4152
10108TIP3    H154519   5.839   1.591   2.365  0.3690 -0.2277  0.0384
10108TIP3    H254520   5.792   1.465   2.434 -0.3668 -0.3423 -0.6461
10109TIP3   OH254521   0.558   3.494   2.801 -0.0536  0.1050  0.1586
10109TIP3    H154522   0.605   3.520   2.721 -1.0151 -0.5650 -0.6444
10109TIP3    H254523   0.532   3.403   2.785 -0.6637  0.1157  1.0408
10110TIP3   OH254524   5.264   0.973   2.446  0.0125 -0.0234  0.6072
10110TIP3    H154525   5.299   0.903   2.391 -2.5860 -0.0185 -1.2193
10110TIP3    H254526   5.271   0.939   2.535 -0.5295 -2.3762 -0.1662
10111TIP3   OH254527   5.428   0.167   1.907 -0.1872 -0.4523 -0.2541
10111TIP3    H154528   5.349   0.218   1.891  0.7737  2.4067  2.8873
10111TIP3    H254529   5.406   0.111   1.981  0.4410 -0.2785  0.0759
10112TIP3   OH254530   3.568   3.969   1.500 -0.1565  0.1122  0.3083
10112TIP3    H154531   3.645   3.979   1.444 -0.7867 -1.2840 -0.8726
10112TIP3    H254532   3.583   4.029   1.572  2.7442 -1.1759  0.9134
10113TIP3   OH254533   5.839   5.855   2.009  0.6623  0.1401 -0.6138
10113TIP3    H154534   5.803   5.769   2.030  1.6097 -0.2085 -0.3471
10113TIP3    H254535   5.795   5.881   1.928  0.0094 -0.3717 -0.4307
10114TIP3   OH254536   3.342   2.113   2.102 -0.8649  0.0562  0.8566
10114TIP3    H154537   3.350   2.022   2.130 -2.2267 -0.1950  0.4830
10114TIP3    H254538   3.252   2.121   2.070  0.3822  0.3744 -3.1830
10115TIP3   OH254539   2.111   2.274   1.867  0.6815 -0.4240 -0.1605
10115TIP3    H154540   2.109   2.326   1.787 -0.4690  0.2297  0.2692
10115TIP3    H254541   2.021   2.243   1.878  0.9983 -1.1636  0.4582
10116TIP3   OH254542   3.313   4.911   3.413  0.7639 -0.0557  0.5164
10116TIP3    H154543   3.389   4.895   3.358 -0.6133 -0.2123 -1.4349
10116TIP3    H254544   3.293   4.825   3.451  0.3443 -0.4770 -0.6236
10117TIP3   OH254545   4.695   0.226   2.826  0.2900  0.9929 -0.4228
10117TIP3    H154546   4.667   0.264   2.909 -0.6978  0.8243 -0.6643
10117TIP3    H254547   4.765   0.166   2.849 -1.0682 -0.3035  0.5088
10118TIP3   OH254548   3.595   4.678   1.917 -0.6053  0.2511 -0.6681
10118TIP3    H154549   3.602   4.708   1.827 -0.4950  1.8941 -0.1603
10118TIP3    H254550   3.622   4.754   1.969 -0.2704 -0.7868  0.7351
10119TIP3   OH254551   3.209   2.311   3.188 -0.4421  0.2078 -0.0429
10119TIP3    H154552   3.284   2.261   3.154 -0.1208  0.7509 -0.1481
10119TIP3    H254553   3.212   2.298   3.282  1.0972  1.9630  0.2114
10120TIP3   OH254554   3.354   0.480   1.890  0.1586 -0.0432  0.1603
10120TIP3    H154555   3.416   0.548   1.864  0.7028 -0.9114 -0.8552
10120TIP3    H254556   3.408   0.404   1.911 -0.5290 -0.6968 -0.3884
10121TIP3   OH254557   3.735   0.893   2.049 -0.1519  0.1177  0.0872
10121TIP3    H154558   3.707   0.956   1.983  0.5867  0.0462 -0.2984
10121TIP3    H254559   3.822   0.923   2.076 -0.8834  0.7873  1.8400
10122TIP3   OH254560   3.876   2.170   1.862 -0.2253  0.2870  0.2973
10122TIP3    H154561   3.945   2.111   1.830  0.6491  0.4975  1.6793
10122TIP3    H254562   3.917   2.216   1.936 -1.8874  0.3273  1.2496
10123TIP3   OH254563   5.426   2.254   2.230  0.3365 -0.4170  0.1337
10123TIP3    H154564   5.502   2.278   2.284  0.8296 -1.1363 -0.2285
10123TIP3    H254565   5.355   2.241   2.293  0.1235  1.6132  0.3907
10124TIP3   OH254566   6.047   2.319   1.350 -0.5066 -0.1861  0.1531
10124TIP3    H154567   5.954   2.341   1.351 -0.7114 -1.0115  1.1615
10124TIP3    H254568   6.092   2.403   1.342 -1.3364  0.0894 -2.9168
10125TIP3   OH254569   4.653   6.518   1.667  0.4500 -0.0513  0.5814
10125TIP3    H154570   4.563   6.540   1.690 -0.5420 -0.3962 -2.5000
10125TIP3    H254571   4.701   6.600   1.678 -0.9007  0.9254 -0.4263
10126TIP3   OH254572   0.203   4.299   1.195 -0.2763  0.0444 -0.2099
10126TIP3    H154573   0.171   4.211   1.212 -0.6264  0.5329  1.9186
10126TIP3    H254574   0.126   4.355   1.199  0.0620  0.5666 -0.6985
10127TIP3   OH254575   3.237   4.569   1.670  0.6010 -0.1502 -0.3299
10127TIP3    H154576   3.171   4.521   1.620  0.2248  0.6858 -0.6574
10127TIP3    H254577   3.312   4.510   1.674  0.1143 -0.8027 -0.6227
10128TIP3   OH254578   1.379   0.118   4.221 -0.0746  0.3415  0.0326
10128TIP3    H154579   1.454   0.066   4.193  0.0062 -0.5319  1.7452
10128TIP3    H254580   1.303   0.067   4.193 -0.0068  0.0039  0.4610
10129TIP3   OH254581   6.210   1.190   1.288 -0.5732 -0.3086  0.0490
10129TIP3    H154582   6.139   1.158   1.343 -0.3844 -0.9884 -0.0923
10129TIP3    H254583   6.283   1.131   1.307  0.1724  0.7613  0.6817
10130TIP3   OH254584   1.629   2.048   1.937 -0.6040 -0.4740 -0.1466
10130TIP3    H154585   1.569   2.116   1.968  2.1649  1.5240  1.2237
10130TIP3    H254586   1.636   1.988   2.011  0.4464  0.3295  0.4368
10131TIP3   OH254587   4.695   1.838   1.138 -0.2077 -0.0647 -0.0373
10131TIP3    H154588   4.683   1.931   1.158  0.5051  0.1118 -0.4155
10131TIP3    H254589   4.790   1.824   1.145 -0.2429 -0.6214 -0.6061
10132TIP3   OH254590   4.856   5.997   1.498  0.1904  0.2809  0.4444
10132TIP3    H154591   4.762   5.996   1.512 -0.0206 -0.5160 -0.8896
10132TIP3    H254592   4.880   6.090   1.497 -0.6892  0.5080  0.0900
10133TIP3   OH254593   2.407   5.606   1.519 -0.1364 -0.2745 -0.1438
10133TIP3    H154594   2.387   5.657   1.440 -0.1882  1.0343  0.6759
10133TIP3    H254595   2.497   5.631   1.541 -0.2187 -0.4072  0.3633
10134TIP3   OH254596   1.766   0.306   2.797 -0.1891  0.3867  0.3962
10134TIP3    H154597   1.812   0.237   2.844 -1.0640 -1.6410 -1.5409
10134TIP3    H254598   1.758   0.377   2.860  0.6824 -1.2978  2.5238
10135TIP3   OH254599   2.315   3.984   2.032 -0.3007 -0.2850  0.3682
10135TIP3    H154600   2.268   4.028   1.961  1.8580 -2.3297 -2.6054
10135TIP3    H254601   2.386   4.045   2.055 -0.9204  0.3301  0.6717
10136TIP3   OH254602   2.026   6.168   4.211  0.0189 -0.1187 -0.0077
10136TIP3    H154603   1.979   6.195   4.289 -0.4121 -0.0234 -0.2957
10136TIP3    H254604   2.077   6.245   4.185 -0.5143  0.1337 -0.3172
10137TIP3   OH254605   1.505   1.848   3.463 -0.5470  0.4217  0.1396
10137TIP3    H154606   1.568   1.791   3.418  0.3722  0.9134  0.7506
10137TIP3    H254607   1.510   1.820   3.555 -0.4924  1.1142  0.3512
10138TIP3   OH254608   4.446   0.525   1.973 -0.1100  0.0206  0.1704
10138TIP3    H154609   4.411   0.594   2.029  0.0548 -1.1783  1.8069
10138TIP3    H254610   4.538   0.550   1.960  0.2380 -0.4005  1.6356
10139TIP3   OH254611   2.456   1.992   2.315 -0.0259 -0.3155  0.3882
10139TIP3    H154612   2.449   2.001   2.220  4.1463  1.2928  0.0079
10139TIP3    H254613   2.517   1.919   2.328  0.2889  0.1607  1.7656
10140TIP3   OH254614   1.675   2.555   3.759 -0.4016 -0.0980  0.2621
10140TIP3    H154615   1.672   2.493   3.832 -1.4284 -0.2540  0.1011
10140TIP3    H254616   1.593   2.604   3.766 -0.2035  0.3397 -0.3979
10141TIP3   OH254617   3.296   1.731   3.858  0.3011  0.0391 -0.0685
10141TIP3    H154618   3.359   1.731   3.787  0.1543  0.0764 -0.1990
10141TIP3    H254619   3.273   1.824   3.870  0.9920  0.1351  0.6201
10142TIP3   OH254620   2.616   0.174   1.227 -0.5036  0.1313 -0.2244
10142TIP3    H154621   2.653   0.191   1.140  1.0445  0.9536  0.5485
10142TIP3    H254622   2.601   0.079   1.228  0.9373 -0.1336 -0.8621
10143TIP3   OH254623   6.401   1.262   3.490  0.2750 -0.7307  0.6837
10143TIP3    H154624   6.333   1.328   3.474  0.3756 -0.9402 -0.8164
10143TIP3    H254625   6.425   1.274   3.581  0.4562  1.4810  0.4119
10144TIP3   OH254626   4.937   3.098   2.255 -0.5362  0.4834  0.4485
10144TIP3    H154627   4.889   3.165   2.206 -0.4479 -0.5130 -1.0650
10144TIP3    H254628   4.937   3.021   2.198  0.4497 -0.4269  1.6081
10145TIP3   OH254629   5.041   0.760   1.134 -0.4107 -0.0292 -0.4699
10145TIP3    H154630   5.042   0.732   1.226 -2.6684  0.5968 -0.1816
10145TIP3    H254631   4.971   0.708   1.094  1.0107 -0.8143 -2.0652
10146TIP3   OH254632   1.636   0.325   1.768  0.1929  0.0226  0.7194
10146TIP3    H154633   1.557   0.318   1.822 -0.1136 -0.3431  0.2316
10146TIP3    H254634   1.676   0.408   1.795 -0.8882  0.7127  0.2767
10147TIP3   OH254635   2.576   2.783   1.201  0.0195  0.4933 -0.1533
10147TIP3    H154636   2.502   2.798   1.260  0.1383  1.6626 -0.2940
10147TIP3    H254637   2.537   2.773   1.115 -0.0693 -0.2367 -0.0401
10148TIP3   OH254638   1.165   3.232   0.570  0.3002  0.3632 -0.1993
10148TIP3    H154639   1.169   3.138   0.553 -0.9116  0.1127  0.7210
10148TIP3    H254640   1.240   3.249   0.627  0.3882 -0.1010 -0.1707
10149TIP3   OH254641   5.652   2.756   3.122  0.4112  0.0640 -0.1722
10149TIP3    H154642   5.667   2.663   3.105  1.1503 -0.0084  0.7763
10149TIP3    H254643   5.740   2.793   3.131  0.1303  0.8924 -0.6870
10150TIP3   OH254644   2.740   4.396   3.770 -0.2508 -0.5285  0.1860
10150TIP3    H154645   2.700   4.482   3.762 -0.1304 -0.3265  1.4383
10150TIP3    H254646   2.767   4.373   3.681  0.7160  1.2243 -0.0288
10151TIP3   OH254647   4.921   6.102   1.772 -0.3008  0.1400 -0.1485
10151TIP3    H154648   4.844   6.134   1.724 -0.5440  0.0044  0.1535
10151TIP3    H254649   4.920   6.008   1.759  0.9650  0.3167 -1.8603
10152TIP3   OH254650   6.553   3.542   2.702  0.2528  0.0628 -0.2761
10152TIP3    H154651   6.551   3.542   2.607 -0.2331 -3.5749 -0.3981
10152TIP3    H254652   6.465   3.515   2.728  0.4383  0.7884  1.2293
10153TIP3   OH254653   6.045   5.192   0.791  0.3366 -0.2240 -0.6612
10153TIP3    H154654   6.032   5.214   0.699  3.2784 -1.3004 -1.4439
10153TIP3    H254655   6.069   5.274   0.833 -2.0870  0.4914 -0.5266
10154TIP3   OH254656   6.072   0.346   1.143  0.0349 -0.0674  0.0914
10154TIP3    H154657   6.046   0.374   1.231 -1.4141 -2.7840  0.6170
10154TIP3    H254658   6.001   0.377   1.087 -1.4271 -2.2182  0.6312
10155TIP3   OH254659   4.279   6.056   3.399 -0.3204  0.0866  0.6528
10155TIP3    H154660   4.262   6.032   3.490  0.1866  0.4181  0.8377
10155TIP3    H254661   4.322   5.979   3.361  0.1286  0.2121  0.8957
10156TIP3   OH254662   3.504   4.720   1.255  0.4285 -0.5186 -0.5470
10156TIP3    H154663   3.564   4.647   1.269  1.3240  0.1818 -0.6510
10156TIP3    H254664   3.420   4.689   1.289  0.9052 -1.4150 -0.1597
10157TIP3   OH254665   3.004   3.652   3.843  0.2284  0.2884  0.2263
10157TIP3    H154666   2.950   3.574   3.834 -0.0297  0.2701  1.7889
10157TIP3    H254667   3.091   3.619   3.866  0.4983  0.4129 -0.5573
10158TIP3   OH254668   3.043   4.552   2.200 -0.3033 -0.3434  0.4291
10158TIP3    H154669   3.005   4.566   2.113  1.3797  1.2399 -0.1167
10158TIP3    H254670   3.019   4.630   2.250  1.1558  0.1380  0.4324
10159TIP3   OH254671   4.024   4.531   1.675  0.5865 -0.5117  0.5982
10159TIP3    H154672   4.096   4.573   1.722 -0.5407 -0.0428  1.9632
10159TIP3    H254673   3.967   4.495   1.744  0.1656 -2.0007 -0.4752
10160TIP3   OH254674   1.371   5.680   3.617 -0.3667  0.1519 -0.1166
10160TIP3    H154675   1.306   5.701   3.684 -0.9843 -0.3485 -0.5502
10160TIP3    H254676   1.368   5.585   3.610 -0.8842  0.2496 -1.4240
10161TIP3   OH254677   3.935   3.123   3.017 -0.5284 -0.5051 -0.7275
10161TIP3    H154678   3.933   3.044   3.071  0.8410 -0.2152 -0.2323
10161TIP3    H254679   3.954   3.091   2.929  2.2219 -0.5966 -0.1679
10162TIP3   OH254680   3.362   6.266   1.061 -0.6929  0.2231  0.0218
10162TIP3    H154681   3.319   6.239   1.142  1.3437 -1.7373  0.5852
10162TIP3    H254682   3.434   6.322   1.090 -1.4060  1.5457 -0.6862
10163TIP3   OH254683   0.524   0.212   0.588  0.1531 -0.0005  0.2758
10163TIP3    H154684   0.448   0.155   0.599  1.3964 -1.8449 -0.1331
10163TIP3    H254685   0.593   0.169   0.639  0.5490  2.4819  1.9913
10164TIP3   OH254686   5.457   4.939   0.513 -0.6564  0.0709 -0.0987
10164TIP3    H154687   5.386   4.951   0.451 -1.9304 -0.3215  1.2201
10164TIP3    H254688   5.480   4.846   0.505  0.4073  0.4083 -1.2126
10165TIP3   OH254689   5.242   0.526   3.261  0.3077  0.1902 -0.8472
10165TIP3    H154690   5.318   0.570   3.301  1.2658 -0.2255 -2.1726
10165TIP3    H254691   5.178   0.521   3.332 -0.0009  3.9808 -0.6306
10166TIP3   OH254692   2.054   0.307   2.756 -0.4574  0.0762  0.8155
10166TIP3    H154693   2.021   0.218   2.764 -0.5318  0.0785  0.5401
10166TIP3    H254694   2.134   0.308   2.808 -1.8011  0.5540  3.0163
10167TIP3   OH254695   1.578   4.674   1.443  0.1423  0.5938 -0.0059
10167TIP3    H154696   1.488   4.702   1.428 -0.1121  0.1430  0.6630
10167TIP3    H254697   1.630   4.730   1.385 -0.8017 -1.2817 -2.8365
10168TIP3   OH254698   2.998   1.756   2.438 -0.1868 -0.1150 -0.1732
10168TIP3    H154699   2.973   1.691   2.372  0.8668  1.9039 -2.7410
10168TIP3    H254700   3.067   1.713   2.489  1.0351 -0.8416 -2.3114
10169TIP3   OH254701   3.217   1.198   1.348 -0.0207  0.3191  0.1858
10169TIP3    H154702   3.125   1.194   1.375 -0.0325 -1.7118  0.0170
10169TIP3    H254703   3.256   1.264   1.405 -1.2434  0.0850  1.3466
10170TIP3   OH254704   6.003   1.790   2.296  0.1528 -0.4795 -0.4692
10170TIP3    H154705   5.976   1.876   2.262 -0.6696 -1.1761 -1.6602
10170TIP3    H254706   5.981   1.793   2.389  1.7193  1.2012 -0.0970
10171TIP3   OH254707   1.393   5.863   0.619  0.2725 -0.0674 -0.9662
10171TIP3    H154708   1.404   5.828   0.707 -1.3520  2.0499  0.1617
10171TIP3    H254709   1.328   5.805   0.578 -1.4670  0.8193  0.4333
10172TIP3   OH254710   3.212   6.156   2.537 -0.3087 -0.3556  0.0413
10172TIP3    H154711   3.182   6.242   2.509 -0.4234 -0.6572 -0.7928
10172TIP3    H254712   3.306   6.156   2.517 -0.6660 -1.1170 -1.8310
10173TIP3   OH254713   1.904   0.466   0.854 -0.2363 -0.1988 -0.0764
10173TIP3    H154714   1.845   0.501   0.921 -0.6564  0.4774 -0.7798
10173TIP3    H254715   1.890   0.371   0.857 -0.6324 -0.1286  0.4366
10174TIP3   OH254716   6.748   5.526   2.566 -0.3449  0.0663 -0.1471
10174TIP3    H154717   6.761   5.613   2.530 -2.6289  0.3130 -0.4930
10174TIP3    H254718   6.724   5.540   2.658 -1.0507 -0.1699 -0.2913
10175TIP3   OH254719   6.615   5.178   3.077 -0.5800 -0.2845  0.1811
10175TIP3    H154720   6.624   5.156   3.170  1.1945 -1.0942 -0.1251
10175TIP3    H254721   6.701   5.211   3.052 -0.1554 -2.5447 -1.7461
10176TIP3   OH254722   0.105   5.584   0.691  0.4348  0.1397 -0.4953
10176TIP3    H154723   0.028   5.637   0.712  1.0268  1.3123 -1.1262
10176TIP3    H254724   0.110   5.587   0.595  0.4334 -1.1771 -0.5594
10177TIP3   OH254725   6.344   3.353   1.171  0.5802 -0.1736  0.7765
10177TIP3    H154726   6.337   3.340   1.266 -1.9262  1.6931  0.9281
10177TIP3    H254727   6.267   3.309   1.135  0.7479  0.3606 -0.2647
10178TIP3   OH254728   3.257   6.111   3.475  0.1027 -0.5118  0.2288
10178TIP3    H154729   3.257   6.144   3.385  1.6781 -0.6843  0.1261
10178TIP3    H254730   3.189   6.161   3.519  0.1473  0.4683 -0.7528
10179TIP3   OH254731   2.108   3.571   2.297 -0.2024  0.2028 -0.0209
10179TIP3    H154732   2.089   3.657   2.261 -0.3426  0.4475  0.6305
10179TIP3    H254733   2.023   3.536   2.323 -0.0750  0.1466  0.3317
10180TIP3   OH254734   5.459   5.250   3.422  0.0412 -1.0108  0.2406
10180TIP3    H154735   5.552   5.256   3.445 -0.1950 -0.0745  1.0225
10180TIP3    H254736   5.414   5.253   3.506 -0.7369 -0.4979 -0.1816
10181TIP3   OH254737   2.897   0.432   2.357  0.1467 -0.5425  0.2015
10181TIP3    H154738   2.991   0.420   2.370  0.1428 -0.9569 -0.1402
10181TIP3    H254739   2.890   0.499   2.289  0.2136 -1.0076 -0.2798
10182TIP3   OH254740   6.428   1.858   1.295 -0.0558 -0.3082 -0.5185
10182TIP3    H154741   6.413   1.937   1.347 -0.4509  0.8853 -2.3559
10182TIP3    H254742   6.520   1.836   1.312  0.4425  1.2952 -0.8989
10183TIP3   OH254743   5.933   3.372   1.415 -0.1005  0.3951  0.1176
10183TIP3    H154744   5.984   3.337   1.342 -0.3453 -1.1433  0.6523
10183TIP3    H254745   5.867   3.428   1.373 -0.4417 -0.7155 -0.8967
10184TIP3   OH254746   4.906   5.822   1.811  0.6932 -0.0480  0.2239
10184TIP3    H154747   4.814   5.798   1.810  1.3797 -3.1591 -1.3879
10184TIP3    H254748   4.926   5.839   1.904 -0.7074 -3.1478  1.2293
10185TIP3   OH254749   2.926   0.775   1.444 -0.6407  0.3204  0.7803
10185TIP3    H154750   2.978   0.854   1.430  0.0128 -0.1159  0.7196
10185TIP3    H254751   2.844   0.792   1.397 -0.3684  0.8186  0.4772
10186TIP3   OH254752   2.597   4.895   2.728 -0.1175 -0.7425 -0.0742
10186TIP3    H154753   2.521   4.954   2.720  0.1715 -0.3801 -0.1487
10186TIP3    H254754   2.568   4.828   2.791 -0.7646 -1.0284 -0.6515
10187TIP3   OH254755   3.567   0.833   1.651  0.2611  0.4506 -0.4329
10187TIP3    H154756   3.515   0.899   1.698 -0.3126 -0.4954  0.2983
10187TIP3    H254757   3.658   0.860   1.665  0.1099  0.2048  1.2620
10188TIP3   OH254758   3.747   0.107   2.569  0.8493  0.0528 -0.5395
10188TIP3    H154759   3.770   0.200   2.570 -2.2048  0.9275 -1.2943
10188TIP3    H254760   3.793   0.072   2.492  1.0497  1.2362 -0.9862
10189TIP3   OH254761   1.240   2.306   2.690 -0.4133  0.3933  0.1440
10189TIP3    H154762   1.162   2.346   2.652 -1.6452  1.7424  3.5995
10189TIP3    H254763   1.225   2.211   2.682 -0.9719  0.6064 -1.7694
10190TIP3   OH254764   1.844   4.872   3.821  0.2179 -0.4618  0.1820
10190TIP3    H154765   1.915   4.906   3.766 -0.2290  0.8941  0.3916
10190TIP3    H254766   1.869   4.897   3.910 -0.9781  0.9413  0.1560
10191TIP3   OH254767   0.180   5.357   0.812  0.0089 -0.2956  0.0265
10191TIP3    H154768   0.140   5.436   0.776  0.7431 -0.4046 -1.0548
10191TIP3    H254769   0.178   5.371   0.907  1.0487  1.4832 -0.1851
10192TIP3   OH254770   6.724   2.455   1.039 -1.0330 -0.5142  0.5006
10192TIP3    H154771   6.687   2.542   1.025 -0.4764 -0.7153 -3.1861
10192TIP3    H254772   6.663   2.396   0.995 -0.9962 -1.9858  2.2802
10193TIP3   OH254773   0.765   1.038   0.889  0.0900  0.2325 -0.3232
10193TIP3    H154774   0.679   1.052   0.849  0.2453  0.5022 -0.5632
10193TIP3    H254775   0.745   1.017   0.981 -0.1402  4.0009  0.6610
10194TIP3   OH254776   0.384   0.655   3.547 -0.9942 -0.1106  0.3535
10194TIP3    H154777   0.477   0.637   3.562 -0.4994  1.8429 -0.1272
10194TIP3    H254778   0.351   0.683   3.632 -0.6372  1.1180  0.1072
10195TIP3   OH254779   2.804   1.728   1.235  0.3560 -0.3174  0.3991
10195TIP3    H154780   2.824   1.665   1.304  0.9589 -1.0722 -0.4359
10195TIP3    H254781   2.723   1.770   1.263  0.2957 -1.0000  1.2861
10196TIP3   OH254782   2.297   4.926   3.493  0.0083  0.0522  0.0223
10196TIP3    H154783   2.371   4.956   3.440 -0.4771  0.1062 -0.6277
10196TIP3    H254784   2.338   4.880   3.567  0.8320  2.4181  1.1795
10197TIP3   OH254785   4.732   1.357   1.869  0.0482  0.0839 -0.1175
10197TIP3    H154786   4.776   1.350   1.953  2.1374  1.6770 -0.9925
10197TIP3    H254787   4.800   1.339   1.804 -1.2557 -0.1085 -1.4975
10198TIP3   OH254788   2.718   2.315   1.266 -0.2049 -0.3450 -0.4956
10198TIP3    H154789   2.690   2.282   1.181 -0.3510 -1.8754  0.1176
10198TIP3    H254790   2.651   2.379   1.291 -2.2660 -2.6107  0.1220
10199TIP3   OH254791   6.515   6.405   0.732  0.0047 -0.0551  0.5523
10199TIP3    H154792   6.512   6.332   0.670  0.2378  1.3162 -1.1238
10199TIP3    H254793   6.607   6.413   0.755 -0.1097 -0.7069  1.3004
10200TIP3   OH254794   0.471   5.161   1.427 -0.3007  0.3042  0.1858
10200TIP3    H154795   0.386   5.191   1.459 -0.3812 -1.5408  1.8996
10200TIP3    H254796   0.449   5.091   1.365 -0.1094 -1.4511  1.9867
10201TIP3   OH254797   0.563   4.692   1.042  0.1037  0.0144 -0.2748
10201TIP3    H154798   0.598   4.708   1.129  0.4017 -1.5021 -0.0905
10201TIP3    H254799   0.468   4.692   1.054  0.1111  0.9070 -0.1698
10202TIP3   OH254800   1.919   0.808   2.622 -0.2951 -0.1789 -0.3573
10202TIP3    H154801   1.942   0.852   2.704 -2.5501 -1.7322  1.2460
10202TIP3    H254802   1.966   0.724   2.626 -1.0918 -0.6278 -0.1855
10203TIP3   OH254803   5.354   6.230   2.812  0.2195 -0.3886  0.7987
10203TIP3    H154804   5.273   6.273   2.784  1.4545  1.7274  0.2922
10203TIP3    H254805   5.410   6.232   2.735  0.8633 -1.6191  1.2117
10204TIP3   OH254806   2.940   5.585   2.759 -0.4844  0.1360  0.9775
10204TIP3    H154807   2.868   5.567   2.818 -1.1065 -0.3967  0.0757
10204TIP3    H254808   2.913   5.664   2.712 -0.6732 -0.3077  0.3382
10205TIP3   OH254809   6.177   4.135   3.049  0.9195 -0.1647 -0.4480
10205TIP3    H154810   6.235   4.062   3.070  0.1843 -0.2193  1.5724
10205TIP3    H254811   6.153   4.173   3.134  3.1164  3.9921 -1.4037
10206TIP3   OH254812   5.445   3.178   0.559  0.0879  0.0377  0.7182
10206TIP3    H154813   5.528   3.204   0.599 -0.3089  1.4682  0.6549
10206TIP3    H254814   5.439   3.084   0.576  1.1692  0.1281  1.7393
10207TIP3   OH254815   2.771   1.490   2.688  0.2328 -0.6200  0.1024
10207TIP3    H154816   2.838   1.431   2.723 -0.3023 -0.6136  1.1979
10207TIP3    H254817   2.815   1.574   2.681  0.2423 -0.5074  1.2588
10208TIP3   OH254818   1.588   1.861   3.168  0.3009 -0.4025 -0.5980
10208TIP3    H154819   1.587   1.931   3.103 -1.1552  0.0763 -0.0942
10208TIP3    H254820   1.579   1.906   3.252 -2.7366 -1.2170 -0.3677
10209TIP3   OH254821   2.537   5.501   3.777 -0.1877  0.0716 -0.0056
10209TIP3    H154822   2.598   5.563   3.816  0.3241 -0.2757 -0.2442
10209TIP3    H254823   2.451   5.527   3.810  0.1900  0.0135  1.0380
10210TIP3   OH254824   5.753   4.757   1.897 -0.7713 -0.0830 -0.1525
10210TIP3    H154825   5.738   4.730   1.806 -2.5855  1.2258 -0.3050
10210TIP3    H254826   5.821   4.825   1.891  0.9284 -1.6948 -0.1898
10211TIP3   OH254827   2.047   3.341   3.466  0.5000 -0.5795  0.2714
10211TIP3    H154828   2.035   3.269   3.528 -0.1086 -1.6270 -1.0087
10211TIP3    H254829   2.116   3.311   3.407  0.9733  0.3444  0.3390
10212TIP3   OH254830   5.678   5.253   0.935  0.1852 -0.3323  0.0305
10212TIP3    H154831   5.671   5.342   0.970  2.7114 -0.3553  0.8055
10212TIP3    H254832   5.701   5.266   0.842  1.9818 -0.0834  0.4675
10213TIP3   OH254833   6.810   3.356   0.488 -0.2048  0.2769 -0.2468
10213TIP3    H154834   6.860   3.323   0.413  1.1394  1.5940  0.0403
10213TIP3    H254835   6.731   3.302   0.489  1.5560 -2.4559 -0.1832
10214TIP3   OH254836   5.408   1.662   2.897  0.5028 -0.3838  0.3689
10214TIP3    H154837   5.480   1.639   2.838 -0.0026  0.5773 -0.6614
10214TIP3    H254838   5.344   1.593   2.884  0.4096 -0.1969 -0.2045
10215TIP3   OH254839   2.004   3.832   0.516  0.2323  0.2459  0.2484
10215TIP3    H154840   2.075   3.894   0.533 -1.0974  1.7221  0.6603
10215TIP3    H254841   1.943   3.880   0.461 -0.7808 -0.7402  0.4716
10216TIP3   OH254842   6.438   6.313   3.161 -0.9562 -0.0558 -0.1456
10216TIP3    H154843   6.368   6.257   3.127 -1.8367  0.8509  0.1259
10216TIP3    H254844   6.442   6.386   3.099 -0.4943  0.0803  0.0403
10217TIP3   OH254845   2.814   3.646   2.881 -0.1214  0.6768  0.2579
10217TIP3    H154846   2.857   3.695   2.951  2.0390 -0.5904 -0.1206
10217TIP3    H254847   2.829   3.554   2.902  0.5233  0.2659 -1.8185
10218TIP3   OH254848   4.658   0.780   2.510  0.4000 -0.2594  0.3421
10218TIP3    H154849   4.610   0.728   2.574 -2.7952  0.5642 -1.2086
10218TIP3    H254850   4.615   0.865   2.511  2.1924  0.7210 -0.8247
10219TIP3   OH254851   1.161   1.404   1.274 -0.4517 -0.1196 -0.3737
10219TIP3    H154852   1.217   1.479   1.296 -1.1016  0.1661  0.3365
10219TIP3    H254853   1.206   1.361   1.201  0.8517 -0.0563  0.3602
10220TIP3   OH254854   5.330   6.255   2.466  0.3297  0.3486 -0.1380
10220TIP3    H154855   5.303   6.165   2.448 -0.7044  0.4482  0.7957
10220TIP3    H254856   5.412   6.266   2.418 -0.3516 -0.5656 -1.5610
10221TIP3   OH254857   4.794   3.244   1.746 -0.3761 -0.0542  0.7163
10221TIP3    H154858   4.779   3.150   1.762  3.3745 -0.4959  2.7932
10221TIP3    H254859   4.852   3.246   1.670  0.0205  0.5313  1.0292
10222TIP3   OH254860   2.994   3.115   1.515  0.0072  0.3404 -0.5087
10222TIP3    H154861   2.901   3.089   1.514 -0.0664  0.5953 -0.4176
10222TIP3    H254862   3.038   3.050   1.460  0.1063 -1.0845  1.1501
10223TIP3   OH254863   2.719   2.472   2.698 -0.4769 -0.5401 -0.1895
10223TIP3    H154864   2.792   2.416   2.725  0.3028 -0.5611 -2.1428
10223TIP3    H254865   2.731   2.552   2.748  1.1207 -0.4306 -0.6649
10224TIP3   OH254866   5.477   6.540   0.687 -1.1002 -0.5642  0.4059
10224TIP3    H154867   5.535   6.603   0.729 -0.5582 -0.6406 -0.2110
10224TIP3    H254868   5.390   6.559   0.722 -0.5981 -0.9397  1.9339
10225TIP3   OH254869   3.276   3.234   3.259  0.2489 -0.3364  0.1353
10225TIP3    H154870   3.206   3.204   3.317 -0.8006  1.2894 -0.2267
10225TIP3    H254871   3.336   3.160   3.255 -0.6693 -1.2387  1.6653
10226TIP3   OH254872   4.491   6.746   2.266  0.3449 -0.1522 -0.4594
10226TIP3    H154873   4.477   6.686   2.193  0.0944 -1.9806  1.0321
10226TIP3    H254874   4.457   6.700   2.342  3.0189  0.5289  1.2803
10227TIP3   OH254875   3.342   0.954   0.495 -0.5977 -0.0225 -0.7277
10227TIP3    H154876   3.345   1.050   0.491 -1.3209  0.1050  0.7706
10227TIP3    H254877   3.313   0.926   0.409 -0.7054  1.1333 -1.0760
10228TIP3   OH254878   2.798   1.163   2.673 -0.0797  0.1088  0.2751
10228TIP3    H154879   2.873   1.210   2.711  0.8285  1.1688 -2.6004
10228TIP3    H254880   2.835   1.081   2.640 -0.4995 -0.0525  0.1941
10229TIP3   OH254881   1.677   3.702   1.500 -0.4131 -0.6714  0.0745
10229TIP3    H154882   1.581   3.693   1.494 -0.7336  1.5914  0.8160
10229TIP3    H254883   1.697   3.684   1.592 -0.4886  1.1401  0.4861
10230TIP3   OH254884   6.279   3.037   1.872 -0.2711 -0.8777  0.3731
10230TIP3    H154885   6.229   2.999   1.799 -0.1575  1.0738 -0.7842
10230TIP3    H254886   6.216   3.095   1.916  0.2880 -0.3059  0.4268
10231TIP3   OH254887   6.679   4.261   1.470  0.9514 -0.8135  0.1014
10231TIP3    H154888   6.715   4.212   1.544  0.8575 -0.9016  0.0892
10231TIP3    H254889   6.593   4.289   1.500  1.1891 -0.2599  0.2770
10232TIP3   OH254890   3.504   6.515   1.025  0.2201 -0.8752 -0.0497
10232TIP3    H154891   3.545   6.536   1.109  0.9143  0.3405 -0.6706
10232TIP3    H254892   3.418   6.557   1.029  0.6855  0.1483 -0.3555
10233TIP3   OH254893   4.556   2.171   1.861 -0.2107 -0.4806  0.4282
10233TIP3    H154894   4.491   2.199   1.797 -0.5904 -0.4627  0.8161
10233TIP3    H254895   4.640   2.183   1.817 -0.5046 -1.3718 -0.4149
10234TIP3   OH254896   2.491   2.473   1.297  0.2116  0.5482 -0.8394
10234TIP3    H154897   2.433   2.401   1.268  0.8018 -0.0590 -0.5431
10234TIP3    H254898   2.448   2.508   1.375  0.0293  0.3612 -0.8538
10235TIP3   OH254899   2.736   0.235   0.992  0.1248 -0.5400  0.2254
10235TIP3    H154900   2.813   0.286   1.016 -0.5463  1.5596 -1.7165
10235TIP3    H254901   2.767   0.173   0.927  0.4187 -0.5946  0.4186
10236TIP3   OH254902   3.140   3.458   0.617 -0.3950 -0.0828  0.0898
10236TIP3    H154903   3.227   3.462   0.576 -0.8177  0.2911 -0.7834
10236TIP3    H254904   3.122   3.364   0.625  0.1772 -0.1645  0.4677
10237TIP3   OH254905   4.283   1.913   3.161  0.4695 -0.6250  0.2800
10237TIP3    H154906   4.321   1.953   3.239  0.6938 -1.1104  0.4199
10237TIP3    H254907   4.358   1.890   3.106  0.4436 -2.3802  0.9418
10238TIP3   OH254908   1.451   0.760   4.503 -0.2451  0.6369 -0.0990
10238TIP3    H154909   1.380   0.718   4.456  1.0233 -1.1818 -0.4725
10238TIP3    H254910   1.511   0.689   4.525  0.9620  1.9655  1.1136
10239TIP3   OH254911   6.616   3.914   2.530 -0.0151 -0.7567  0.7002
10239TIP3    H154912   6.583   3.824   2.541  0.3143 -1.0959 -0.9416
10239TIP3    H254913   6.551   3.957   2.475  0.1341 -0.1510  0.9894
10240TIP3   OH254914   2.606   1.987   1.070  0.4302  0.2183  0.2529
10240TIP3    H154915   2.562   2.073   1.067 -1.8697 -0.8989 -0.3303
10240TIP3    H254916   2.692   2.003   1.032 -0.4994  1.9705 -1.3118
10241TIP3   OH254917   3.761   5.869   0.468 -0.7885 -0.4114  0.5313
10241TIP3    H154918   3.807   5.854   0.385 -0.8694  0.2204  0.3633
10241TIP3    H254919   3.816   5.828   0.534  1.2817  2.2604  0.6573
10242TIP3   OH254920   3.975   6.570   2.045  0.6839  0.0106 -0.6507
10242TIP3    H154921   4.041   6.639   2.042 -0.7402  1.5479  0.8787
10242TIP3    H254922   3.946   6.568   2.136  0.1099 -2.0888 -0.8248
10243TIP3   OH254923   5.125   5.317   2.775  0.4709  0.1554 -0.2797
10243TIP3    H154924   5.206   5.302   2.726 -0.0196 -0.3239 -0.9613
10243TIP3    H254925   5.126   5.411   2.794  1.9693 -0.0990  1.1367
10244TIP3   OH254926   6.789   6.080   0.677 -0.0971 -0.1368 -0.2916
10244TIP3    H154927   6.819   6.053   0.591  0.3794 -0.9301  0.1193
10244TIP3    H254928   6.697   6.103   0.664 -0.2154 -0.9060 -0.8735
10245TIP3   OH254929   3.028   0.599   1.908  0.3749 -0.1413  0.2680
10245TIP3    H154930   3.079   0.650   1.846  0.9963 -0.2553  0.6677
10245TIP3    H254931   2.985   0.532   1.855 -0.5975  0.9086 -0.2756
10246TIP3   OH254932   0.796   5.786   2.227 -0.0717  0.0436  0.4643
10246TIP3    H154933   0.886   5.814   2.243 -0.2135  0.4039  0.6643
10246TIP3    H254934   0.764   5.846   2.159 -0.2689  0.1469  0.6457
10247TIP3   OH254935   0.647   1.664   1.896 -0.1620  0.0307 -0.5766
10247TIP3    H154936   0.628   1.754   1.921  1.5974  0.2226  0.2215
10247TIP3    H254937   0.649   1.665   1.801 -2.2283  0.3429 -0.6607
10248TIP3   OH254938   5.939   2.848   0.695 -0.5851 -0.2605 -0.0848
10248TIP3    H154939   5.860   2.867   0.644 -0.4955 -0.1931 -0.2008
10248TIP3    H254940   5.914   2.863   0.786 -0.6933 -0.1941 -0.1256
10249TIP3   OH254941   2.585   3.296   2.279 -0.2352 -0.2431 -0.0759
10249TIP3    H154942   2.624   3.270   2.362  1.4066 -0.4488 -0.8708
10249TIP3    H254943   2.535   3.375   2.299  1.4159  0.6226  0.8386
10250TIP3   OH254944   0.297   3.543   2.045  0.0142  0.1709  0.3180
10250TIP3    H154945   0.258   3.488   1.978  0.0660 -1.2070  1.3828
10250TIP3    H254946   0.389   3.516   2.048  0.0168  0.2371  0.9386
10251TIP3   OH254947   3.902   6.204   3.276 -0.2984  0.2526 -0.0570
10251TIP3    H154948   3.951   6.140   3.224 -0.6735 -0.2569  0.2124
10251TIP3    H254949   3.944   6.203   3.362 -0.7649 -0.1746  0.1700
10252TIP3   OH254950   3.633   5.732   0.969  0.4888  0.6379  0.5163
10252TIP3    H154951   3.547   5.702   1.000 -0.2869  0.9134 -1.1957
10252TIP3    H254952   3.695   5.700   1.034 -0.6217 -1.8849  0.4502
10253TIP3   OH254953   1.080   0.725   3.014 -0.4430  0.3763 -0.1795
10253TIP3    H154954   1.094   0.815   3.043  0.7443 -0.0196  0.5500
10253TIP3    H254955   1.110   0.725   2.923  1.0048  0.3937  0.2704
10254TIP3   OH254956   6.031   0.635   1.252 -0.5018  0.2072 -0.4428
10254TIP3    H154957   6.038   0.561   1.313  0.1734  1.9355  1.7355
10254TIP3    H254958   6.091   0.614   1.181 -0.7089 -1.5545 -0.1314
10255TIP3   OH254959   2.900   3.785   3.353  0.7456  0.2336  0.5725
10255TIP3    H154960   2.867   3.860   3.403  0.3596 -0.2111  1.0000
10255TIP3    H254961   2.851   3.788   3.270  1.9013  1.3838 -0.0833
10256TIP3   OH254962   3.209   1.896   3.241  0.4291  0.7529 -0.0740
10256TIP3    H154963   3.172   1.933   3.161 -3.6124 -1.2074  0.6297
10256TIP3    H254964   3.254   1.816   3.212 -0.1531  0.5707 -0.4761
10257TIP3   OH254965   0.648   6.227   2.033  0.5622  0.3290  0.0322
10257TIP3    H154966   0.576   6.197   2.089  1.0662 -1.4742 -0.2154
10257TIP3    H254967   0.720   6.242   2.094  0.0600  1.9709  0.2603
10258TIP3   OH254968   3.717   5.641   1.263  0.0074  0.2795 -0.2296
10258TIP3    H154969   3.621   5.648   1.267 -0.0040 -0.4347  1.0292
10258TIP3    H254970   3.736   5.550   1.287  0.9404 -0.0465 -1.9990
10259TIP3   OH254971   3.910   4.852   2.375  0.2900  0.0495  0.1767
10259TIP3    H154972   4.006   4.855   2.370  0.3090 -1.2565 -0.5983
10259TIP3    H254973   3.881   4.932   2.331  1.0370  1.4850  2.1651
10260TIP3   OH254974   4.954   1.306   1.620  0.2281 -0.4131  0.2729
10260TIP3    H154975   5.000   1.371   1.565 -1.4525  1.4149  0.8998
10260TIP3    H254976   4.908   1.250   1.558  1.1563 -0.5877 -0.2718
10261TIP3   OH254977   5.271   5.307   2.177 -0.7697 -0.2132  0.5534
10261TIP3    H154978   5.306   5.375   2.120 -1.4855 -1.4814 -1.5175
10261TIP3    H254979   5.186   5.340   2.204  0.4557  1.3676  2.8158
10262TIP3   OH254980   0.968   3.993   3.954  0.0976  0.5164  0.3880
10262TIP3    H154981   1.044   4.033   3.912  0.0587  0.5593  0.3583
10262TIP3    H254982   1.002   3.956   4.035  0.8651 -2.4773 -1.1949
10263TIP3   OH254983   0.831   6.120   1.362  0.4442 -0.4449  0.2544
10263TIP3    H154984   0.767   6.162   1.420  1.1321  0.0853  0.6350
10263TIP3    H254985   0.779   6.089   1.287 -0.5129 -1.4075  1.2752
10264TIP3   OH254986   0.112   5.668   1.582  0.0336  0.3246 -0.3108
10264TIP3    H154987   0.100   5.687   1.489  0.2276  1.5120 -0.1118
10264TIP3    H254988   0.207   5.655   1.591  0.0963  0.8609 -0.1720
10265TIP3   OH254989   5.237   3.416   1.398  0.0974 -0.0067 -0.4626
10265TIP3    H154990   5.227   3.506   1.366  1.4981  0.3038 -0.1327
10265TIP3    H254991   5.331   3.409   1.419  0.1165 -1.7119 -0.9809
10266TIP3   OH254992   4.938   0.885   2.414 -0.3574 -0.1648  0.3869
10266TIP3    H154993   4.969   0.873   2.504 -0.6770  1.4479  0.7382
10266TIP3    H254994   4.848   0.851   2.415 -0.7656  0.8858  0.9957
10267TIP3   OH254995   1.850   3.463   2.362  0.2496  0.5166  0.1590
10267TIP3    H154996   1.822   3.443   2.452  0.8668  0.2270  0.2928
10267TIP3    H254997   1.805   3.545   2.341 -1.9467 -0.6902 -0.2142
10268TIP3   OH254998   1.818   1.797   3.624 -0.1593  0.2668  0.1344
10268TIP3    H154999   1.792   1.766   3.537 -0.4477  0.7517  0.0454
10268TIP3    H255000   1.810   1.720   3.680 -2.3021  0.4734  0.2199
10269TIP3   OH255001   5.052   5.094   1.222 -0.3034 -0.2313 -0.5380
10269TIP3    H155002   5.079   5.183   1.201  1.0193  0.6494  3.8099
10269TIP3    H255003   5.134   5.045   1.231 -0.7212 -0.6996  1.1714
10270TIP3   OH255004   3.359   4.797   2.412 -0.4030 -0.2087  0.2502
10270TIP3    H155005   3.340   4.774   2.320 -2.8666  1.0334  0.3650
10270TIP3    H255006   3.454   4.798   2.417 -0.1952 -0.7817 -2.1721
10271TIP3   OH255007   6.640   4.129   1.233  0.7020 -0.1356  0.5601
10271TIP3    H155008   6.666   4.168   1.316  2.1541 -1.2628  0.6974
10271TIP3    H255009   6.664   4.036   1.242 -0.4097 -0.5704 -0.6064
10272TIP3   OH255010   1.606   1.856   2.578  0.5342  0.1182 -1.0186
10272TIP3    H155011   1.544   1.898   2.519  1.0070 -0.6192 -2.0791
10272TIP3    H255012   1.667   1.925   2.603 -1.3994  1.1869  1.0946
10273TIP3   OH255013   0.150   5.507   1.972 -0.1335 -0.2217  0.4633
10273TIP3    H155014   0.109   5.425   1.945  2.8802 -1.8831  0.4928
10273TIP3    H255015   0.144   5.506   2.068 -1.9494  0.7249  0.4108
10274TIP3   OH255016   4.380   2.502   2.766  0.4851 -0.3154 -0.7140
10274TIP3    H155017   4.463   2.546   2.752  0.7243 -0.2323  0.8676
10274TIP3    H255018   4.389   2.458   2.850 -2.1453  2.3628  1.1741
10275TIP3   OH255019   1.594   6.811   3.473  0.1415  0.0003  0.5282
10275TIP3    H155020   1.640   6.888   3.506  0.0274  0.2651  0.0798
10275TIP3    H255021   1.575   6.759   3.551  0.0153  0.5373  0.8575
10276TIP3   OH255022   3.084   4.982   1.788 -0.6438  0.1628  0.4712
10276TIP3    H155023   3.052   4.951   1.873 -1.1815 -1.0233 -0.1323
10276TIP3    H255024   3.104   5.074   1.801 -2.6629  0.5140  1.3578
10277TIP3   OH255025   2.874   4.937   0.599  0.0566  0.1626 -0.0624
10277TIP3    H155026   2.780   4.940   0.613  0.0865 -0.3201  0.2670
10277TIP3    H255027   2.898   5.027   0.577 -0.1147  0.8548  2.2882
10278TIP3   OH255028   3.169   2.246   2.348 -0.2529  0.3155 -0.0543
10278TIP3    H155029   3.161   2.153   2.370 -1.5396  0.4252  0.0300
10278TIP3    H255030   3.107   2.259   2.276 -0.2125  1.1312  0.0497
10279TIP3   OH255031   2.946   4.276   2.969 -0.5056 -0.2395  0.2163
10279TIP3    H155032   2.921   4.203   2.912  2.0264 -0.7493 -0.3850
10279TIP3    H255033   2.897   4.261   3.050 -2.5163 -0.7373 -1.0165
10280TIP3   OH255034   4.262   6.603   3.421 -0.0006  0.4608 -0.1175
10280TIP3    H155035   4.253   6.697   3.407 -0.9273  0.2567 -1.0196
10280TIP3    H255036   4.261   6.566   3.333 -2.0437 -0.5655  0.2800
10281TIP3   OH255037   5.063   3.249   1.256 -0.0802 -0.3523  0.4780
10281TIP3    H155038   4.974   3.260   1.288 -0.2707  0.0685 -0.1845
10281TIP3    H255039   5.114   3.314   1.305 -0.0189 -1.0119  1.3029
10282TIP3   OH255040   5.041   3.992   2.458  0.2460 -0.1437 -0.1331
10282TIP3    H155041   5.071   3.902   2.447 -1.8716 -0.6966 -2.1346
10282TIP3    H255042   5.079   4.040   2.385  1.1471  0.5720  0.7723
10283TIP3   OH255043   5.922   5.313   2.659  0.1100 -0.0135 -0.3185
10283TIP3    H155044   5.955   5.398   2.628 -0.6624  0.2488 -0.4492
10283TIP3    H255045   5.996   5.274   2.705  0.5275  0.6624 -0.3974
10284TIP3   OH255046   1.362   0.617   3.173  0.4122  0.1081  0.2249
10284TIP3    H155047   1.437   0.558   3.178  0.7867  0.3893 -1.4142
10284TIP3    H255048   1.340   0.620   3.080 -0.7039  1.1714  0.4983
10285TIP3   OH255049   3.566   4.765   1.641 -0.4828 -0.2054 -0.0556
10285TIP3    H155050   3.600   4.838   1.590 -0.7205  0.2218  0.3855
10285TIP3    H255051   3.472   4.782   1.647 -0.8231 -1.4339 -1.3677
10286TIP3   OH255052   2.097   2.797   1.190 -0.0860 -0.1769  0.3829
10286TIP3    H155053   2.149   2.785   1.269  0.0796  0.7548  0.4286
10286TIP3    H255054   2.141   2.745   1.123  1.4829  1.3066  0.1792
10287TIP3   OH255055   4.999   5.568   1.038 -0.0522  0.1024 -0.3098
10287TIP3    H155056   4.922   5.621   1.019 -0.9793 -1.1438 -0.1379
10287TIP3    H255057   5.020   5.526   0.954 -1.4279 -1.9054  0.2862
10288TIP3   OH255058   1.059   2.109   2.477  0.3154 -0.3175 -0.1865
10288TIP3    H155059   1.129   2.086   2.539  1.3004 -2.2254 -1.8538
10288TIP3    H255060   0.980   2.070   2.514  0.2618  1.0819  1.2731
10289TIP3   OH255061   2.079   2.123   1.321 -0.7333  0.6034 -0.2113
10289TIP3    H155062   2.158   2.176   1.322 -0.8820  0.8192  0.3920
10289TIP3    H255063   2.111   2.033   1.327 -0.4609  0.5826 -1.6950
10290TIP3   OH255064   2.129   6.301   1.166  0.1080  0.2400 -0.8924
10290TIP3    H155065   2.199   6.278   1.105  2.0484  1.5844  0.6530
10290TIP3    H255066   2.094   6.383   1.133 -0.8408 -0.4894 -1.7275
10291TIP3   OH255067   6.152   1.159   2.863  0.0293  0.2898  0.3549
10291TIP3    H155068   6.240   1.160   2.826 -0.4622  2.1923 -0.8784
10291TIP3    H255069   6.159   1.215   2.941 -0.0383  0.2815  0.3667
10292TIP3   OH255070   0.229   2.596   3.283  0.7774  0.2255  0.1910
10292TIP3    H155071   0.287   2.523   3.302  1.3089  0.4507 -0.5176
10292TIP3    H255072   0.198   2.579   3.194  1.2056  1.0458 -0.1241
10293TIP3   OH255073   0.770   3.688   2.162 -0.2005  0.5080  0.3000
10293TIP3    H155074   0.764   3.678   2.067 -0.1358 -0.1907  0.3705
10293TIP3    H255075   0.697   3.746   2.184  0.0922  1.1010 -0.2349
10294TIP3   OH255076   6.140   3.662   3.392  0.0458  0.1824  0.6161
10294TIP3    H155077   6.232   3.667   3.365  0.0313  0.2726  0.5829
10294TIP3    H255078   6.130   3.574   3.429  0.2154  0.2778  0.8866
10295TIP3   OH255079   2.156   3.679   3.006  0.1630 -0.5683  0.3109
10295TIP3    H155080   2.115   3.628   3.076  1.6140 -1.3481  0.6239
10295TIP3    H255081   2.236   3.631   2.985 -0.1922 -0.3216 -1.8544
10296TIP3   OH255082   3.055   4.841   1.384  0.2131  0.5551 -0.2321
10296TIP3    H155083   2.998   4.864   1.457  1.2374  0.7337  0.5190
10296TIP3    H255084   3.062   4.745   1.388  0.0321  0.5382 -0.2885
10297TIP3   OH255085   3.804   3.588   2.035  0.3717 -0.5429  0.2906
10297TIP3    H155086   3.800   3.494   2.052 -0.9962 -0.3091  1.5127
10297TIP3    H255087   3.795   3.628   2.122  1.3849  0.7305 -0.1500
10298TIP3   OH255088   0.454   4.870   4.219 -0.0685 -0.6941  0.4445
10298TIP3    H155089   0.526   4.824   4.178 -0.2796  1.0130 -2.0563
10298TIP3    H255090   0.388   4.878   4.151 -2.5268 -1.7923  2.5090
10299TIP3   OH255091   2.826   0.207   2.150  0.0206  0.0731 -0.1788
10299TIP3    H155092   2.901   0.254   2.114 -0.4459 -1.6668 -3.9208
10299TIP3    H255093   2.862   0.146   2.214  1.1400  2.1856  1.3323
10300TIP3   OH255094   6.297   0.010   0.521 -0.2252 -0.4362 -0.8419
10300TIP3    H155095   6.215  -0.039   0.514  0.1381 -0.8632 -2.2574
10300TIP3    H255096   6.365  -0.052   0.497  0.5192 -0.0500  0.2128
10301TIP3   OH255097   6.436   2.228   3.731  0.2037  0.4778 -0.0826
10301TIP3    H155098   6.455   2.193   3.819 -2.3908 -0.6500  0.1333
10301TIP3    H255099   6.500   2.297   3.719  0.8903  0.4391  2.5769
10302TIP3   OH255100   3.022   6.426   1.394 -0.1472  0.6225 -0.4729
10302TIP3    H155101   3.034   6.377   1.476  0.2481  1.1065 -0.2378
10302TIP3    H255102   2.927   6.425   1.380 -0.2450  0.7804  0.1413
10303TIP3   OH255103   4.089   0.464   0.765  0.3086 -0.0723  0.2515
10303TIP3    H155104   4.119   0.532   0.705 -1.7137  0.2514 -0.4446
10303TIP3    H255105   4.026   0.508   0.822 -0.5861 -1.2010  0.1827
10304TIP3   OH255106   4.442   2.233   0.694  0.5947  0.3741  0.0260
10304TIP3    H155107   4.358   2.229   0.647  1.2101  1.0225 -1.1535
10304TIP3    H255108   4.458   2.142   0.720 -0.3065  0.1844 -0.0248
10305TIP3   OH255109   3.059   1.331   2.076 -0.2267 -0.2568  0.0467
10305TIP3    H155110   3.001   1.285   2.137 -0.6246  0.7377  0.4325
10305TIP3    H255111   3.059   1.276   1.998  1.4555 -2.3504  1.4028
10306TIP3   OH255112   1.579   4.901   1.893  0.2406  0.5208  0.4061
10306TIP3    H155113   1.623   4.908   1.978 -0.2809  1.8650  0.5905
10306TIP3    H255114   1.505   4.961   1.899 -0.6086 -0.3932 -0.5253
10307TIP3   OH255115   1.642   2.942   2.552 -0.1871  0.2687 -0.2174
10307TIP3    H155116   1.663   2.900   2.635 -1.1969 -1.8626 -0.9603
10307TIP3    H255117   1.720   2.928   2.497 -0.3244 -0.2134 -0.2946
10308TIP3   OH255118   1.026   3.462   2.742  0.0357  0.3659 -0.3916
10308TIP3    H155119   0.970   3.413   2.802  0.7104 -0.7347 -0.6533
10308TIP3    H255120   1.038   3.404   2.667  2.8796 -0.1415  0.3585
10309TIP3   OH255121   5.222   2.210   2.444  0.0368  0.3941  0.7715
10309TIP3    H155122   5.144   2.183   2.491 -0.3492 -0.3072 -0.2402
10309TIP3    H255123   5.243   2.296   2.480 -3.8627  2.8180 -1.9708
10310TIP3   OH255124   5.235   3.261   0.732  0.1436  0.1781 -0.4087
10310TIP3    H155125   5.246   3.181   0.783  0.1600  0.7940  0.5849
10310TIP3    H255126   5.296   3.252   0.659  3.6267  1.2658  2.1291
10311TIP3   OH255127   1.241   6.475   3.365 -0.1468 -0.2774  0.0143
10311TIP3    H155128   1.281   6.546   3.414 -2.3235  1.4692 -0.6124
10311TIP3    H255129   1.262   6.396   3.416  1.5839  0.8672  1.1877
10312TIP3   OH255130   5.881   5.289   2.306  0.2037 -0.6514 -0.1433
10312TIP3    H155131   5.835   5.222   2.256  0.6308 -1.2100  0.1937
10312TIP3    H255132   5.928   5.240   2.373  0.6885 -0.0276 -0.0198
10313TIP3   OH255133   5.204   1.597   1.908  0.4126 -0.2736  0.5043
10313TIP3    H155134   5.294   1.567   1.918  0.7652 -0.2742 -2.0245
10313TIP3    H255135   5.203   1.683   1.949  0.9835 -1.0798  2.3489
10314TIP3   OH255136   1.604   1.581   2.495 -0.1890 -0.4344  0.2423
10314TIP3    H155137   1.632   1.541   2.577  0.4863 -1.8836 -0.6625
10314TIP3    H255138   1.627   1.674   2.504  2.5142 -1.0793  0.6060
10315TIP3   OH255139   2.540   0.679   3.156 -0.2685 -0.4839  0.4482
10315TIP3    H155140   2.544   0.720   3.070 -0.5742 -1.1507  0.1094
10315TIP3    H255141   2.631   0.657   3.177  0.1813  2.1056  1.5103
10316TIP3   OH255142   6.374   3.122   1.523 -0.3114 -0.0030 -0.0866
10316TIP3    H155143   6.386   3.214   1.501  0.5724 -0.3208 -1.0590
10316TIP3    H255144   6.283   3.103   1.501  0.2708 -0.0635 -2.7907
10317TIP3   OH255145   2.292   0.834   2.646 -0.0207  0.4792  0.3070
10317TIP3    H155146   2.328   0.912   2.687  0.4338 -0.4595  1.7793
10317TIP3    H255147   2.254   0.784   2.718 -0.4116 -0.6031 -0.6090
10318TIP3   OH255148   6.300   0.705   3.718  0.7633  0.1191  0.2127
10318TIP3    H155149   6.243   0.735   3.648  1.4116  1.3517  0.1800
10318TIP3    H255150   6.362   0.646   3.675  0.4868  0.0087 -0.0375
10319TIP3   OH255151   2.749   4.556   3.136 -0.3475  0.5067  0.2934
10319TIP3    H155152   2.805   4.634   3.130  1.8153 -0.5492  3.4453
10319TIP3    H255153   2.810   4.486   3.161 -2.7662 -1.2368  1.7113
10320TIP3   OH255154   1.803   4.545   2.640 -0.9519  0.1439  0.5415
10320TIP3    H155155   1.780   4.503   2.723 -0.7642 -1.9214 -0.3874
10320TIP3    H255156   1.780   4.480   2.574  1.7480  0.4486 -0.8223
10321TIP3   OH255157   2.069   4.400   3.445  0.1457 -0.5590 -0.0081
10321TIP3    H155158   2.021   4.433   3.370  0.0026 -0.1163  0.2747
10321TIP3    H255159   2.064   4.470   3.510  2.0484 -0.0376 -0.3374
10322TIP3   OH255160   5.499   1.086   2.197 -0.5206 -0.2889 -0.2075
10322TIP3    H155161   5.506   1.171   2.154  1.2238 -0.3507 -0.1123
10322TIP3    H255162   5.572   1.035   2.160  1.5648 -0.1118  3.2454
10323TIP3   OH255163   2.823   6.689   2.415 -0.3174  0.1079  0.1589
10323TIP3    H155164   2.797   6.600   2.389 -1.2120 -0.5697  3.0635
10323TIP3    H255165   2.771   6.708   2.493 -0.6376  3.4954 -0.7314
10324TIP3   OH255166   6.698   4.104   3.364  0.1122 -0.5416  0.1996
10324TIP3    H155167   6.784   4.147   3.356 -0.5319  0.4940 -1.6871
10324TIP3    H255168   6.714   4.013   3.338  0.8953 -0.7466  1.3059
10325TIP3   OH255169   4.324   5.633   2.021 -0.2433 -0.2232 -0.8096
10325TIP3    H155170   4.268   5.642   1.943  0.3209  0.6310 -1.1221
10325TIP3    H255171   4.372   5.715   2.026 -0.1861 -0.3098  0.3889
10326TIP3   OH255172   1.118   0.497   1.919 -0.0478 -0.3640  0.0541
10326TIP3    H155173   1.058   0.571   1.920  0.4904  0.0867 -0.5824
10326TIP3    H255174   1.201   0.532   1.886  0.3746 -1.1247  0.2576
10327TIP3   OH255175   3.061   2.542   0.811 -0.0226 -0.2755  0.1698
10327TIP3    H155176   3.129   2.601   0.843  1.0749 -0.0234 -2.4388
10327TIP3    H255177   3.103   2.492   0.741 -2.3549 -0.5197 -1.1654
10328TIP3   OH255178   1.331   3.467   1.339 -0.5082  0.7711  0.4212
10328TIP3    H155179   1.240   3.437   1.335 -1.1490  2.5326  0.6330
10328TIP3    H255180   1.353   3.467   1.432  0.3042 -1.1563  0.2867
10329TIP3   OH255181   3.268   5.230   3.382 -0.2038 -0.1191 -0.0195
10329TIP3    H155182   3.224   5.178   3.314 -1.5135  1.0466 -0.1110
10329TIP3    H255183   3.248   5.321   3.359  1.2100  0.3953  0.6860
10330TIP3   OH255184   4.299   1.625   2.869  0.2093 -0.0680 -0.1372
10330TIP3    H155185   4.295   1.539   2.911  0.6073 -0.6045 -1.1742
10330TIP3    H255186   4.232   1.676   2.914 -0.5654 -1.1503 -0.0189
10331TIP3   OH255187   2.766   5.267   0.999  0.2271 -0.2562 -0.1356
10331TIP3    H155188   2.701   5.202   1.026 -0.7471  1.0090  0.6600
10331TIP3    H255189   2.829   5.217   0.947 -1.5183 -1.4600 -1.1918
10332TIP3   OH255190   2.209   4.043   0.852 -0.1841  0.0773  0.1612
10332TIP3    H155191   2.294   4.076   0.882  0.0185  0.1803 -0.5115
10332TIP3    H255192   2.181   3.984   0.922  0.9470 -0.8102 -0.0968
10333TIP3   OH255193   5.877   1.919   1.790  0.1310  0.3272  0.0935
10333TIP3    H155194   5.822   1.894   1.717  1.5907 -2.6514 -0.1225
10333TIP3    H255195   5.832   1.994   1.830 -1.9195  0.5343 -2.3712
10334TIP3   OH255196   5.197   0.129   3.003  0.5972 -0.0433 -0.1062
10334TIP3    H155197   5.264   0.144   3.069 -0.8121  1.4952  1.0391
10334TIP3    H255198   5.127   0.083   3.049  0.1994 -0.2884 -0.9193
10335TIP3   OH255199   5.504   2.921   0.669  0.7948  0.1219  0.0112
10335TIP3    H155200   5.598   2.905   0.676  0.6384 -1.6926 -1.3220
10335TIP3    H255201   5.465   2.834   0.667 -0.7210  0.7803 -1.6173
10336TIP3   OH255202   0.024   5.194   0.654  0.1887  0.0103  0.0147
10336TIP3    H155203   0.075   5.168   0.577  0.5697 -0.6702  0.4857
10336TIP3    H255204   0.088   5.235   0.712  0.4490 -1.7094  1.0254
10337TIP3   OH255205   1.230   2.658   3.857 -0.3296 -0.2493 -0.2012
10337TIP3    H155206   1.186   2.618   3.931  0.9787 -1.1441  0.1238
10337TIP3    H255207   1.214   2.752   3.867 -1.0591 -0.4542  0.5986
10338TIP3   OH255208   0.754   3.762   0.772 -0.1839  0.1134  0.0596
10338TIP3    H155209   0.747   3.666   0.774 -0.9328  0.0724 -2.0134
10338TIP3    H255210   0.670   3.793   0.805 -1.1065 -0.0481 -1.9516
10339TIP3   OH255211   1.051   5.919   2.246  0.5531  0.0749  0.6687
10339TIP3    H155212   1.047   5.923   2.150 -0.2494  0.5013  0.7088
10339TIP3    H255213   1.140   5.947   2.268  0.7610 -0.0814  0.0516
10340TIP3   OH255214   2.660   1.378   2.174 -0.2778  0.0333 -0.0462
10340TIP3    H155215   2.717   1.385   2.251  0.2316  1.2943 -0.5079
10340TIP3    H255216   2.653   1.468   2.141 -1.3215 -0.3327 -0.8795
10341TIP3   OH255217   1.034   1.704   1.686  0.2290  0.2051 -0.1975
10341TIP3    H155218   1.028   1.655   1.768  0.0408  1.7831  0.7739
10341TIP3    H255219   1.092   1.778   1.706 -1.5629  1.8772 -0.7917
10342TIP3   OH255220   3.323   6.044   1.265 -0.4006  0.1836 -0.2700
10342TIP3    H155221   3.305   6.133   1.294  1.9865  1.2717 -1.8029
10342TIP3    H255222   3.367   6.003   1.340 -2.2324 -0.0328  0.7345
10343TIP3   OH255223   0.067   0.485   1.828 -0.2620 -0.5646  0.5608
10343TIP3    H155224   0.078   0.579   1.809 -1.9823 -0.5343 -0.4971
10343TIP3    H255225   0.116   0.471   1.909 -0.5431  1.4046  1.1198
10344TIP3   OH255226   3.677   5.690   2.458 -0.2319 -0.0193  0.2253
10344TIP3    H155227   3.653   5.714   2.548 -1.7841 -0.8438  0.0526
10344TIP3    H255228   3.595   5.694   2.409  0.5006 -0.1258 -1.0525
10345TIP3   OH255229   1.216   5.951   1.551 -0.3601  0.2379  0.0361
10345TIP3    H155230   1.141   6.010   1.566 -0.9993 -0.3022 -0.8861
10345TIP3    H255231   1.285   5.984   1.608 -0.8469  1.6212 -0.1376
10346TIP3   OH255232   4.471   4.410   3.662  0.0509  0.1601  0.4702
10346TIP3    H155233   4.475   4.436   3.754  1.1407  1.8986 -0.0114
10346TIP3    H255234   4.383   4.434   3.634 -0.0473  0.2796  0.8748
10347TIP3   OH255235   5.208   5.520   2.955 -0.2392 -0.0168 -0.4147
10347TIP3    H155236   5.218   5.614   2.968  1.7457 -0.1053 -0.9770
10347TIP3    H255237   5.153   5.491   3.028  1.2951  1.1953  1.3141
10348TIP3   OH255238   2.818   0.621   3.052  0.7483 -0.1763 -0.4910
10348TIP3    H155239   2.808   0.584   2.964 -1.5580 -0.3303 -0.2272
10348TIP3    H255240   2.874   0.697   3.040  3.1932 -1.9919 -1.5374
10349TIP3   OH255241   3.881   2.831   3.449  0.0452 -0.2168 -0.2758
10349TIP3    H155242   3.905   2.739   3.455  3.4955  0.5961  1.2006
10349TIP3    H255243   3.892   2.864   3.538 -0.6110  1.7225 -0.8652
10350TIP3   OH255244   3.341   2.383   2.844  0.0653 -0.0146  0.3572
10350TIP3    H155245   3.363   2.473   2.821  0.5945  0.5695  2.8042
10350TIP3    H255246   3.256   2.390   2.889 -2.0097 -1.3563 -2.9184
10351TIP3   OH255247   3.456   3.110   1.637 -0.0204 -1.1068  0.0719
10351TIP3    H155248   3.382   3.140   1.690  0.0805  0.1289 -0.4721
10351TIP3    H255249   3.415   3.059   1.567 -0.2955 -1.0612  0.1972
10352TIP3   OH255250   0.231   1.296   3.136  0.0886 -0.4241 -0.0300
10352TIP3    H155251   0.281   1.372   3.165 -0.7388  1.0048 -2.1727
10352TIP3    H255252   0.246   1.291   3.042 -2.4536 -0.9406 -0.4657
10353TIP3   OH255253   1.789   1.188   2.987 -0.2328 -0.1975  0.5062
10353TIP3    H155254   1.866   1.227   2.946  0.4424  0.8461  2.6361
10353TIP3    H255255   1.735   1.159   2.913  1.7807 -0.2114 -1.0642
10354TIP3   OH255256   4.180   0.675   1.136  0.8279 -0.3625 -0.0820
10354TIP3    H155257   4.221   0.741   1.080  0.9167  0.3667  0.8058
10354TIP3    H255258   4.137   0.615   1.075 -0.6362  1.4092 -0.9050
10355TIP3   OH255259   5.892   2.902   0.979  0.5082  0.3986 -0.4658
10355TIP3    H155260   5.875   2.938   1.066  2.4494 -1.5847  0.8529
10355TIP3    H255261   5.868   2.809   0.987 -0.4292  0.4240 -2.4552
10356TIP3   OH255262   1.186   6.284   1.576 -0.1154 -0.3372 -0.4184
10356TIP3    H155263   1.175   6.304   1.669 -0.0751 -0.4105 -0.3975
10356TIP3    H255264   1.260   6.339   1.548  1.6310 -2.2179  0.2259
10357TIP3   OH255265   5.477   5.956   2.263  0.6255  0.1669  0.8305
10357TIP3    H155266   5.434   6.006   2.194  0.3037  0.3291  1.1465
10357TIP3    H255267   5.523   5.886   2.216  2.6315  1.8033  0.2028
10358TIP3   OH255268   3.792   1.789   1.867  0.1082 -0.1872 -0.5323
10358TIP3    H155269   3.779   1.833   1.951 -3.6945 -0.5116 -0.7905
10358TIP3    H255270   3.789   1.696   1.888 -0.5891 -0.2707 -0.9531
10359TIP3   OH255271   3.478   5.711   3.903 -0.2576 -0.0715 -0.2318
10359TIP3    H155272   3.386   5.696   3.881 -0.2486 -0.3423 -0.0916
10359TIP3    H255273   3.480   5.710   3.999 -0.2566  0.8584 -0.2147
10360TIP3   OH255274   6.679   3.708   0.727 -0.0178  0.3382 -0.0722
10360TIP3    H155275   6.594   3.673   0.754 -0.6003  0.3346 -1.8101
10360TIP3    H255276   6.727   3.633   0.694 -0.5768  0.8196 -2.0897
10361TIP3   OH255277   1.870   3.403   2.779  0.1161  0.3862 -0.2875
10361TIP3    H155278   1.824   3.320   2.770 -0.9297  0.9490 -0.3112
10361TIP3    H255279   1.955   3.380   2.817 -0.3036 -0.6455  0.0598
10362TIP3   OH255280   4.746   5.041   2.080  0.0128  0.1568 -0.0465
10362TIP3    H155281   4.696   5.053   2.161  0.1615  0.1518  0.0463
10362TIP3    H255282   4.695   5.087   2.014  0.0905  0.4872  0.1227
10363TIP3   OH255283   0.217   4.680   1.558  0.1743  0.1639  0.2589
10363TIP3    H155284   0.278   4.717   1.622  0.3054  0.1512  0.1388
10363TIP3    H255285   0.272   4.647   1.487  0.0357  0.0550  0.2015
10364TIP3   OH255286   2.987   2.603   3.444 -0.3776  0.4872  0.3263
10364TIP3    H155287   3.057   2.582   3.506 -1.2739  1.3171  1.6778
10364TIP3    H255288   2.928   2.528   3.447  0.3460 -0.1388 -0.6872
10365TIP3   OH255289   6.081   4.684   2.648 -0.4395 -0.3225  0.1218
10365TIP3    H155290   6.080   4.589   2.637  0.5127 -0.1357 -2.1544
10365TIP3    H255291   6.168   4.704   2.681  0.2426 -0.1036 -1.6908
10366TIP3   OH255292   3.253   5.664   3.778  0.0238 -0.2162  0.5990
10366TIP3    H155293   3.216   5.578   3.759 -0.0846 -0.2083  0.7700
10366TIP3    H255294   3.178   5.723   3.778  0.4465  0.5071 -2.9260
10367TIP3   OH255295   0.201   3.734   1.431  0.0783 -0.5734 -0.0622
10367TIP3    H155296   0.202   3.830   1.438 -1.6640 -0.6416  1.9472
10367TIP3    H255297   0.160   3.716   1.346  0.7349  0.4344 -0.6127
10368TIP3   OH255298   3.685   1.602   2.971  0.2380 -0.1346  0.4764
10368TIP3    H155299   3.590   1.590   2.963  0.4309 -0.9505 -1.0391
10368TIP3    H255300   3.703   1.685   2.927  0.2552 -0.0656  0.6119
10369TIP3   OH255301   1.731   3.037   3.561 -0.3753  0.2371  0.0622
10369TIP3    H155302   1.698   3.074   3.479 -1.7347 -0.4556  0.2721
10369TIP3    H255303   1.669   3.067   3.627 -1.0639 -1.7180  0.3565
10370TIP3   OH255304   1.419   0.705   0.699 -0.9905  0.1243 -0.3980
10370TIP3    H155305   1.414   0.617   0.662 -2.5918 -0.3385  0.8052
10370TIP3    H255306   1.329   0.738   0.696 -0.8019  0.8922  1.0418
10371TIP3   OH255307   5.882   1.104   3.032 -0.1962 -0.0928 -0.0175
10371TIP3    H155308   5.955   1.138   3.085 -1.0502  1.7587  0.0287
10371TIP3    H255309   5.925   1.064   2.956  0.9481 -0.9951  1.0514
10372TIP3   OH255310   3.595   1.489   2.175  0.0660 -0.0711 -0.3410
10372TIP3    H155311   3.645   1.568   2.196 -2.8794  1.1657  2.9948
10372TIP3    H255312   3.654   1.417   2.197  0.9657  1.2925  2.1295
10373TIP3   OH255313   1.065   0.965   3.923 -0.3615 -0.2446 -0.2098
10373TIP3    H155314   0.984   0.961   3.974 -0.3582  1.0367 -0.0691
10373TIP3    H255315   1.120   1.027   3.971 -0.5975  1.4992 -2.0765
10374TIP3   OH255316   1.777   3.895   3.255  0.7467  0.5414  0.5139
10374TIP3    H155317   1.783   3.889   3.160  0.5648  1.3281  0.4441
10374TIP3    H255318   1.863   3.867   3.286  0.7974  0.2541  0.1197
10375TIP3   OH255319   0.403   0.738   0.828 -0.4020 -0.1949  0.5372
10375TIP3    H155320   0.467   0.735   0.899  0.5131  0.2517 -0.2435
10375TIP3    H255321   0.402   0.649   0.793 -1.2761 -0.5647  1.4427
10376TIP3   OH255322   4.398   3.636   2.546 -0.0261  0.8051  0.3636
10376TIP3    H155323   4.304   3.651   2.537 -0.1114  0.0313 -0.0805
10376TIP3    H255324   4.419   3.571   2.479  0.6418  0.2226  1.1164
10377TIP3   OH255325   6.069   1.064   2.155 -0.1303  0.1581  0.1803
10377TIP3    H155326   6.111   1.148   2.137  0.1466 -0.3797 -1.9431
10377TIP3    H255327   5.990   1.087   2.205  0.5274  1.5573  0.6286
10378TIP3   OH255328   0.211   3.030   3.478  0.2860 -0.4626  0.4105
10378TIP3    H155329   0.120   3.018   3.505  0.6624 -0.8060  1.6039
10378TIP3    H255330   0.219   3.123   3.458 -0.3928 -0.4864 -0.0212
10379TIP3   OH255331   2.828   2.733   2.807 -0.3313 -0.1590 -0.0089
10379TIP3    H155332   2.799   2.782   2.730  0.8470 -0.9255 -0.9840
10379TIP3    H255333   2.851   2.800   2.871  0.2071  0.5347 -0.9106
10380TIP3   OH255334   5.843   6.150   3.891  0.2440 -0.2075 -0.0403
10380TIP3    H155335   5.880   6.116   3.809 -1.0257 -1.1981 -0.2369
10380TIP3    H255336   5.758   6.185   3.866  0.0688 -0.0292  0.7746
10381TIP3   OH255337   1.296   3.225   2.728  0.4200  0.1058 -0.5984
10381TIP3    H155338   1.349   3.203   2.651 -1.3278  0.7831 -2.0679
10381TIP3    H255339   1.222   3.164   2.724  0.1939  0.2992  0.4410
10382TIP3   OH255340   0.912   2.300   2.250 -0.5109 -0.3011 -0.5522
10382TIP3    H155341   0.892   2.353   2.172 -0.0831  2.2810  0.9861
10382TIP3    H255342   0.828   2.292   2.296 -0.6457 -1.3313 -0.9444
10383TIP3   OH255343   3.718   4.352   2.441 -0.1821 -0.0307  0.2166
10383TIP3    H155344   3.748   4.317   2.524 -1.3313  0.2261  0.7623
10383TIP3    H255345   3.681   4.277   2.395 -0.2579 -0.0299  0.2752
10384TIP3   OH255346   5.067   6.547   3.442  0.8233 -0.7563 -0.7280
10384TIP3    H155347   5.061   6.634   3.481  0.5446 -1.2303  0.3304
10384TIP3    H255348   5.012   6.492   3.498 -0.0497 -1.3617 -2.1388
10385TIP3   OH255349   2.656   4.391   2.628  0.4795 -0.0563  0.0696
10385TIP3    H155350   2.720   4.404   2.698  0.8168  0.2720 -0.2861
10385TIP3    H255351   2.656   4.475   2.581  0.3753 -0.3234 -0.4101
10386TIP3   OH255352   4.520   5.910   3.730 -0.0103 -0.5521 -0.3857
10386TIP3    H155353   4.532   5.955   3.646 -0.6562  0.1830 -0.0984
10386TIP3    H255354   4.608   5.887   3.758  0.7544  3.2170  0.8815
10387TIP3   OH255355   0.053   1.299   2.389 -0.6149 -0.1007  0.0841
10387TIP3    H155356   0.128   1.315   2.332 -0.7810  1.3084  0.2291
10387TIP3    H255357   0.037   1.205   2.381 -0.3395 -0.0263 -1.8118
10388TIP3   OH255358   6.691   0.916   1.591 -0.4559  0.6791  0.0582
10388TIP3    H155359   6.666   0.960   1.673  1.6975  1.0153  0.5999
10388TIP3    H255360   6.764   0.968   1.558  0.3183 -0.8825 -0.7710
10389TIP3   OH255361   3.066   2.191   1.906  0.2729 -0.2282 -0.5414
10389TIP3    H155362   3.038   2.099   1.902 -2.3456  0.4975 -1.4449
10389TIP3    H255363   3.073   2.217   1.814  1.8673  0.2672 -0.3001
10390TIP3   OH255364   0.923   3.130   2.082  0.0281 -0.0909 -0.5379
10390TIP3    H155365   1.007   3.147   2.124  0.7065  1.0225 -2.2476
10390TIP3    H255366   0.911   3.035   2.089  0.1652  0.0176  1.9491
10391TIP3   OH255367   5.848   5.550   1.336  0.7988  0.2856  0.1479
10391TIP3    H155368   5.859   5.497   1.415  0.6472 -0.0741 -0.0703
10391TIP3    H255369   5.898   5.630   1.353  0.0070  0.6232  0.9961
10392TIP3   OH255370   0.552   6.579   2.600  0.1719 -0.3940  0.2557
10392TIP3    H155371   0.569   6.589   2.506 -2.0229 -1.8564 -0.3497
10392TIP3    H255372   0.632   6.540   2.635  1.1469  0.4770 -0.9145
10393TIP3   OH255373   1.173   0.528   1.447  0.2199  0.0045  0.4578
10393TIP3    H155374   1.257   0.483   1.459 -0.6958 -1.5836  1.2393
10393TIP3    H255375   1.112   0.459   1.421 -0.7026  1.2600 -0.9024
10394TIP3   OH255376   1.510   2.161   4.266  0.3625  0.4219  0.4454
10394TIP3    H155377   1.518   2.065   4.264 -0.6205  0.3133  1.0977
10394TIP3    H255378   1.554   2.187   4.347 -0.5600  0.3773  0.9775
10395TIP3   OH255379   4.012   4.976   1.932  0.0848 -0.9161 -0.1861
10395TIP3    H155380   4.027   5.058   1.886 -0.2356 -0.7943 -0.0812
10395TIP3    H255381   3.968   4.920   1.868 -0.3449 -0.7529 -0.0432
10396TIP3   OH255382   2.797   6.682   1.962 -0.0134 -0.3043 -0.6173
10396TIP3    H155383   2.788   6.614   2.028  1.2739 -0.4476 -0.5736
10396TIP3    H255384   2.711   6.687   1.920 -0.5192 -0.9718  0.3216
10397TIP3   OH255385   0.466   1.156   0.841  0.0605  0.3208  0.2117
10397TIP3    H155386   0.427   1.241   0.858 -2.3940 -0.1791 -2.2208
10397TIP3    H255387   0.440   1.102   0.915 -1.0206  0.9062  0.2734
10398TIP3   OH255388   4.753   6.202   3.263  0.1810 -0.3367  0.1246
10398TIP3    H155389   4.682   6.245   3.310 -0.1420  0.1465 -0.7654
10398TIP3    H255390   4.728   6.110   3.258  0.3001 -0.4195  1.0246
10399TIP3   OH255391   6.178   0.588   2.303 -0.1908 -0.1429 -0.8655
10399TIP3    H155392   6.155   0.504   2.343 -2.6172  0.2259 -1.3379
10399TIP3    H255393   6.134   0.653   2.357  1.3703  0.8472 -0.7162
10400TIP3   OH255394   3.140   2.934   1.370 -0.3297  0.6488 -0.7510
10400TIP3    H155395   3.126   2.844   1.342  1.2849 -0.4433  1.6156
10400TIP3    H255396   3.206   2.968   1.308 -1.1875  0.3666 -1.8599
10401TIP3   OH255397   4.129   4.563   3.078  0.0463 -0.1150  0.5572
10401TIP3    H155398   4.154   4.512   3.001  1.2865 -1.1525  1.5881
10401TIP3    H255399   4.051   4.519   3.112  1.1993 -1.5191  1.5306
10402TIP3   OH255400   3.840   3.353   2.415 -1.1166 -0.3692  0.2002
10402TIP3    H155401   3.906   3.420   2.432  0.7307 -0.9308 -3.6822
10402TIP3    H255402   3.756   3.399   2.424 -0.1063  1.3201  1.6700
10403TIP3   OH255403   5.279   6.826   2.747 -0.5785 -0.0944 -0.1330
10403TIP3    H155404   5.296   6.861   2.834  2.9704 -1.2256 -0.2173
10403TIP3    H255405   5.277   6.731   2.759 -2.1403 -0.2009 -1.0262
10404TIP3   OH255406   3.623   2.500   2.934  0.4885  0.1773 -0.2374
10404TIP3    H155407   3.690   2.560   2.902  1.0391 -0.9249 -1.2103
10404TIP3    H255408   3.548   2.556   2.954  1.7606  1.4795  1.1593
10405TIP3   OH255409   5.937   3.177   3.040 -0.1476 -0.6436  0.4549
10405TIP3    H155410   5.962   3.235   2.968 -2.5806  0.5444  0.4648
10405TIP3    H255411   5.970   3.221   3.119 -0.0723 -0.4062  0.2915
10406TIP3   OH255412   1.660   0.925   4.360  0.2190 -0.3052 -0.1884
10406TIP3    H155413   1.634   1.017   4.358 -0.3027 -0.4641 -1.2040
10406TIP3    H255414   1.603   0.886   4.427 -0.2106 -0.0664 -0.4048
10407TIP3   OH255415   5.185   2.476   3.072 -0.1452 -0.1736 -0.1178
10407TIP3    H155416   5.115   2.462   3.136 -0.1788  0.4055 -0.0244
10407TIP3    H255417   5.263   2.437   3.113  0.1298  1.3020  0.8773
10408TIP3   OH255418   0.978   5.526   0.459 -0.0206 -0.0039 -0.1773
10408TIP3    H155419   0.902   5.535   0.401 -0.6479 -0.7456  0.5087
10408TIP3    H255420   0.988   5.432   0.472  0.3559  0.1335  0.5910
10409TIP3   OH255421   6.397   5.650   2.066  0.5930 -0.1324 -0.2955
10409TIP3    H155422   6.397   5.609   1.979 -0.4669 -0.0253 -0.3589
10409TIP3    H255423   6.341   5.594   2.119  1.6450 -0.4822  0.4774
10410TIP3   OH255424   3.906   4.472   2.040 -0.1910 -0.1483 -0.7039
10410TIP3    H155425   3.853   4.516   2.106  1.6613 -0.4305  1.0917
10410TIP3    H255426   3.977   4.533   2.021  1.0605 -1.3192  0.0066
10411TIP3   OH255427   3.064   3.064   1.802  0.1858 -0.1700 -0.4308
10411TIP3    H155428   3.010   3.078   1.725  2.8703  1.0444 -2.2758
10411TIP3    H255429   3.106   2.979   1.787 -1.5318 -1.3717  1.2500
10412TIP3   OH255430   0.897   0.058   2.002 -0.1372  0.5174 -0.3233
10412TIP3    H155431   0.943   0.022   2.078 -0.5593  0.1720 -0.2249
10412TIP3    H255432   0.959   0.120   1.963  0.4841 -0.0876 -0.3135
10413TIP3   OH255433   4.211   0.501   1.833  0.7494  1.0121 -0.4146
10413TIP3    H155434   4.200   0.596   1.824 -1.2428  0.9497  0.8155
10413TIP3    H255435   4.280   0.491   1.898 -0.8118  1.7095  1.4416
10414TIP3   OH255436   1.627   6.222   2.192 -0.2975 -0.3275 -0.0020
10414TIP3    H155437   1.715   6.188   2.176  0.8638  1.7081  1.4416
10414TIP3    H255438   1.608   6.198   2.283  0.2358  1.9698  0.7951
10415TIP3   OH255439   0.994   0.978   1.360 -0.0741  0.6996 -0.0789
10415TIP3    H155440   0.969   1.043   1.425 -3.2602  0.8323 -1.2640
10415TIP3    H255441   0.944   0.900   1.384  0.4237  0.0348 -1.1210
10416TIP3   OH255442   1.545   0.726   2.034 -0.0992 -0.6550 -1.2878
10416TIP3    H155443   1.452   0.746   2.035 -0.0205 -0.2887 -0.5109
10416TIP3    H255444   1.553   0.645   2.084  0.3010  0.8515  1.2561
10417TIP3   OH255445   5.747   2.782   2.488  0.2634  0.7275  0.1738
10417TIP3    H155446   5.657   2.806   2.468 -0.0277 -0.1514  0.3909
10417TIP3    H255447   5.774   2.844   2.556  0.6555  2.5634 -1.5705
10418TIP3   OH255448   1.520   0.122   2.669 -0.2884 -0.3267 -0.1746
10418TIP3    H155449   1.579   0.184   2.626 -0.8552 -0.3302 -0.9666
10418TIP3    H255450   1.467   0.177   2.727  1.1548 -0.4415  1.3428
10419TIP3   OH255451   2.290   6.684   2.998 -0.4659 -0.3127  0.6335
10419TIP3    H155452   2.231   6.706   2.926  1.0472  0.7909 -0.3240
10419TIP3    H255453   2.234   6.685   3.076 -1.3958  2.6155  0.0423
10420TIP3   OH255454   2.544   5.727   1.746  0.3894  0.1468 -0.1083
10420TIP3    H155455   2.468   5.670   1.754  0.3580 -0.0875 -1.7237
10420TIP3    H255456   2.607   5.675   1.695  0.6695  1.2459 -0.9091
10421TIP3   OH255457   0.038   3.568   2.185 -0.0143 -0.7374 -0.9575
10421TIP3    H155458   0.125   3.570   2.146  1.0639 -1.5060  1.2750
10421TIP3    H255459   0.013   3.660   2.192  2.1631 -0.2242  1.5191
10422TIP3   OH255460   5.262   4.833   2.236 -0.0242  0.0215 -0.2945
10422TIP3    H155461   5.288   4.922   2.262  0.8329 -0.2562 -0.1713
10422TIP3    H255462   5.274   4.780   2.314  0.4024 -0.3888 -0.6315
10423TIP3   OH255463   2.968   3.765   1.760  0.1972 -0.1974 -0.1474
10423TIP3    H155464   3.057   3.787   1.734  0.5124 -0.8407  0.3248
10423TIP3    H255465   2.920   3.847   1.756  1.0151  0.3207  0.3728
10424TIP3   OH255466   1.903   4.558   3.249  0.3423  0.4790 -0.1736
10424TIP3    H155467   1.820   4.535   3.208  0.1711 -1.3666  1.0986
10424TIP3    H255468   1.878   4.615   3.322  0.5601  2.8424 -1.8121
10425TIP3   OH255469   0.534   1.531   2.861  0.0769  0.1390 -0.1113
10425TIP3    H155470   0.559   1.622   2.873  0.8734  0.6660 -4.2019
10425TIP3    H255471   0.614   1.481   2.877 -0.3017  0.0706  1.8835
10426TIP3   OH255472   4.398   2.916   1.311  0.4888  0.9594  0.1496
10426TIP3    H155473   4.425   2.830   1.343  1.7804  1.5664  0.8197
10426TIP3    H255474   4.326   2.899   1.251  1.2025 -0.6502 -0.2962
10427TIP3   OH255475   1.577   6.405   1.281  0.3098  0.0088  0.1946
10427TIP3    H155476   1.554   6.478   1.222 -0.0598  0.0288  0.3592
10427TIP3    H255477   1.670   6.390   1.265  0.1228 -0.2472 -0.6852
10428TIP3   OH255478   6.363   1.064   3.296 -0.0932 -0.2273 -0.2628
10428TIP3    H155479   6.366   1.117   3.375  0.7118  0.2864 -0.6211
10428TIP3    H255480   6.270   1.050   3.280 -0.3357  1.1433 -0.1818
10429TIP3   OH255481   2.078   1.655   3.847 -0.6711 -0.2838  0.0754
10429TIP3    H155482   2.165   1.650   3.886 -0.7137 -0.8452  0.1019
10429TIP3    H255483   2.078   1.588   3.778 -0.4962  0.8683 -1.1022
10430TIP3   OH255484   4.892   5.352   0.848 -0.2361 -0.0714 -0.1036
10430TIP3    H155485   4.816   5.311   0.806 -0.1343 -0.5436  0.1737
10430TIP3    H255486   4.934   5.282   0.896  0.3848  0.1933 -0.2576
10431TIP3   OH255487   2.241   6.330   2.743  0.3444  0.0729 -0.1775
10431TIP3    H155488   2.321   6.277   2.740  1.3222  1.2934  1.7471
10431TIP3    H255489   2.263   6.409   2.694  0.5466  0.6427  0.8016
10432TIP3   OH255490   4.362   3.610   1.482 -0.0749  0.0204 -0.5209
10432TIP3    H155491   4.376   3.693   1.435  0.9957  1.2727  1.8218
10432TIP3    H255492   4.391   3.543   1.421  2.9439  1.6664 -1.1176
10433TIP3   OH255493   2.565   4.382   1.267 -0.3606 -0.5398 -0.0593
10433TIP3    H155494   2.555   4.398   1.173  0.0892 -0.2352 -0.0618
10433TIP3    H255495   2.633   4.314   1.272  1.8481  1.5602  0.1190
10434TIP3   OH255496   1.237   5.836   2.613 -0.1145  0.5763  0.4451
10434TIP3    H155497   1.220   5.897   2.685 -2.0615  2.6973 -1.6272
10434TIP3    H255498   1.156   5.838   2.561  1.0265 -1.2488 -1.5288
10435TIP3   OH255499   2.493   2.065   2.046 -0.7143 -0.5799  0.0805
10435TIP3    H155500   2.412   2.079   1.996 -0.0261  0.3322 -0.8189
10435TIP3    H255501   2.537   1.993   2.000 -0.0248  0.3386 -0.7339
10436TIP3   OH255502   0.187   3.450   1.797 -0.4693 -0.0879 -0.8862
10436TIP3    H155503   0.232   3.368   1.779  1.1506  0.7310 -0.7681
10436TIP3    H255504   0.248   3.518   1.768 -2.3204  1.0860 -2.2885
10437TIP3   OH255505   3.077   0.308   2.078  0.1526  0.3169 -0.0402
10437TIP3    H155506   3.076   0.214   2.063 -1.5295  0.2252  0.4145
10437TIP3    H255507   3.125   0.318   2.160  1.3775 -0.0146 -0.6987
10438TIP3   OH255508   1.241   0.607   4.382  0.1993  0.5243  0.3681
10438TIP3    H155509   1.269   0.558   4.304 -1.4463 -0.9655  0.6582
10438TIP3    H255510   1.284   0.561   4.455 -1.5563 -0.7338  0.6655
10439TIP3   OH255511   6.648   1.229   1.475 -0.0158 -0.3320 -0.5477
10439TIP3    H155512   6.721   1.226   1.413  0.7671 -0.3644  0.3543
10439TIP3    H255513   6.668   1.160   1.538  0.1761  0.9089  0.7944
   6.84445   6.84445  26.73445
